Title
82323
    1SAPS     N    1   3.250   6.272  11.025  0.4621 -0.3039  0.1264
    1SAPS   HN1    2   3.167   6.319  10.983  0.6832  0.0187  0.0399
    1SAPS   HN2    3   3.322   6.341  11.055  1.7725 -1.4293 -0.3673
    1SAPS   HN3    4   3.291   6.209  10.954  1.5235  0.3345  0.1512
    1SAPS   C12    5   3.212   6.201  11.147 -0.4885 -0.7518  0.1825
    1SAPS  H12A    6   3.272   6.111  11.145  0.1335 -0.3454 -1.4036
    1SAPS   C13    7   3.245   6.272  11.279 -0.4571 -0.0756 -0.0849
    1SAPS  O13A    8   3.299   6.383  11.270 -0.9922 -0.7061 -0.0656
    1SAPS  O13B    9   3.183   6.244  11.383  0.2024  0.1823 -0.0472
    1SAPS   C11   10   3.061   6.172  11.132  0.1812 -0.5246 -0.3303
    1SAPS  H11A   11   2.994   6.258  11.114 -1.5600 -1.9747 -1.1334
    1SAPS  H11B   12   3.023   6.118  11.221  1.5868  0.0152  0.6415
    1SAPS     P   13   3.034   5.930  11.011 -0.0934 -0.0598  0.0151
    1SAPS   O13   14   3.170   5.888  11.037 -0.3816  1.1776  0.0251
    1SAPS   O14   15   2.920   5.885  11.100 -0.3698 -0.7402  0.2306
    1SAPS   O12   16   3.041   6.089  11.019  0.0493 -0.4601 -0.1944
    1SAPS   O11   17   3.000   5.896  10.865 -0.5017 -0.0115 -0.6865
    1SAPS    C1   18   3.035   5.997  10.765 -0.4054 -0.3445 -0.0709
    1SAPS    HA   19   2.976   6.091  10.774  2.0587  1.4293 -1.2470
    1SAPS    HB   20   3.143   6.020  10.777 -0.4607 -0.8699  1.5886
    1SAPS    C2   21   3.019   5.957  10.612 -0.0603  0.2216 -0.6134
    1SAPS    HS   22   2.911   5.930  10.611  0.1350 -0.8776  1.5850
    1SAPS   O21   23   3.111   5.850  10.578  0.5155 -0.5535  0.2370
    1SAPS   C21   24   3.060   5.764  10.495 -0.2598  0.3492  0.1156
    1SAPS   O22   25   2.939   5.753  10.470  0.2235  0.6561 -0.2065
    1SAPS   C22   26   3.186   5.697  10.437  0.4459 -0.2345  0.0870
    1SAPS   H2R   27   3.268   5.721  10.508 -0.6348  0.7215  1.0696
    1SAPS   H2S   28   3.154   5.590  10.440 -0.7236  0.0968 -0.2458
    1SAPS    C3   29   3.042   6.077  10.518 -1.5841 -0.6251  0.6691
    1SAPS    HX   30   3.148   6.111  10.522 -1.8392  0.3306 -0.2395
    1SAPS    HY   31   2.976   6.160  10.552 -0.8067  0.1382  0.3576
    1SAPS   O31   32   3.023   6.045  10.382  0.1306 -0.1885  0.2928
    1SAPS   C31   33   2.939   6.111  10.299  0.2369 -0.5622  0.0140
    1SAPS   O32   34   2.875   6.216  10.332 -0.5942  0.8614  0.1041
    1SAPS   C32   35   2.921   6.046  10.163  0.4147 -0.0275 -0.2409
    1SAPS   H2X   36   2.812   6.046  10.140  0.4661 -0.5319 -0.5020
    1SAPS   H2Y   37   2.937   5.936  10.162  1.0470  0.0439 -1.8621
    1SAPS   C23   38   3.211   5.753  10.294  0.5129 -0.4396 -0.2913
    1SAPS   H3R   39   3.264   5.850  10.307 -0.0453 -0.5009  3.6774
    1SAPS   H3S   40   3.114   5.771  10.244  0.5232  0.9227  0.1220
    1SAPS   C24   41   3.307   5.676  10.199  0.7916  0.0653 -0.5009
    1SAPS   H4R   42   3.401   5.640  10.247  1.8362  0.4081 -2.2243
    1SAPS   H4S   43   3.344   5.740  10.116  2.5282  0.2805  0.3822
    1SAPS   C25   44   3.237   5.554  10.146 -0.6750  0.0742  0.8143
    1SAPS   H5R   45   3.242   5.464  10.209 -1.7729 -1.3869 -1.0947
    1SAPS   C26   46   3.167   5.547  10.027  0.2657  0.1341 -0.0675
    1SAPS   H6R   47   3.126   5.447  10.006 -0.8562  0.3803  0.8579
    1SAPS   C27   48   3.140   5.663   9.934 -0.0019  0.0971  0.0420
    1SAPS   H7R   49   3.211   5.641   9.852 -1.1772 -2.1584 -0.4506
    1SAPS   H7S   50   3.169   5.757   9.986  1.6766 -0.9855  1.1571
    1SAPS   C28   51   3.005   5.672   9.862  0.1575 -0.5519  0.2564
    1SAPS   H8R   52   2.925   5.732   9.909  0.4168  1.1525 -1.3302
    1SAPS   C29   53   2.966   5.590   9.763 -0.0108 -1.0122 -0.3400
    1SAPS   H9R   54   2.861   5.606   9.733 -0.2744  2.9697  1.9465
    1SAPS  C210   55   3.044   5.475   9.701 -0.7216 -0.0646  0.9767
    1SAPS  H10R   56   3.040   5.382   9.762 -1.4291 -0.5260  0.2523
    1SAPS  H10S   57   3.149   5.501   9.678 -0.7535  1.0201  1.9315
    1SAPS  C211   58   2.984   5.429   9.571  0.5534  0.0345 -0.0450
    1SAPS  H11R   59   2.882   5.389   9.586  0.1466  1.3141  0.7886
    1SAPS  C212   60   3.023   5.450   9.447 -0.3351  0.0885  0.6779
    1SAPS  H12R   61   2.956   5.425   9.363  0.7238 -0.3010 -0.0769
    1SAPS  C213   62   3.152   5.520   9.402  0.5704  0.0246  0.1193
    1SAPS  H13R   63   3.234   5.447   9.382  0.9314  0.7860 -1.2977
    1SAPS  H13S   64   3.202   5.580   9.481 -0.7787  0.5117  0.6437
    1SAPS  C214   65   3.136   5.601   9.277  0.1781  0.2166 -0.1577
    1SAPS  H14R   66   3.129   5.708   9.301  1.1312  0.0407  1.0603
    1SAPS  C215   67   3.135   5.567   9.144  0.4752 -0.9349  0.2802
    1SAPS  H15R   68   3.127   5.653   9.076  1.6559 -0.4611  0.7098
    1SAPS  C216   69   3.146   5.425   9.086  0.3554 -0.0080  0.0248
    1SAPS  H16R   70   3.103   5.350   9.155  0.1719 -0.0102 -0.0901
    1SAPS  H16S   71   3.253   5.400   9.075  0.4692  0.1071  0.8300
    1SAPS  C217   72   3.090   5.418   8.942  0.1089  0.5589 -0.1029
    1SAPS  H17R   73   3.090   5.310   8.916  1.4760  0.7583 -1.0052
    1SAPS  H17S   74   3.152   5.473   8.868  0.4951 -0.0007 -0.2005
    1SAPS  C218   75   2.947   5.459   8.926 -0.0155  0.5632  0.8801
    1SAPS  H18R   76   2.934   5.568   8.943 -1.3135  0.2096  2.3907
    1SAPS  H18S   77   2.888   5.412   9.007 -1.9088 -1.5670 -1.5804
    1SAPS  C219   78   2.900   5.422   8.782  0.8472 -0.4892 -0.5772
    1SAPS  H19R   79   2.974   5.467   8.713  1.7569  1.8356  1.7697
    1SAPS  H19S   80   2.798   5.464   8.770  0.4205 -1.2126  0.3841
    1SAPS  C220   81   2.887   5.274   8.761 -0.0529 -0.4259  0.1261
    1SAPS  H20R   82   2.800   5.232   8.816 -0.7517  0.9239  0.0940
    1SAPS  H20S   83   2.979   5.216   8.787 -2.0620 -3.0433  1.9847
    1SAPS  H20T   84   2.869   5.250   8.654 -1.6157  0.6926  0.1143
    1SAPS   C33   85   2.987   6.116  10.045 -0.0535 -0.5164 -0.4577
    1SAPS   H3X   86   3.081   6.155  10.088  0.2063 -0.0884 -1.3904
    1SAPS   H3Y   87   2.921   6.197  10.008 -0.5442 -0.8624 -0.3557
    1SAPS   C34   88   3.019   6.025   9.927 -0.0506  0.0582 -0.2345
    1SAPS   H4X   89   2.922   5.992   9.885 -0.3266  0.4728  0.0613
    1SAPS   H4Y   90   3.064   5.936   9.975  0.8574  1.4259  1.6007
    1SAPS   C35   91   3.105   6.091   9.821  0.2607 -0.4698  0.0693
    1SAPS   H5X   92   3.207   6.099   9.865 -0.7559  0.9758  2.3608
    1SAPS   H5Y   93   3.085   6.197   9.794 -1.5662 -0.3499  1.6633
    1SAPS   C36   94   3.097   6.014   9.685  0.3635  0.7896 -0.3283
    1SAPS   H6X   95   2.991   6.024   9.654  0.5586 -0.4428 -1.5032
    1SAPS   H6Y   96   3.122   5.907   9.698  4.0047  1.5185 -0.1012
    1SAPS   C37   97   3.173   6.065   9.567 -0.4156 -0.1000 -0.3218
    1SAPS   H7X   98   3.280   6.045   9.587 -0.5125  1.1669  1.8619
    1SAPS   H7Y   99   3.152   6.174   9.559  0.2607 -0.0453 -1.5792
    1SAPS   C38  100   3.127   6.008   9.429 -0.5694 -0.3379  0.5978
    1SAPS   H8X  101   3.024   6.046   9.414 -0.0379  0.5732 -0.9700
    1SAPS   H8Y  102   3.123   5.897   9.419  1.4477 -0.2559 -2.3050
    1SAPS   C39  103   3.204   6.079   9.313  0.7420  0.5234 -0.0812
    1SAPS   H9X  104   3.312   6.072   9.337  0.0340 -0.8994  3.3679
    1SAPS   H9Y  105   3.174   6.186   9.320  0.3463  0.3476  4.6242
    1SAPS  C310  106   3.154   6.026   9.179  0.0357 -0.0885  0.1534
    1SAPS  H10X  107   3.044   6.035   9.170 -0.2084 -2.7437 -0.4697
    1SAPS  H10Y  108   3.178   5.919   9.199  2.8761  0.3523 -0.4077
    1SAPS  C311  109   3.243   6.086   9.066 -0.5162 -0.3799  0.2657
    1SAPS  H11X  110   3.349   6.074   9.097  0.5508 -1.4770 -3.2622
    1SAPS  H11Y  111   3.229   6.194   9.042 -0.4074 -0.1785  1.0829
    1SAPS  C312  112   3.241   5.998   8.939 -0.0690 -0.9096 -0.6348
    1SAPS  H12X  113   3.145   6.020   8.889  0.4122  1.9297 -0.4723
    1SAPS  H12Y  114   3.240   5.891   8.967  0.6315 -1.1002 -1.3024
    1SAPS  C313  115   3.365   6.031   8.840  0.0470 -0.1694 -0.2710
    1SAPS  H13X  116   3.337   5.964   8.756 -2.7209  1.0398 -0.3993
    1SAPS  H13Y  117   3.458   6.008   8.896  0.2459 -1.1161 -0.9737
    1SAPS  C314  118   3.374   6.170   8.787 -0.0312  0.1489 -0.6959
    1SAPS  H14X  119   3.391   6.250   8.862 -0.9541 -1.5842  1.4305
    1SAPS  H14Y  120   3.274   6.184   8.741  0.0571 -3.3448 -2.3230
    1SAPS  C315  121   3.478   6.196   8.679  0.4682  0.3765 -0.1820
    1SAPS  H15X  122   3.575   6.235   8.717 -0.3897  1.9325  0.4835
    1SAPS  H15Y  123   3.436   6.285   8.628  0.4028  0.3549 -0.1664
    1SAPS  C316  124   3.495   6.090   8.565  0.3110  0.8475  0.4588
    1SAPS  H16X  125   3.395   6.044   8.548 -0.0805  1.4769  0.9872
    1SAPS  H16Y  126   3.562   6.008   8.599  0.2817  0.8507  0.5265
    1SAPS  C317  127   3.527   6.164   8.430  0.4438  1.7720 -0.3173
    1SAPS  H17X  128   3.612   6.234   8.448  1.3623  1.5933 -3.3870
    1SAPS  H17Y  129   3.440   6.216   8.385  1.5646  2.2750 -1.9793
    1SAPS  C318  130   3.581   6.063   8.326  0.3882  0.5947  0.1769
    1SAPS  H18X  131   3.675   6.012   8.356  0.5005 -0.1321 -1.3214
    1SAPS  H18Y  132   3.591   6.101   8.222 -0.1855 -0.4682 -0.2916
    1SAPS  H18Z  133   3.502   5.986   8.317  1.2268 -0.1902 -0.6621
    2SAPS     N  134   1.205   0.909  10.890 -0.1389 -0.0506  0.2419
    2SAPS   HN1  135   1.175   0.847  10.813 -0.1647 -2.7661  2.2935
    2SAPS   HN2  136   1.180   0.855  10.975 -0.9942 -1.7469 -1.0423
    2SAPS   HN3  137   1.160   1.001  10.875 -1.0942 -0.8075 -1.8771
    2SAPS   C12  138   1.359   0.907  10.891  0.1993  0.4273 -0.2345
    2SAPS  H12A  139   1.395   0.995  10.942  2.1697 -0.8077  0.6344
    2SAPS   C13  140   1.413   0.779  10.965 -0.0829 -0.3727  0.3508
    2SAPS  O13A  141   1.341   0.721  11.049 -0.3813 -0.0813 -0.5353
    2SAPS  O13B  142   1.535   0.749  10.948  0.2217 -0.0711  0.0529
    2SAPS   C11  143   1.424   0.924  10.750  0.0598 -0.1033  0.3672
    2SAPS  H11A  144   1.404   0.828  10.698 -0.3265  1.1428 -1.9321
    2SAPS  H11B  145   1.535   0.937  10.753  0.3684 -1.9015 -1.0290
    2SAPS     P  146   1.438   1.153  10.620 -0.2534 -0.1184  0.0256
    2SAPS   O13  147   1.341   1.241  10.553  0.0420  0.1450  0.0489
    2SAPS   O14  148   1.521   1.217  10.722 -0.6087  0.2104  0.0403
    2SAPS   O12  149   1.367   1.033  10.671 -0.1116 -0.2748  0.1334
    2SAPS   O11  150   1.548   1.104  10.509  0.3622  0.1949 -1.1298
    2SAPS    C1  151   1.506   1.000  10.421 -0.0630 -0.1347 -0.5064
    2SAPS    HA  152   1.473   0.904  10.467 -2.3295 -1.5691 -4.5202
    2SAPS    HB  153   1.417   1.042  10.368 -0.7082  1.3038  1.6135
    2SAPS    C2  154   1.620   0.967  10.322 -0.1621 -0.0470  0.1751
    2SAPS    HS  155   1.699   0.917  10.382  0.9963  0.5232 -0.8304
    2SAPS   O21  156   1.673   1.089  10.267 -0.0846  0.1259  0.2744
    2SAPS   C21  157   1.594   1.181  10.215 -0.3473 -0.0823  0.1886
    2SAPS   O22  158   1.475   1.172  10.191 -0.5057 -0.8458  0.5698
    2SAPS   C22  159   1.681   1.296  10.174 -0.1664  0.7082 -1.0434
    2SAPS   H2R  160   1.687   1.357  10.266  1.9974 -1.5054  0.4024
    2SAPS   H2S  161   1.786   1.262  10.163 -0.0738  1.0341 -1.1596
    2SAPS    C3  162   1.566   0.870  10.210  0.6358  0.2636  0.4656
    2SAPS    HX  163   1.481   0.934  10.178  0.7146  0.8408  1.3801
    2SAPS    HY  164   1.527   0.781  10.265 -1.8637  0.9483 -0.0942
    2SAPS   O31  165   1.655   0.845  10.099  0.5748 -0.6220  0.1192
    2SAPS   C31  166   1.617   0.767   9.999  0.3404  0.0869 -0.4929
    2SAPS   O32  167   1.501   0.718   9.988 -0.4492  0.1222 -0.4468
    2SAPS   C32  168   1.721   0.768   9.892  0.0304 -0.5629  0.3972
    2SAPS   H2X  169   1.737   0.664   9.857  1.0956 -0.0127 -0.8226
    2SAPS   H2Y  170   1.815   0.806   9.937 -0.6101 -1.6841  2.8187
    2SAPS   C23  171   1.625   1.381  10.058 -0.0628 -0.1303  0.2077
    2SAPS   H3R  172   1.679   1.478  10.060  1.9802 -1.1302 -1.6123
    2SAPS   H3S  173   1.515   1.397  10.066  0.0641  0.6844  0.4221
    2SAPS   C24  174   1.648   1.311   9.916 -0.0855 -0.6469 -0.1199
    2SAPS   H4R  175   1.568   1.349   9.850 -1.2742  1.9323  2.6042
    2SAPS   H4S  176   1.623   1.205   9.936 -0.4055 -0.4492  0.5426
    2SAPS   C25  177   1.784   1.331   9.850  0.4104  0.4542 -0.6337
    2SAPS   H5R  178   1.870   1.338   9.917  1.1652  1.9409 -1.7074
    2SAPS   C26  179   1.809   1.343   9.717  0.3588 -0.3091  0.6498
    2SAPS   H6R  180   1.913   1.345   9.683 -0.2745  0.6393 -1.3897
    2SAPS   C27  181   1.702   1.337   9.610 -0.2747  0.2411  0.4887
    2SAPS   H7R  182   1.601   1.377   9.635 -2.0884 -1.4043 -3.3997
    2SAPS   H7S  183   1.687   1.235   9.569 -0.6681  0.9370 -1.1718
    2SAPS   C28  184   1.752   1.418   9.493 -0.0844  1.1793  0.3520
    2SAPS   H8R  185   1.765   1.524   9.518  2.1564  1.1326 -0.4835
    2SAPS   C29  186   1.786   1.374   9.373 -0.1207 -0.4638 -0.1995
    2SAPS   H9R  187   1.822   1.449   9.301 -0.8560 -1.2227 -1.3837
    2SAPS  C210  188   1.794   1.238   9.313 -0.0628  0.2543  0.4995
    2SAPS  H10R  189   1.690   1.200   9.297 -0.0684 -1.1968  3.3134
    2SAPS  H10S  190   1.836   1.170   9.390 -2.1820  1.0391  2.4886
    2SAPS  C211  191   1.877   1.230   9.185 -0.1173  0.0188 -0.4054
    2SAPS  H11R  192   1.972   1.179   9.202 -2.3430 -3.9525  1.4468
    2SAPS  C212  193   1.830   1.268   9.064  0.7148  0.5577 -0.3146
    2SAPS  H12R  194   1.897   1.260   8.978  2.1107 -1.1160  0.8700
    2SAPS  C213  195   1.687   1.322   9.024 -0.4829 -0.2317  0.3772
    2SAPS  H13R  196   1.688   1.424   8.981 -2.5938 -0.2817  0.0970
    2SAPS  H13S  197   1.616   1.335   9.109 -0.5738  1.3021  0.0906
    2SAPS  C214  198   1.639   1.222   8.921  0.7714  0.0880 -0.1487
    2SAPS  H14R  199   1.622   1.122   8.964  2.8760  0.1615  0.9822
    2SAPS  C215  200   1.633   1.238   8.788  0.1275 -0.2205  0.4341
    2SAPS  H15R  201   1.608   1.151   8.727 -1.0932  2.3818 -3.0967
    2SAPS  C216  202   1.671   1.363   8.712 -0.2130 -0.3047 -0.0822
    2SAPS  H16R  203   1.742   1.422   8.774 -1.1630  1.5845 -0.6960
    2SAPS  H16S  204   1.581   1.425   8.694 -1.3648 -1.4843  1.3686
    2SAPS  C217  205   1.731   1.349   8.574  0.6559 -0.0823  0.6928
    2SAPS  H17R  206   1.754   1.450   8.533  1.3378 -0.2281  0.7131
    2SAPS  H17S  207   1.650   1.311   8.508  1.5569  1.0356 -1.1423
    2SAPS  C218  208   1.855   1.264   8.573 -0.5519  0.1001 -0.3229
    2SAPS  H18R  209   1.836   1.156   8.590  0.3238 -0.1112 -0.6482
    2SAPS  H18S  210   1.929   1.290   8.651 -1.3740 -3.0456  1.6694
    2SAPS  C219  211   1.924   1.259   8.438  0.9009 -0.0706  0.0262
    2SAPS  H19R  212   1.949   1.367   8.424 -0.5063  0.1702 -0.7602
    2SAPS  H19S  213   1.855   1.232   8.356  1.8777  0.8078 -1.1323
    2SAPS  C220  214   2.061   1.197   8.446  0.3072  0.3374 -0.1170
    2SAPS  H20R  215   2.057   1.088   8.467 -2.1399  0.4181  0.2235
    2SAPS  H20S  216   2.111   1.249   8.530  0.2119 -0.6740  0.5751
    2SAPS  H20T  217   2.115   1.211   8.350  0.4758  2.9668  0.2864
    2SAPS   C33  218   1.695   0.861   9.770 -0.5450 -0.3792  0.8272
    2SAPS   H3X  219   1.679   0.966   9.804  0.9707 -0.0957  0.7337
    2SAPS   H3Y  220   1.605   0.834   9.710 -2.7350  2.1407  2.7261
    2SAPS   C34  221   1.805   0.859   9.655  0.6877 -0.2079 -0.6558
    2SAPS   H4X  222   1.900   0.870   9.711 -0.0505 -0.0583  0.6030
    2SAPS   H4Y  223   1.803   0.946   9.586  0.3580 -0.6896 -1.2647
    2SAPS   C35  224   1.818   0.731   9.569 -0.6486  0.0969 -0.5080
    2SAPS   H5X  225   1.717   0.698   9.538 -0.7392  1.0356 -1.2789
    2SAPS   H5Y  226   1.875   0.653   9.624  2.6518  2.9655  0.5120
    2SAPS   C36  227   1.896   0.749   9.436 -0.3905 -0.9459 -0.3469
    2SAPS   H6X  228   2.004   0.754   9.461 -0.1416  0.6260 -1.5652
    2SAPS   H6Y  229   1.881   0.851   9.394  0.4804 -0.7254 -0.1373
    2SAPS   C37  230   1.877   0.647   9.330  0.3655 -0.3381  0.4724
    2SAPS   H7X  231   1.769   0.640   9.302  0.4145 -0.7890  0.3971
    2SAPS   H7Y  232   1.906   0.544   9.361 -0.8019 -0.6591  0.5563
    2SAPS   C38  233   1.950   0.678   9.205  0.3553  0.8462  0.3782
    2SAPS   H8X  234   2.054   0.710   9.227  0.4205  0.4840  0.6079
    2SAPS   H8Y  235   1.895   0.758   9.151  1.5449  0.8174 -0.9705
    2SAPS   C39  236   1.964   0.556   9.104  0.8643 -0.3509 -0.6442
    2SAPS   H9X  237   1.864   0.513   9.081  0.2561 -0.4133  1.7956
    2SAPS   H9Y  238   2.019   0.470   9.148  0.5811 -0.3947 -0.3701
    2SAPS  C310  239   2.032   0.580   8.970  0.7256  0.3414  0.2883
    2SAPS  H10X  240   2.143   0.572   8.975  0.5708 -1.6510  1.6438
    2SAPS  H10Y  241   1.999   0.678   8.930  1.1944  1.1506  1.8278
    2SAPS  C311  242   1.985   0.476   8.866 -0.1015 -0.2122  0.6224
    2SAPS  H11X  243   1.879   0.446   8.875 -0.3872 -0.3386 -2.1844
    2SAPS  H11Y  244   2.041   0.385   8.896  0.8027  0.6669  1.7072
    2SAPS  C312  245   1.998   0.531   8.721 -0.3057 -0.2862 -0.2207
    2SAPS  H12X  246   2.107   0.536   8.701  0.1088 -1.7590  1.4015
    2SAPS  H12Y  247   1.949   0.630   8.712  0.4515 -0.0015 -1.4950
    2SAPS  C313  248   1.952   0.435   8.612 -0.3328  0.1466 -0.0994
    2SAPS  H13X  249   1.847   0.401   8.621  0.0691 -0.5918  3.2662
    2SAPS  H13Y  250   2.010   0.341   8.613  0.7514  0.7924 -0.5575
    2SAPS  C314  251   1.983   0.499   8.476  0.1490  0.0114  0.0494
    2SAPS  H14X  252   2.090   0.528   8.466 -0.3698  2.2076  0.2340
    2SAPS  H14Y  253   1.912   0.583   8.462 -0.1848 -0.7171 -3.5978
    2SAPS  C315  254   1.959   0.399   8.362  0.0284 -0.3951  1.1483
    2SAPS  H15X  255   2.027   0.312   8.356 -0.5483 -0.7662 -2.3146
    2SAPS  H15Y  256   1.965   0.451   8.264 -0.0670 -0.9086  0.8651
    2SAPS  C316  257   1.814   0.345   8.362  0.1167 -0.2794 -0.4711
    2SAPS  H16X  258   1.740   0.426   8.381  0.4031  0.5711 -2.6302
    2SAPS  H16Y  259   1.804   0.258   8.430 -3.8958  0.5589  0.2930
    2SAPS  C317  260   1.770   0.289   8.222  0.3724  0.0282 -0.6245
    2SAPS  H17X  261   1.846   0.213   8.192  0.7438 -0.3563  1.2119
    2SAPS  H17Y  262   1.774   0.371   8.147 -0.1269  2.1583  1.5502
    2SAPS  C318  263   1.630   0.216   8.212  0.5462 -0.2990 -0.0263
    2SAPS  H18X  264   1.549   0.292   8.211 -0.2751 -1.1514 -0.7729
    2SAPS  H18Y  265   1.613   0.144   8.295 -1.7817 -1.6430 -1.5525
    2SAPS  H18Z  266   1.619   0.161   8.116  0.4578 -1.6747  0.7438
    3SAPS     N  267   0.610   2.617  11.219  0.2057  0.0875  0.3563
    3SAPS   HN1  268   0.594   2.628  11.321 -1.7108  0.8256  0.0347
    3SAPS   HN2  269   0.674   2.538  11.199  1.5094  1.2258 -0.1313
    3SAPS   HN3  270   0.673   2.698  11.202  1.0534 -0.2641  1.6924
    3SAPS   C12  271   0.492   2.634  11.132  0.2485 -0.3132 -0.5536
    3SAPS  H12A  272   0.452   2.534  11.132 -0.6723  0.0206  1.4506
    3SAPS   C13  273   0.391   2.750  11.170  0.4466 -0.0169 -0.2064
    3SAPS  O13A  274   0.430   2.841  11.252 -0.1330 -0.4994 -0.1211
    3SAPS  O13B  275   0.297   2.774  11.094 -0.0227  0.3505  0.1061
    3SAPS   C11  276   0.545   2.657  10.987 -0.6680  0.8912  0.7373
    3SAPS  H11A  277   0.568   2.764  10.968 -0.0899  0.9494  1.7023
    3SAPS  H11B  278   0.467   2.624  10.914  0.5348  0.8172 -0.5584
    3SAPS     P  279   0.795   2.616  10.877 -0.0178 -0.1719  0.3446
    3SAPS   O13  280   0.843   2.737  10.936 -0.1683  0.3583 -0.0058
    3SAPS   O14  281   0.885   2.499  10.866  0.0898 -0.4867 -0.5542
    3SAPS   O12  282   0.661   2.574  10.953 -0.0987  0.0695 -0.0363
    3SAPS   O11  283   0.742   2.651  10.723  0.9620  0.0080  0.4671
    3SAPS    C1  284   0.689   2.779  10.704  0.5924  0.4690  0.0576
    3SAPS    HA  285   0.597   2.790  10.764  0.8565 -0.3352  0.6331
    3SAPS    HB  286   0.757   2.861  10.736  1.3115 -0.2754  0.4901
    3SAPS    C2  287   0.645   2.795  10.554 -0.6193  0.0431  0.3204
    3SAPS    HS  288   0.553   2.733  10.547 -0.3512 -0.1948 -1.7598
    3SAPS   O21  289   0.749   2.741  10.462 -0.1124  0.0060 -0.0741
    3SAPS   C21  290   0.687   2.698  10.347  0.5038  0.1482  0.4049
    3SAPS   O22  291   0.567   2.681  10.338 -0.4680 -0.2298  0.0697
    3SAPS   C22  292   0.790   2.666  10.234 -0.3045 -0.3284  0.5496
    3SAPS   H2R  293   0.824   2.757  10.181  0.0855 -0.4751  0.5412
    3SAPS   H2S  294   0.883   2.610  10.259  0.6159  1.9633  2.6991
    3SAPS    C3  295   0.598   2.933  10.513  0.6885  0.1225 -0.1284
    3SAPS    HX  296   0.513   2.968  10.575 -0.0019 -1.5281 -0.0827
    3SAPS    HY  297   0.545   2.927  10.415 -0.5996  2.9498  0.2905
    3SAPS   O31  298   0.704   3.033  10.514  0.0230 -0.2548 -0.3487
    3SAPS   C31  299   0.768   3.042  10.399 -0.3901  0.8312 -0.2087
    3SAPS   O32  300   0.727   2.999  10.292  0.0858  0.2812  0.2009
    3SAPS   C32  301   0.891   3.120  10.405 -0.4130 -0.6592  0.0969
    3SAPS   H2X  302   0.866   3.201  10.476 -0.1953 -0.4953 -0.0143
    3SAPS   H2Y  303   0.900   3.171  10.307 -2.3495  1.4796  0.9619
    3SAPS   C23  304   0.724   2.586  10.115 -0.5929 -0.4173 -0.6683
    3SAPS   H3R  305   0.638   2.644  10.076  1.4025  3.2848  0.0139
    3SAPS   H3S  306   0.680   2.495  10.162 -0.1398 -0.1114  0.3869
    3SAPS   C24  307   0.829   2.557  10.008 -0.7431 -0.4682  0.2427
    3SAPS   H4R  308   0.920   2.515  10.057 -0.6430  2.5059  3.0005
    3SAPS   H4S  309   0.868   2.647   9.957 -2.5150  0.2300  0.0459
    3SAPS   C25  310   0.767   2.465   9.902 -0.0721  0.5032 -0.0692
    3SAPS   H5R  311   0.733   2.371   9.950  0.3008 -0.3853 -1.4853
    3SAPS   C26  312   0.760   2.473   9.767 -0.4439 -0.7290  0.3003
    3SAPS   H6R  313   0.722   2.391   9.705  2.7978  0.0363 -3.0603
    3SAPS   C27  314   0.811   2.589   9.684  0.5704  0.1407 -0.1067
    3SAPS   H7R  315   0.797   2.674   9.754  0.0145 -0.9693  1.1738
    3SAPS   H7S  316   0.742   2.607   9.598  1.2018  1.7818 -0.3133
    3SAPS   C28  317   0.955   2.574   9.636  0.3547 -0.3317 -0.0745
    3SAPS   H8R  318   1.017   2.636   9.701 -0.6984 -0.7711  1.3944
    3SAPS   C29  319   0.997   2.525   9.518  0.1513 -0.2847 -0.5917
    3SAPS   H9R  320   1.099   2.543   9.481  0.4607 -0.8673 -0.0307
    3SAPS  C210  321   0.915   2.460   9.411  0.3759 -0.0591 -0.0091
    3SAPS  H10R  322   0.875   2.534   9.338 -1.0647 -2.1144 -1.3980
    3SAPS  H10S  323   0.830   2.404   9.456 -0.1681  0.3720 -0.4786
    3SAPS  C211  324   0.996   2.360   9.331  0.2301  0.4887 -0.4511
    3SAPS  H11R  325   0.989   2.255   9.362 -1.7909  1.4580  2.9488
    3SAPS  C212  326   1.062   2.389   9.219 -0.1784  0.0790 -0.0092
    3SAPS  H12R  327   1.123   2.312   9.170  0.1353 -0.7741  1.6379
    3SAPS  C213  328   1.082   2.528   9.162 -0.4391 -0.0588 -0.1110
    3SAPS  H13R  329   1.098   2.605   9.240 -1.1535 -2.8751  3.0303
    3SAPS  H13S  330   0.997   2.555   9.097 -1.0051  1.7980  1.3174
    3SAPS  C214  331   1.208   2.522   9.078 -0.0785 -0.3562  0.7497
    3SAPS  H14R  332   1.295   2.521   9.145  1.4310 -1.5503 -1.1391
    3SAPS  C215  333   1.231   2.520   8.945  0.2802 -0.0275 -0.0773
    3SAPS  H15R  334   1.334   2.513   8.906  0.6476 -0.3408  0.9310
    3SAPS  C216  335   1.118   2.516   8.851 -0.4185 -0.1666  0.2264
    3SAPS  H16R  336   1.031   2.579   8.879 -0.7978 -0.0156 -1.1960
    3SAPS  H16S  337   1.075   2.414   8.851 -0.2591 -0.2348 -0.1118
    3SAPS  C217  338   1.155   2.556   8.705 -0.0026 -0.2819  0.1369
    3SAPS  H17R  339   1.082   2.524   8.627 -0.4887  0.5540  0.2315
    3SAPS  H17S  340   1.254   2.508   8.691  1.0576  0.7908  3.0455
    3SAPS  C218  341   1.172   2.711   8.700 -0.3001 -0.7423 -0.5267
    3SAPS  H18R  342   1.243   2.730   8.783 -0.3485 -3.0332  0.1022
    3SAPS  H18S  343   1.077   2.762   8.727 -1.2319 -2.6276 -0.0618
    3SAPS  C219  344   1.229   2.775   8.566 -0.3093  0.2968 -0.3821
    3SAPS  H19R  345   1.141   2.779   8.500  0.1277 -1.0001 -1.0618
    3SAPS  H19S  346   1.301   2.705   8.519 -1.7953 -3.6256  2.6483
    3SAPS  C220  347   1.280   2.918   8.578 -0.5506  0.1981  0.2498
    3SAPS  H20R  348   1.366   2.943   8.644  0.7734 -1.4599 -0.7534
    3SAPS  H20S  349   1.201   2.992   8.604  0.0025  1.0329 -0.4263
    3SAPS  H20T  350   1.307   2.948   8.475 -5.7479  0.9031 -1.1883
    3SAPS   C33  351   1.019   3.053  10.460 -0.0029 -0.3295 -0.0282
    3SAPS   H3X  352   0.998   2.981  10.542 -0.7720 -1.1080 -0.8815
    3SAPS   H3Y  353   1.080   3.131  10.512 -0.9925  0.0273  0.6337
    3SAPS   C34  354   1.120   2.994  10.360 -0.7661 -1.1911 -0.1569
    3SAPS   H4X  355   1.214   2.972  10.415 -0.5950 -2.1778 -0.8132
    3SAPS   H4Y  356   1.138   3.079  10.291 -1.0149 -2.3832 -1.7551
    3SAPS   C35  357   1.086   2.868  10.274  0.1289  0.1645 -0.5668
    3SAPS   H5X  358   1.005   2.901  10.205 -1.6079 -4.0633 -0.8299
    3SAPS   H5Y  359   1.045   2.792  10.344  1.4097 -0.0612 -0.0227
    3SAPS   C36  360   1.205   2.816  10.202  0.3595  0.5352 -0.2811
    3SAPS   H6X  361   1.291   2.778  10.262  0.9044  0.9258 -0.7900
    3SAPS   H6Y  362   1.251   2.901  10.145  2.2490  0.3978  0.9353
    3SAPS   C37  363   1.171   2.709  10.095  0.5946  0.9466  0.2852
    3SAPS   H7X  364   1.089   2.746  10.031 -0.6646  0.0175  1.3090
    3SAPS   H7Y  365   1.141   2.614  10.143  0.0504  1.5166  1.1012
    3SAPS   C38  366   1.288   2.695  10.006  0.6718 -0.0685 -0.3773
    3SAPS   H8X  367   1.366   2.663  10.079  1.5275  2.0368 -0.3191
    3SAPS   H8Y  368   1.329   2.785   9.956 -1.2007 -0.1475 -2.1697
    3SAPS   C39  369   1.264   2.578   9.903 -0.4417 -0.1050 -0.7265
    3SAPS   H9X  370   1.186   2.616   9.833 -0.4584  1.7531  0.2376
    3SAPS   H9Y  371   1.218   2.485   9.942  0.7947 -1.1727 -1.7203
    3SAPS  C310  372   1.387   2.522   9.833  0.5453 -0.4821 -0.7192
    3SAPS  H10X  373   1.465   2.498   9.908  0.7138  1.4297 -0.2082
    3SAPS  H10Y  374   1.426   2.606   9.771  1.1774  0.3920  0.7909
    3SAPS  C311  375   1.363   2.418   9.728 -0.4455 -0.6851 -0.7474
    3SAPS  H11X  376   1.260   2.427   9.685  0.2827 -1.7356 -2.8685
    3SAPS  H11Y  377   1.366   2.321   9.781  1.1874 -0.3663 -0.2241
    3SAPS  C312  378   1.464   2.424   9.610 -0.0835  0.0538 -0.5182
    3SAPS  H12X  379   1.565   2.395   9.646  0.0196  1.5950  0.5379
    3SAPS  H12Y  380   1.481   2.528   9.573 -0.2847  0.3155  0.1091
    3SAPS  C313  381   1.405   2.327   9.509 -0.0546 -1.2503  0.0273
    3SAPS  H13X  382   1.304   2.361   9.480  0.8267 -0.0871 -1.8245
    3SAPS  H13Y  383   1.404   2.226   9.557  0.3234 -0.7298  1.1718
    3SAPS  C314  384   1.500   2.319   9.386 -0.4323  0.4954  0.2203
    3SAPS  H14X  385   1.601   2.297   9.426 -0.7198  0.6804  1.0493
    3SAPS  H14Y  386   1.500   2.413   9.327  0.8880 -0.8014 -2.0277
    3SAPS  C315  387   1.461   2.209   9.285  0.7428 -0.0402 -0.9462
    3SAPS  H15X  388   1.350   2.216   9.283  0.5525  0.8169  3.5942
    3SAPS  H15Y  389   1.498   2.116   9.333  0.8375  0.0200 -0.9047
    3SAPS  C316  390   1.516   2.237   9.148  0.7012  0.0067  0.1266
    3SAPS  H16X  391   1.596   2.167   9.115  0.9754 -0.0291  0.8583
    3SAPS  H16Y  392   1.540   2.343   9.122  0.9185  0.3382  1.6127
    3SAPS  C317  393   1.401   2.213   9.044 -0.3754 -0.1757  0.0142
    3SAPS  H17X  394   1.322   2.283   9.081  1.2715  0.4157  2.6739
    3SAPS  H17Y  395   1.377   2.105   9.056  2.8502 -1.1093 -1.0074
    3SAPS  C318  396   1.446   2.230   8.902  0.3160  0.5977  0.0844
    3SAPS  H18X  397   1.465   2.338   8.888 -1.2831  1.0991  1.5284
    3SAPS  H18Y  398   1.372   2.183   8.833  0.2462  1.2177 -0.2637
    3SAPS  H18Z  399   1.544   2.185   8.876  2.0955  3.6469  0.9997
    4SAPS     N  400   4.003   1.728  10.547  0.5449  0.3103 -1.1629
    4SAPS   HN1  401   3.901   1.735  10.531 -0.1531 -2.7672  0.9574
    4SAPS   HN2  402   4.044   1.821  10.526 -0.2577  1.5408  2.0844
    4SAPS   HN3  403   4.037   1.653  10.483  0.1802  0.7524 -1.8773
    4SAPS   C12  404   4.029   1.699  10.690  0.1673  0.4556 -0.0800
    4SAPS  H12A  405   4.136   1.713  10.700  0.2796  0.5460 -1.2444
    4SAPS   C13  406   3.968   1.799  10.781  0.1233 -0.3361 -0.5918
    4SAPS  O13A  407   3.882   1.885  10.746 -0.1111  0.0733 -0.7677
    4SAPS  O13B  408   3.987   1.790  10.907 -0.1243  0.2252 -0.5609
    4SAPS   C11  409   3.978   1.559  10.726  0.1686  0.5341 -0.1137
    4SAPS  H11A  410   3.872   1.557  10.691 -0.5570 -0.3080  2.0047
    4SAPS  H11B  411   3.978   1.549  10.836  0.3986 -1.3064 -0.2577
    4SAPS     P  412   4.051   1.309  10.675 -0.3180 -0.0393 -0.2040
    4SAPS   O13  413   4.167   1.238  10.610 -0.0964 -0.5605 -0.5974
    4SAPS   O14  414   4.029   1.281  10.821 -0.0796  0.0815  0.1609
    4SAPS   O12  415   4.057   1.463  10.651 -0.5384  0.1524 -0.7495
    4SAPS   O11  416   3.922   1.271  10.589 -0.3605  0.0221 -0.2569
    4SAPS    C1  417   3.894   1.340  10.462  0.0908 -0.0005 -0.9586
    4SAPS    HA  418   3.873   1.445  10.492  1.8175 -0.1532  1.0772
    4SAPS    HB  419   3.981   1.342  10.393  0.6806  1.9260 -0.2539
    4SAPS    C2  420   3.772   1.280  10.394 -1.0297  0.3499  0.1974
    4SAPS    HS  421   3.695   1.278  10.474  0.2167  2.3381  1.5080
    4SAPS   O21  422   3.807   1.146  10.348 -0.4099 -0.3715  0.2461
    4SAPS   C21  423   3.711   1.082  10.285  0.1213  0.5651 -0.0350
    4SAPS   O22  424   3.591   1.104  10.288 -0.3833 -0.0358 -0.0422
    4SAPS   C22  425   3.770   0.961  10.212 -0.4341  0.3515  0.5180
    4SAPS   H2R  426   3.864   0.989  10.160 -0.3553 -1.3489 -0.3309
    4SAPS   H2S  427   3.792   0.884  10.289  1.1855 -1.7288 -1.8506
    4SAPS    C3  428   3.725   1.362  10.275 -0.1616  0.1333 -0.2824
    4SAPS    HX  429   3.711   1.461  10.325  2.2373  0.6495 -0.5342
    4SAPS    HY  430   3.622   1.327  10.251 -0.3420 -1.7184  2.7291
    4SAPS   O31  431   3.820   1.358  10.163  0.0730  0.1559 -0.3235
    4SAPS   C31  432   3.900   1.463  10.156  0.6235 -0.3656 -0.2195
    4SAPS   O32  433   3.896   1.562  10.231  0.0415  0.0496  0.3327
    4SAPS   C32  434   3.992   1.448  10.043 -0.2780  0.1533  0.0790
    4SAPS   H2X  435   4.054   1.359  10.065  1.0033  1.1775  0.7256
    4SAPS   H2Y  436   4.061   1.535  10.048  0.2710 -0.2817  0.1916
    4SAPS   C23  437   3.689   0.891  10.102 -0.2729  0.6376 -0.1821
    4SAPS   H3R  438   3.608   0.828  10.144  0.7280 -1.0842 -0.7467
    4SAPS   H3S  439   3.758   0.824  10.047 -1.7579 -1.0636 -0.0438
    4SAPS   C24  440   3.630   0.983   9.996  0.5657 -0.7035 -0.1653
    4SAPS   H4R  441   3.549   1.041  10.046  1.9918  0.6559  0.6537
    4SAPS   H4S  442   3.569   0.931   9.919  0.8261 -0.3628 -0.6088
    4SAPS   C25  443   3.705   1.091   9.928 -0.4386  0.2766 -0.1659
    4SAPS   H5R  444   3.726   1.181   9.988 -0.7909  1.0088 -1.1200
    4SAPS   C26  445   3.726   1.091   9.791 -0.1788 -0.0892 -0.0404
    4SAPS   H6R  446   3.770   1.183   9.751  1.7933 -0.6712  0.6828
    4SAPS   C27  447   3.684   0.990   9.686 -0.3095 -0.9912  0.2759
    4SAPS   H7R  448   3.672   0.889   9.731 -0.8828 -0.2670  1.8260
    4SAPS   H7S  449   3.767   0.979   9.613  2.1821  1.5686  2.5082
    4SAPS   C28  450   3.548   1.028   9.620 -0.8084 -0.3228  0.1642
    4SAPS   H8R  451   3.466   1.054   9.689  0.0517  1.2937  0.6388
    4SAPS   C29  452   3.526   1.043   9.489 -0.0350 -0.6229 -0.1082
    4SAPS   H9R  453   3.423   1.076   9.469  0.4788  0.7638 -0.5806
    4SAPS  C210  454   3.626   1.039   9.374 -0.1289  0.2013 -0.0349
    4SAPS  H10R  455   3.576   0.994   9.285 -0.6028 -2.0409  1.2695
    4SAPS  H10S  456   3.711   0.969   9.396 -1.1979 -1.2022 -0.2097
    4SAPS  C211  457   3.679   1.177   9.358  0.1481 -0.3079  0.6400
    4SAPS  H11R  458   3.702   1.224   9.455  0.7691 -0.4705  0.5776
    4SAPS  C212  459   3.727   1.240   9.249 -0.0171 -0.7105 -0.1355
    4SAPS  H12R  460   3.775   1.339   9.252  3.3633 -2.2245  1.5112
    4SAPS  C213  461   3.722   1.174   9.110 -0.1722  0.4161  0.2557
    4SAPS  H13R  462   3.770   1.074   9.115 -2.0657 -0.4720  3.5901
    4SAPS  H13S  463   3.784   1.233   9.038 -0.8886  0.5427 -0.2714
    4SAPS  C214  464   3.591   1.158   9.043 -0.0872 -0.3179 -0.8322
    4SAPS  H14R  465   3.530   1.078   9.088 -0.2006 -0.1844 -0.7483
    4SAPS  C215  466   3.541   1.239   8.948  0.6480 -0.1969 -0.3479
    4SAPS  H15R  467   3.447   1.207   8.900 -1.1997  0.4657  2.6066
    4SAPS  C216  468   3.615   1.354   8.884 -0.6321  0.2945  0.4370
    4SAPS  H16R  469   3.699   1.399   8.942 -0.2993  0.8158 -0.4308
    4SAPS  H16S  470   3.547   1.439   8.859 -0.0077  0.4814 -0.6807
    4SAPS  C217  471   3.671   1.313   8.750  0.0105  0.2503  0.2732
    4SAPS  H17R  472   3.587   1.288   8.681  0.3783  2.0294 -0.8715
    4SAPS  H17S  473   3.737   1.224   8.754  0.8449  0.8399 -0.1755
    4SAPS  C218  474   3.756   1.421   8.676 -0.2798 -0.2724 -0.5142
    4SAPS  H18R  475   3.849   1.450   8.730 -0.2090 -1.1693 -0.1405
    4SAPS  H18S  476   3.694   1.511   8.654  2.0908  1.7015  0.4219
    4SAPS  C219  477   3.804   1.388   8.537  0.1017  0.0306 -0.3060
    4SAPS  H19R  478   3.719   1.393   8.465  1.0062 -1.9048 -1.6129
    4SAPS  H19S  479   3.841   1.283   8.528  1.4161  0.3770  0.6970
    4SAPS  C220  480   3.910   1.478   8.482  0.0917 -0.0615 -0.1815
    4SAPS  H20R  481   3.952   1.453   8.382  1.6296  0.6838  0.2509
    4SAPS  H20S  482   3.999   1.466   8.546 -0.2451 -1.4823  0.0574
    4SAPS  H20T  483   3.871   1.582   8.474 -3.5379 -1.2815 -0.3564
    4SAPS   C33  484   3.924   1.432   9.894 -0.5015 -0.2416 -0.1387
    4SAPS   H3X  485   3.896   1.533   9.858 -1.0013  0.0212  0.9320
    4SAPS   H3Y  486   3.837   1.363   9.899 -1.4960  1.0589  1.4661
    4SAPS   C34  487   4.025   1.368   9.805 -0.2773 -0.0205  0.1065
    4SAPS   H4X  488   4.046   1.265   9.840  0.0319  0.1526  0.4433
    4SAPS   H4Y  489   4.120   1.425   9.811 -1.2462  1.7982 -0.8564
    4SAPS   C35  490   3.992   1.383   9.655  0.1196  0.2963  0.1471
    4SAPS   H5X  491   3.962   1.488   9.634  0.4982  0.5054  0.6364
    4SAPS   H5Y  492   3.906   1.317   9.631  1.0876 -1.2613  0.8431
    4SAPS   C36  493   4.114   1.351   9.569 -0.1611  0.5638  0.1150
    4SAPS   H6X  494   4.160   1.251   9.589 -1.0865  0.3289  1.1212
    4SAPS   H6Y  495   4.196   1.424   9.584  1.4636  0.0253 -4.3548
    4SAPS   C37  496   4.088   1.351   9.414 -0.8170  0.3520 -0.0735
    4SAPS   H7X  497   4.060   1.456   9.394  2.6529  1.5566  0.7974
    4SAPS   H7Y  498   4.007   1.289   9.370 -1.5033  0.2799  1.2143
    4SAPS   C38  499   4.218   1.321   9.332  0.1418  0.2295  0.0481
    4SAPS   H8X  500   4.222   1.210   9.329  1.6128  0.2615  0.1922
    4SAPS   H8Y  501   4.309   1.367   9.376 -1.6566  2.4361  1.7432
    4SAPS   C39  502   4.211   1.359   9.181 -0.0447  0.0666 -0.0184
    4SAPS   H9X  503   4.176   1.464   9.176  2.1831  0.9198  0.8761
    4SAPS   H9Y  504   4.125   1.303   9.138 -1.5394 -0.2401  3.1289
    4SAPS  C310  505   4.336   1.328   9.097  0.0226  0.9548  0.7025
    4SAPS  H10X  506   4.367   1.224   9.121 -2.5288  0.4269  2.0140
    4SAPS  H10Y  507   4.417   1.395   9.133  0.1840  0.9390  0.3707
    4SAPS  C311  508   4.317   1.345   8.950 -0.0864  0.4426 -0.2442
    4SAPS  H11X  509   4.273   1.257   8.899 -0.9794  0.3118  0.7219
    4SAPS  H11Y  510   4.420   1.355   8.909  0.0654 -1.2951 -0.3404
    4SAPS  C312  511   4.242   1.473   8.917 -0.4459  0.1132 -0.3282
    4SAPS  H12X  512   4.285   1.550   8.985  1.4778 -1.2085  0.0292
    4SAPS  H12Y  513   4.133   1.460   8.932 -0.9299 -0.1574 -3.4279
    4SAPS  C313  514   4.248   1.517   8.772  0.8129 -0.1260 -0.6953
    4SAPS  H13X  515   4.200   1.439   8.710  0.2720 -0.7738  0.4912
    4SAPS  H13Y  516   4.356   1.524   8.746  1.4749  1.5777  2.0365
    4SAPS  C314  517   4.174   1.646   8.731  0.1712 -0.2713  0.1340
    4SAPS  H14X  518   4.071   1.637   8.770 -0.2133 -0.7220 -0.9449
    4SAPS  H14Y  519   4.166   1.648   8.620  2.1291 -1.0054 -0.0564
    4SAPS  C315  520   4.238   1.782   8.777 -0.0624  0.8001 -0.0660
    4SAPS  H15X  521   4.347   1.768   8.758 -0.0318  2.3622 -1.2522
    4SAPS  H15Y  522   4.219   1.798   8.885  1.8845  2.5437  0.0643
    4SAPS  C316  523   4.180   1.903   8.717 -0.4829  0.1907  0.5410
    4SAPS  H16X  524   4.072   1.912   8.744 -0.7599  1.3484 -0.8724
    4SAPS  H16Y  525   4.175   1.893   8.607 -0.0541 -0.6871  0.5907
    4SAPS  C317  526   4.246   2.034   8.766  0.0408  0.0929 -0.3779
    4SAPS  H17X  527   4.356   2.025   8.753 -0.0747 -3.1923 -0.1594
    4SAPS  H17Y  528   4.233   2.052   8.875 -0.3781 -0.8982 -0.2475
    4SAPS  C318  529   4.191   2.153   8.687  0.1493  0.0581 -0.4605
    4SAPS  H18X  530   4.080   2.151   8.693  0.1234  0.8958 -0.6015
    4SAPS  H18Y  531   4.222   2.133   8.583 -0.1752 -0.3483 -0.4834
    4SAPS  H18Z  532   4.228   2.245   8.738 -0.8509 -1.1893  2.7908
    5SAPS     N  533   1.118   2.374  10.845 -0.3271  0.1022 -0.4248
    5SAPS   HN1  534   1.190   2.449  10.845  0.5382 -0.7058 -0.8742
    5SAPS   HN2  535   1.104   2.329  10.752  2.6002 -0.6458 -0.5942
    5SAPS   HN3  536   1.027   2.418  10.870 -0.8056 -1.3303  0.4621
    5SAPS   C12  537   1.158   2.264  10.941  0.6782 -1.0901 -0.7914
    5SAPS  H12A  538   1.247   2.224  10.895  0.6383 -0.9853 -0.9614
    5SAPS   C13  539   1.173   2.319  11.078 -0.1333 -0.7983 -0.1527
    5SAPS  O13A  540   1.130   2.431  11.108  0.4172 -1.0817 -0.2131
    5SAPS  O13B  541   1.244   2.251  11.160  0.1474  0.1987 -0.3915
    5SAPS   C11  542   1.045   2.155  10.933 -0.1844 -0.5920  0.1215
    5SAPS  H11A  543   0.948   2.204  10.957  1.6331  2.6964  1.4798
    5SAPS  H11B  544   1.074   2.083  11.013  1.3339 -0.2030 -0.0409
    5SAPS     P  545   1.005   1.940  10.794  0.3411 -0.5760  0.1288
    5SAPS   O13  546   1.120   1.871  10.854 -0.2391 -0.0300  0.0282
    5SAPS   O14  547   0.870   1.920  10.846 -0.3820  0.0087 -0.1307
    5SAPS   O12  548   1.041   2.092  10.800 -0.1753 -0.6993  0.2224
    5SAPS   O11  549   1.002   1.923  10.637  0.1409  0.2923 -0.7324
    5SAPS    C1  550   1.131   1.911  10.565  0.2323  0.0781  0.3715
    5SAPS    HA  551   1.209   1.857  10.623  1.8107  1.3854 -0.4295
    5SAPS    HB  552   1.110   1.851  10.474 -3.3390 -0.4748  1.4190
    5SAPS    C2  553   1.200   2.051  10.533  0.7771 -0.2236 -0.0278
    5SAPS    HS  554   1.206   2.104  10.630 -1.3436 -2.0376  1.1996
    5SAPS   O21  555   1.130   2.117  10.431  0.2745 -0.2435 -0.0424
    5SAPS   C21  556   1.073   2.230  10.474 -0.0528 -0.0929  1.0510
    5SAPS   O22  557   1.083   2.284  10.583 -0.2096 -0.2197  0.1545
    5SAPS   C22  558   0.982   2.272  10.367 -0.3991  0.1517 -0.1115
    5SAPS   H2R  559   0.907   2.195  10.342 -2.4580  1.4354  1.7437
    5SAPS   H2S  560   0.930   2.366  10.396 -1.0888 -0.6325  1.2257
    5SAPS    C3  561   1.337   2.024  10.471 -0.3454  0.2347  0.4661
    5SAPS    HX  562   1.407   1.976  10.542  1.0642 -1.0514 -1.6725
    5SAPS    HY  563   1.383   2.116  10.429  3.2333 -2.2308 -1.5224
    5SAPS   O31  564   1.322   1.934  10.353  0.2862  0.1344  0.9048
    5SAPS   C31  565   1.436   1.912  10.297 -0.4853  0.0309 -0.3758
    5SAPS   O32  566   1.547   1.952  10.335  0.6460  0.6325 -0.0942
    5SAPS   C32  567   1.411   1.821  10.176 -0.2137 -0.1972 -0.2512
    5SAPS   H2X  568   1.322   1.759  10.198 -2.2123  2.7108  0.4065
    5SAPS   H2Y  569   1.494   1.747  10.176  1.2460  1.3161 -2.2748
    5SAPS   C23  570   1.052   2.317  10.235 -0.0499  0.1427 -0.5880
    5SAPS   H3R  571   1.120   2.403  10.249  0.2850 -0.2558  0.3063
    5SAPS   H3S  572   0.965   2.341  10.171 -0.7965 -0.7517  0.0610
    5SAPS   C24  573   1.140   2.222  10.164 -0.8241  0.5730 -0.3136
    5SAPS   H4R  574   1.214   2.198  10.243  0.3573  3.4229 -0.4406
    5SAPS   H4S  575   1.194   2.262  10.075 -0.8721 -0.6793 -0.9334
    5SAPS   C25  576   1.061   2.099  10.115 -0.0633  1.0613  0.4717
    5SAPS   H5R  577   1.006   2.051  10.198 -1.3439  0.8290 -0.4800
    5SAPS   C26  578   1.059   2.036   9.994  0.8621 -0.2692  0.1774
    5SAPS   H6R  579   0.997   1.948   9.975  2.4571 -1.2073 -0.9451
    5SAPS   C27  580   1.125   2.071   9.859 -0.0126  0.5202 -0.5650
    5SAPS   H7R  581   1.122   1.983   9.792 -0.1435  0.7967 -0.9270
    5SAPS   H7S  582   1.231   2.097   9.879  0.0096 -0.4101  0.6633
    5SAPS   C28  583   1.063   2.182   9.781  0.1828 -0.1320 -0.6600
    5SAPS   H8R  584   1.057   2.278   9.834  1.1564 -0.3577 -0.1009
    5SAPS   C29  585   1.014   2.165   9.653 -0.1727  0.5000  0.0498
    5SAPS   H9R  586   0.964   2.253   9.610 -0.4556  1.2074  1.7484
    5SAPS  C210  587   1.032   2.046   9.566  0.1464  0.1786 -0.3166
    5SAPS  H10R  588   0.972   2.065   9.475  1.3811  2.1392 -0.7749
    5SAPS  H10S  589   0.993   1.950   9.607 -1.9252  0.8023 -0.7044
    5SAPS  C211  590   1.173   2.008   9.539  0.0161  0.1594  0.4483
    5SAPS  H11R  591   1.249   2.013   9.618 -0.3173 -1.6918  0.9234
    5SAPS  C212  592   1.223   1.970   9.416 -0.3211  0.4307 -0.5181
    5SAPS  H12R  593   1.330   1.944   9.408 -0.2778  0.8612 -1.5033
    5SAPS  C213  594   1.138   1.955   9.295  0.0778 -0.2990  0.2312
    5SAPS  H13R  595   1.109   2.056   9.259  2.3873  1.0049  1.7382
    5SAPS  H13S  596   1.045   1.901   9.322  0.1711 -0.5863 -0.0199
    5SAPS  C214  597   1.201   1.885   9.178  0.5880 -0.6557  1.0048
    5SAPS  H14R  598   1.309   1.867   9.189  0.3511 -1.6846  1.8051
    5SAPS  C215  599   1.142   1.839   9.064 -0.2914 -0.4777 -0.3212
    5SAPS  H15R  600   1.207   1.810   8.981  0.9254 -0.8276  0.7270
    5SAPS  C216  601   0.997   1.860   9.029 -0.6307  0.1035 -0.5746
    5SAPS  H16R  602   0.976   1.969   9.016 -2.7788 -0.4397 -2.0925
    5SAPS  H16S  603   0.930   1.818   9.107 -0.4779  1.4615  0.3361
    5SAPS  C217  604   0.963   1.802   8.891  0.1934  0.1587 -0.6148
    5SAPS  H17R  605   0.970   1.691   8.898  3.1167  0.3228  0.8742
    5SAPS  H17S  606   1.035   1.827   8.811 -0.5193 -1.7267 -1.9062
    5SAPS  C218  607   0.830   1.845   8.837  0.2209 -0.2300  0.8468
    5SAPS  H18R  608   0.832   1.955   8.818 -0.9054  0.0956  2.3775
    5SAPS  H18S  609   0.815   1.792   8.741 -2.5540 -0.2579  1.2015
    5SAPS  C219  610   0.711   1.817   8.929 -0.0569 -0.5969 -0.0583
    5SAPS  H19R  611   0.716   1.884   9.017 -1.0467  1.0758 -1.2223
    5SAPS  H19S  612   0.716   1.712   8.965  0.2024 -0.1347  1.3160
    5SAPS  C220  613   0.580   1.850   8.863  0.0717 -0.3562 -0.1137
    5SAPS  H20R  614   0.547   1.951   8.894 -2.4361 -0.3061 -2.5313
    5SAPS  H20S  615   0.492   1.790   8.896 -0.0604 -0.2433 -0.2643
    5SAPS  H20T  616   0.588   1.857   8.753  0.9231  1.1577  0.0209
    5SAPS   C33  617   1.418   1.902  10.042 -0.4022 -1.1153  0.2758
    5SAPS   H3X  618   1.514   1.956  10.057  0.6940 -3.0084  0.3505
    5SAPS   H3Y  619   1.335   1.976  10.034 -0.8536 -1.4009  1.8780
    5SAPS   C34  620   1.422   1.818   9.918  0.8788 -0.4781  0.0223
    5SAPS   H4X  621   1.320   1.779   9.897  1.6671 -2.7562  0.1812
    5SAPS   H4Y  622   1.485   1.733   9.951  0.1264 -0.4794  1.4906
    5SAPS   C35  623   1.483   1.876   9.789 -0.1014 -0.0545 -0.1562
    5SAPS   H5X  624   1.589   1.899   9.811  0.2588 -1.7858  0.0491
    5SAPS   H5Y  625   1.416   1.960   9.762 -2.5725 -2.0052 -0.4494
    5SAPS   C36  626   1.487   1.781   9.654  0.4833 -1.0129 -0.0368
    5SAPS   H6X  627   1.382   1.769   9.620  0.5058 -0.2888 -0.3799
    5SAPS   H6Y  628   1.533   1.684   9.683  0.6463 -0.9991 -0.2440
    5SAPS   C37  629   1.567   1.843   9.538  0.3776 -0.0893  0.1439
    5SAPS   H7X  630   1.676   1.846   9.558  0.5410  1.3855 -0.8129
    5SAPS   H7Y  631   1.532   1.948   9.533  1.6624  0.3543 -0.0101
    5SAPS   C38  632   1.542   1.762   9.408 -0.1458  0.1960 -0.0643
    5SAPS   H8X  633   1.436   1.759   9.376 -0.3525  1.0301  0.5056
    5SAPS   H8Y  634   1.576   1.659   9.434  0.3379  0.5117  0.5953
    5SAPS   C39  635   1.636   1.815   9.301  0.5219 -0.2047 -0.0426
    5SAPS   H9X  636   1.739   1.786   9.331  0.9652  0.9891 -0.3446
    5SAPS   H9Y  637   1.638   1.926   9.302 -2.2825 -0.0843  1.4546
    5SAPS  C310  638   1.615   1.754   9.160 -0.2356 -0.5485  0.0347
    5SAPS  H10X  639   1.516   1.797   9.134 -0.9775 -0.8019  2.2177
    5SAPS  H10Y  640   1.608   1.644   9.172 -1.3714 -0.6443 -1.3513
    5SAPS  C311  641   1.724   1.790   9.053  0.4316 -0.1969 -0.0689
    5SAPS  H11X  642   1.808   1.722   9.080  1.7210  1.2686 -0.2727
    5SAPS  H11Y  643   1.754   1.896   9.067 -0.6985  0.1538 -0.2582
    5SAPS  C312  644   1.685   1.770   8.907  0.7424  0.2101 -0.0497
    5SAPS  H12X  645   1.582   1.813   8.911  0.2609 -0.9095  0.0055
    5SAPS  H12Y  646   1.689   1.662   8.883  1.0428  0.3261 -0.5205
    5SAPS  C313  647   1.773   1.847   8.809  0.4468  0.6040  0.7487
    5SAPS  H13X  648   1.877   1.818   8.833 -0.2796 -0.9868  2.1295
    5SAPS  H13Y  649   1.766   1.958   8.819 -3.8384  0.4206  1.7416
    5SAPS  C314  650   1.746   1.810   8.661  0.1342 -0.0459 -0.1913
    5SAPS  H14X  651   1.638   1.818   8.635  0.3951 -1.7396 -2.0688
    5SAPS  H14Y  652   1.776   1.705   8.643 -0.4829 -0.0834 -1.0291
    5SAPS  C315  653   1.818   1.901   8.567  0.1970 -0.2379  0.4738
    5SAPS  H15X  654   1.821   1.858   8.464  1.8134 -0.7338  0.6986
    5SAPS  H15Y  655   1.925   1.919   8.593 -0.1240  1.6186  0.6273
    5SAPS  C316  656   1.743   2.034   8.538 -0.2140  0.6362 -0.2182
    5SAPS  H16X  657   1.731   2.090   8.633  1.3854  0.9287 -0.1513
    5SAPS  H16Y  658   1.638   2.011   8.508 -0.2846  0.0112  0.4921
    5SAPS  C317  659   1.798   2.114   8.417  0.0555 -0.5489  0.1114
    5SAPS  H17X  660   1.822   2.047   8.331 -1.5087 -3.0235  1.4740
    5SAPS  H17Y  661   1.890   2.154   8.464  0.2511 -2.2554  1.2765
    5SAPS  C318  662   1.699   2.227   8.375  0.3490  0.2763 -0.4464
    5SAPS  H18X  663   1.746   2.299   8.305  0.0417  1.2757  0.3581
    5SAPS  H18Y  664   1.659   2.288   8.459 -1.0292 -1.8661  0.5451
    5SAPS  H18Z  665   1.621   2.178   8.313 -0.3829 -0.2732  0.8584
    6SAPS     N  666   6.159   0.130  10.614  0.1806 -0.1524 -0.4000
    6SAPS   HN1  667   6.056   0.148  10.611 -0.0021 -1.1660 -0.4818
    6SAPS   HN2  668   6.205   0.194  10.547  0.2379 -0.3160 -0.5157
    6SAPS   HN3  669   6.170   0.030  10.586  0.2234 -0.1422 -0.4206
    6SAPS   C12  670   6.214   0.172  10.751  0.1278  0.0573  0.0493
    6SAPS  H12A  671   6.165   0.106  10.822 -1.3179  1.1528  0.1004
    6SAPS   C13  672   6.363   0.159  10.759 -0.0488  0.4931  0.0509
    6SAPS  O13A  673   6.437   0.116  10.663  0.2435 -0.2931 -0.0565
    6SAPS  O13B  674   6.419   0.193  10.867 -0.3816  0.7056 -0.3756
    6SAPS   C11  675   6.177   0.322  10.774 -0.3086  0.1232 -0.0286
    6SAPS  H11A  676   6.231   0.354  10.865 -0.4975 -0.1103  0.1680
    6SAPS  H11B  677   6.069   0.333  10.800 -0.9164 -1.7769 -1.5199
    6SAPS     P  678   6.200   0.547  10.646  0.3839 -0.2508 -0.0137
    6SAPS   O13  679   6.145   0.606  10.768  0.7294  0.0690  0.4825
    6SAPS   O14  680   6.321   0.609  10.586 -0.1307  0.1691 -0.3236
    6SAPS   O12  681   6.214   0.400  10.660 -0.1983  0.2711  0.3815
    6SAPS   O11  682   6.078   0.554  10.543 -0.3994  0.6254  0.8222
    6SAPS    C1  683   6.075   0.463  10.433  0.1909 -0.1604  0.3949
    6SAPS    HA  684   6.176   0.443  10.391 -0.2207  0.4402 -0.9309
    6SAPS    HB  685   6.042   0.362  10.465  0.0245 -0.5459 -0.9294
    6SAPS    C2  686   5.989   0.499  10.307 -0.5432  0.0888  0.4487
    6SAPS    HS  687   6.019   0.447  10.214  1.7481 -1.1388  1.7902
    6SAPS   O21  688   6.003   0.643  10.291 -0.5118 -0.4268 -0.0002
    6SAPS   C21  689   6.120   0.690  10.248 -0.0609 -0.0948 -0.1442
    6SAPS   O22  690   6.210   0.619  10.198  0.7236 -0.2389  0.4825
    6SAPS   C22  691   6.122   0.835  10.237  0.6675 -0.4145  0.1270
    6SAPS   H2R  692   6.019   0.876  10.242  0.4162 -1.0302  0.0918
    6SAPS   H2S  693   6.188   0.866  10.320  1.8702  0.2619 -1.0385
    6SAPS    C3  694   5.837   0.468  10.331 -1.1404  0.5816 -0.1746
    6SAPS    HX  695   5.794   0.518  10.420 -3.6201 -1.2680 -0.2606
    6SAPS    HY  696   5.822   0.361  10.355 -4.3958  1.3524  1.7982
    6SAPS   O31  697   5.765   0.499  10.207  0.2274  0.6713  0.0461
    6SAPS   C31  698   5.705   0.615  10.212 -0.4113  0.4425 -0.6364
    6SAPS   O32  699   5.716   0.692  10.301  0.5241 -1.0881 -0.3439
    6SAPS   C32  700   5.620   0.638  10.091 -0.0637 -0.1847 -0.1939
    6SAPS   H2X  701   5.538   0.706  10.123 -0.4404 -0.9660  0.5238
    6SAPS   H2Y  702   5.569   0.543  10.067  1.0366 -0.6013 -0.9656
    6SAPS   C23  703   6.186   0.887  10.101  1.1477  0.0376  0.0478
    6SAPS   H3R  704   6.254   0.812  10.056  0.5694 -0.1991 -0.4423
    6SAPS   H3S  705   6.229   0.989  10.116 -1.0929  1.1831 -0.7746
    6SAPS   C24  706   6.072   0.924  10.007  0.4854  0.0178 -0.4705
    6SAPS   H4R  707   6.026   1.017  10.047 -1.2549 -1.2104  0.5189
    6SAPS   H4S  708   5.990   0.850  10.020 -0.7902  1.2174 -1.2910
    6SAPS   C25  709   6.121   0.942   9.864 -0.5541  0.1014 -0.1590
    6SAPS   H5R  710   6.176   1.036   9.846 -0.5238  0.4155  1.3842
    6SAPS   C26  711   6.090   0.868   9.754  0.6223 -0.3551 -0.9123
    6SAPS   H6R  712   6.122   0.906   9.656 -0.5503  1.7646 -0.5243
    6SAPS   C27  713   5.994   0.752   9.759 -0.6421  0.1432  0.6040
    6SAPS   H7R  714   5.890   0.782   9.731 -1.5575 -3.5288 -0.5660
    6SAPS   H7S  715   5.982   0.727   9.867 -0.9118 -1.1197  0.3023
    6SAPS   C28  716   6.040   0.629   9.685  0.1328  0.0830  0.7448
    6SAPS   H8R  717   6.076   0.545   9.746  0.5916 -0.4829 -0.2837
    6SAPS   C29  718   6.055   0.618   9.544 -0.1699  0.5310  0.5612
    6SAPS   H9R  719   6.067   0.520   9.494  0.6372  0.1665  1.4347
    6SAPS  C210  720   5.997   0.719   9.444 -0.2880  0.8496  0.5081
    6SAPS  H10R  721   6.027   0.824   9.467 -0.5065  1.2022 -0.7792
    6SAPS  H10S  722   5.887   0.719   9.454 -0.4478 -3.5300  0.5188
    6SAPS  C211  723   6.042   0.710   9.298  0.0520 -0.5898  0.6183
    6SAPS  H11R  724   6.133   0.651   9.281  0.7435  1.1557 -2.5680
    6SAPS  C212  725   5.980   0.775   9.198  0.0576  0.5442  0.1131
    6SAPS  H12R  726   6.017   0.755   9.097  0.8733 -0.1180  0.5334
    6SAPS  C213  727   5.859   0.857   9.208 -0.2297  0.1549  0.3423
    6SAPS  H13R  728   5.889   0.960   9.235 -1.0048  0.8332 -1.2555
    6SAPS  H13S  729   5.789   0.820   9.286  1.0002  0.2792  1.5218
    6SAPS  C214  730   5.783   0.863   9.079 -0.1414 -0.2403  0.3695
    6SAPS  H14R  731   5.776   0.768   9.024  0.9447 -0.3547  0.4109
    6SAPS  C215  732   5.720   0.980   9.036  0.5621 -0.1839  0.8501
    6SAPS  H15R  733   5.671   0.972   8.937  1.6411 -0.6572  0.3346
    6SAPS  C216  734   5.708   1.114   9.104 -0.9613 -0.4826 -0.7876
    6SAPS  H16R  735   5.733   1.103   9.212  1.5557 -2.2001 -1.4435
    6SAPS  H16S  736   5.605   1.152   9.090 -0.4522  0.3822 -2.5634
    6SAPS  C217  737   5.791   1.231   9.044 -0.6708 -0.1514 -0.2241
    6SAPS  H17R  738   5.898   1.202   9.051 -1.0234 -1.1264  2.4137
    6SAPS  H17S  739   5.770   1.316   9.112 -2.7520 -0.6024 -0.2208
    6SAPS  C218  740   5.768   1.281   8.905  0.8251 -0.2423  0.6915
    6SAPS  H18R  741   5.659   1.301   8.900  0.5726 -1.6926  0.0679
    6SAPS  H18S  742   5.780   1.193   8.838  0.2506 -0.7413  1.2362
    6SAPS  C219  743   5.849   1.407   8.882 -0.2728  0.5766  0.3806
    6SAPS  H19R  744   5.959   1.390   8.878 -0.0748  1.4429  1.4396
    6SAPS  H19S  745   5.837   1.474   8.970 -2.8291 -1.8982  2.0861
    6SAPS  C220  746   5.808   1.485   8.756 -1.0365  0.0534  0.5319
    6SAPS  H20R  747   5.698   1.504   8.756 -0.7353  2.2125 -1.5712
    6SAPS  H20S  748   5.825   1.424   8.665 -1.6502  0.1366  0.3591
    6SAPS  H20T  749   5.864   1.579   8.734  0.6880 -1.3217 -1.3017
    6SAPS   C33  750   5.706   0.690   9.976  0.3751 -0.1463  0.1395
    6SAPS   H3X  751   5.802   0.634   9.973  1.5874  1.7737  1.1174
    6SAPS   H3Y  752   5.741   0.793   9.998 -0.1558 -0.2598  1.6505
    6SAPS   C34  753   5.638   0.682   9.837  0.0019 -0.4330  0.4287
    6SAPS   H4X  754   5.697   0.733   9.757  1.2751  0.3085  1.7763
    6SAPS   H4Y  755   5.540   0.729   9.857  0.5322  1.3243 -0.8987
    6SAPS   C35  756   5.606   0.537   9.791  0.3261 -0.2510  0.3678
    6SAPS   H5X  757   5.544   0.484   9.867 -0.2550  2.1529  1.6529
    6SAPS   H5Y  758   5.704   0.490   9.766  1.6709  2.3808  0.3571
    6SAPS   C36  759   5.526   0.535   9.661 -0.4562 -0.1958  0.2512
    6SAPS   H6X  760   5.427   0.579   9.685  0.5406  0.7327  3.0159
    6SAPS   H6Y  761   5.508   0.428   9.638  0.4351 -0.6798  1.6777
    6SAPS   C37  762   5.599   0.595   9.542  0.8429 -0.1296 -0.5930
    6SAPS   H7X  763   5.701   0.553   9.536  1.6289  1.6452 -0.0669
    6SAPS   H7Y  764   5.601   0.705   9.553 -0.7275 -0.1568  0.2621
    6SAPS   C38  765   5.522   0.556   9.413 -0.3629 -0.2460  0.1579
    6SAPS   H8X  766   5.421   0.601   9.410  0.6211  2.0834 -0.8979
    6SAPS   H8Y  767   5.513   0.445   9.410  0.0288 -0.3098  1.0266
    6SAPS   C39  768   5.596   0.588   9.284  0.2827  0.0480  0.5096
    6SAPS   H9X  769   5.704   0.562   9.295  0.7330  0.2542 -2.5365
    6SAPS   H9Y  770   5.590   0.695   9.257  0.0918 -0.0015  0.3549
    6SAPS  C310  771   5.548   0.503   9.169  0.0623  1.0405  0.0112
    6SAPS  H10X  772   5.442   0.525   9.144  0.0216  0.5894 -0.2179
    6SAPS  H10Y  773   5.549   0.395   9.195 -0.2984  0.8436 -0.7737
    6SAPS  C311  774   5.625   0.535   9.045 -0.2663 -0.4492 -0.0581
    6SAPS  H11X  775   5.731   0.543   9.074 -1.0830  1.4613  2.7837
    6SAPS  H11Y  776   5.593   0.632   9.001 -0.9171 -0.0444  1.2710
    6SAPS  C312  777   5.621   0.427   8.935  0.2607  0.0961  0.1196
    6SAPS  H12X  778   5.516   0.402   8.912  0.7856 -2.1188 -0.0993
    6SAPS  H12Y  779   5.658   0.340   8.993 -2.0557 -0.1078  1.4068
    6SAPS  C313  780   5.696   0.470   8.813 -0.3991  0.6141 -0.4374
    6SAPS  H13X  781   5.643   0.556   8.769 -1.3577 -0.0227 -0.5587
    6SAPS  H13Y  782   5.680   0.383   8.745 -0.3018  0.2817 -0.0448
    6SAPS  C314  783   5.850   0.494   8.827  0.4398  0.2685  0.6620
    6SAPS  H14X  784   5.862   0.593   8.876  2.1758  0.1786  0.4953
    6SAPS  H14Y  785   5.901   0.498   8.728  0.5332 -2.6821  0.4934
    6SAPS  C315  786   5.924   0.380   8.905 -0.1186  0.1636 -0.1281
    6SAPS  H15X  787   5.901   0.291   8.841  2.5904 -0.9897  0.3779
    6SAPS  H15Y  788   5.875   0.360   9.002 -0.0067  0.2836 -0.0479
    6SAPS  C316  789   6.077   0.401   8.901  0.3737  0.6253 -0.0390
    6SAPS  H16X  790   6.113   0.404   8.796 -0.2613 -0.6811 -0.3088
    6SAPS  H16Y  791   6.116   0.308   8.948  0.5235  1.4669  1.5536
    6SAPS  C317  792   6.127   0.530   8.976  0.3175  0.1288  0.1321
    6SAPS  H17X  793   6.092   0.523   9.081  0.2351 -2.6072  0.0047
    6SAPS  H17Y  794   6.070   0.616   8.935 -0.6387  0.1542  1.4630
    6SAPS  C318  795   6.280   0.555   8.966  0.4795  0.8493  0.1280
    6SAPS  H18X  796   6.318   0.598   8.871  0.6106  0.1999 -0.1188
    6SAPS  H18Y  797   6.327   0.457   8.987  1.2612  1.1346 -0.2602
    6SAPS  H18Z  798   6.315   0.618   9.051 -0.1750 -0.2048  1.2262
    7SAPS     N  799   2.819   3.877  10.923 -0.6092 -0.4725  0.0925
    7SAPS   HN1  800   2.721   3.860  10.952 -0.8471 -0.9643 -0.9565
    7SAPS   HN2  801   2.829   3.849  10.824  0.4531 -1.8694  0.5632
    7SAPS   HN3  802   2.885   3.832  10.990  0.8350 -1.5153 -1.9242
    7SAPS   C12  803   2.850   4.017  10.931  0.6454 -0.2791  0.8454
    7SAPS  H12A  804   2.774   4.075  10.981  1.0108 -0.1098  1.2141
    7SAPS   C13  805   2.977   4.065  10.996 -0.8114  0.7096 -0.0809
    7SAPS  O13A  806   2.987   4.187  11.018 -0.2078 -0.2571  0.0442
    7SAPS  O13B  807   3.050   3.977  11.057  0.4130 -0.2492 -0.1907
    7SAPS   C11  808   2.863   4.076  10.780  0.1976  0.3064  0.3304
    7SAPS  H11A  809   2.955   4.038  10.729 -0.4740  0.7749 -1.3114
    7SAPS  H11B  810   2.886   4.183  10.802  2.7268 -0.5874  2.6360
    7SAPS     P  811   2.756   4.130  10.554  0.2955  0.0236 -0.1115
    7SAPS   O13  812   2.647   4.223  10.533  0.0830  0.6889 -0.7083
    7SAPS   O14  813   2.893   4.184  10.536 -0.4305  1.1583  0.3432
    7SAPS   O12  814   2.748   4.050  10.695  0.3376  0.1752 -0.5510
    7SAPS   O11  815   2.740   4.013  10.454 -0.3784 -0.6324 -0.5595
    7SAPS    C1  816   2.725   3.874  10.473 -0.2100 -0.3591 -0.3646
    7SAPS    HA  817   2.828   3.832  10.464  0.6644  1.7498 -0.8849
    7SAPS    HB  818   2.693   3.854  10.577  2.0329 -0.5942  0.3286
    7SAPS    C2  819   2.630   3.803  10.373  0.5667  0.0171 -0.1006
    7SAPS    HS  820   2.681   3.793  10.275  0.2055  0.3116 -0.3189
    7SAPS   O21  821   2.505   3.869  10.379  0.7717  0.0484 -0.2152
    7SAPS   C21  822   2.480   3.948  10.273  0.1851  0.3018  0.9808
    7SAPS   O22  823   2.561   3.973  10.182  0.0335  0.1594 -0.4349
    7SAPS   C22  824   2.342   3.994  10.293 -0.0569 -0.3580  0.9391
    7SAPS   H2R  825   2.280   3.910  10.254  1.5922 -0.3633 -1.9363
    7SAPS   H2S  826   2.321   4.014  10.400 -0.8292 -2.0218  1.1395
    7SAPS    C3  827   2.616   3.661  10.426  0.2750 -0.1069 -0.0046
    7SAPS    HX  828   2.578   3.654  10.530  1.4512  1.0419  0.5279
    7SAPS    HY  829   2.720   3.624  10.434  0.2651  0.1298  1.4786
    7SAPS   O31  830   2.538   3.580  10.327  0.8869  0.0704 -0.9478
    7SAPS   C31  831   2.403   3.576  10.350  0.1927  0.5365  0.3451
    7SAPS   O32  832   2.341   3.645  10.429  0.4137 -0.4065 -0.1321
    7SAPS   C32  833   2.341   3.462  10.267 -0.4097  0.1459  0.5466
    7SAPS   H2X  834   2.255   3.424  10.327 -2.2322  0.0609 -1.9571
    7SAPS   H2Y  835   2.422   3.388  10.250  2.0309  2.7628 -0.0321
    7SAPS   C23  836   2.305   4.128  10.215 -0.4192  0.2459 -0.4676
    7SAPS   H3R  837   2.386   4.146  10.141 -0.2589 -1.5444 -0.7771
    7SAPS   H3S  838   2.302   4.210  10.289  1.4155 -2.1754  2.5455
    7SAPS   C24  839   2.169   4.119  10.139 -0.3959  0.5093 -0.5218
    7SAPS   H4R  840   2.121   4.218  10.126 -2.8469 -0.6047 -0.4106
    7SAPS   H4S  841   2.089   4.075  10.201  0.1564  1.7329  1.1320
    7SAPS   C25  842   2.177   4.050  10.005 -0.8700 -0.3586  0.4192
    7SAPS   H5R  843   2.261   4.076   9.939  0.1199 -3.2747  0.4162
    7SAPS   C26  844   2.094   3.954   9.976 -0.5402  0.2041  0.3400
    7SAPS   H6R  845   2.107   3.914   9.874  0.9225  1.3946  0.0149
    7SAPS   C27  846   1.977   3.901  10.054 -0.0317  0.7315 -0.6134
    7SAPS   H7R  847   1.901   3.862   9.983 -0.8100  0.7709  0.1730
    7SAPS   H7S  848   1.929   3.989  10.103  0.6529  0.1399  1.2089
    7SAPS   C28  849   2.000   3.801  10.159 -0.3763 -0.4154 -0.2472
    7SAPS   H8R  850   2.063   3.830  10.243  0.3396 -0.7292 -0.6685
    7SAPS   C29  851   1.953   3.674  10.171 -0.3943 -0.2230 -0.3504
    7SAPS   H9R  852   1.986   3.612  10.256 -3.4248 -1.1754  0.2891
    7SAPS  C210  853   1.867   3.595  10.076 -0.2583 -0.3923 -0.6290
    7SAPS  H10R  854   1.917   3.500  10.047  2.0953  0.4307  0.4906
    7SAPS  H10S  855   1.859   3.647   9.978  2.5753 -1.0009 -1.2822
    7SAPS  C211  856   1.740   3.571  10.145 -0.0435  0.4456  0.0438
    7SAPS  H11R  857   1.726   3.631  10.236 -2.4350 -2.4816  1.8338
    7SAPS  C212  858   1.642   3.476  10.122 -0.9967  0.1002  0.0159
    7SAPS  H12R  859   1.551   3.487  10.184 -2.1300  0.8984 -1.7189
    7SAPS  C213  860   1.663   3.372  10.007  0.3886 -0.2766  0.1718
    7SAPS  H13R  861   1.627   3.271  10.037  0.0817  0.5580  2.8439
    7SAPS  H13S  862   1.767   3.369   9.969  0.0429  0.1211 -0.8267
    7SAPS  C214  863   1.570   3.418   9.888 -0.3849  0.0403  0.4923
    7SAPS  H14R  864   1.514   3.511   9.906 -1.7784 -1.0602  2.1145
    7SAPS  C215  865   1.555   3.346   9.776 -0.3699  0.2019 -0.2510
    7SAPS  H15R  866   1.494   3.387   9.694 -1.0506 -0.0302  0.1303
    7SAPS  C216  867   1.621   3.211   9.744  0.6559 -0.3850  0.4226
    7SAPS  H16R  868   1.544   3.131   9.756 -0.9518  0.9593 -0.5560
    7SAPS  H16S  869   1.704   3.186   9.813  0.6136 -0.4806  0.4401
    7SAPS  C217  870   1.690   3.200   9.602 -0.1057 -0.1964 -0.7400
    7SAPS  H17R  871   1.743   3.102   9.605 -0.7781 -0.5520  1.4788
    7SAPS  H17S  872   1.765   3.282   9.591  1.5029 -1.3659  0.8959
    7SAPS  C218  873   1.597   3.197   9.476 -0.0290 -0.5652 -1.3019
    7SAPS  H18R  874   1.587   3.294   9.423 -1.0830 -0.1191 -0.3256
    7SAPS  H18S  875   1.497   3.164   9.511 -0.2365  0.5347 -0.8235
    7SAPS  C219  876   1.663   3.112   9.380 -0.2278 -0.7487  0.4466
    7SAPS  H19R  877   1.658   3.009   9.422 -2.2439 -0.7185  0.3688
    7SAPS  H19S  878   1.771   3.136   9.370 -0.0883 -1.2892  0.6135
    7SAPS  C220  879   1.581   3.108   9.246 -0.2928 -0.0219 -0.4178
    7SAPS  H20R  880   1.471   3.114   9.262 -0.7172 -1.9816 -2.2062
    7SAPS  H20S  881   1.609   3.021   9.183  2.3656  0.2476  0.2590
    7SAPS  H20T  882   1.619   3.198   9.194  1.4562 -0.2035  0.4806
    7SAPS   C33  883   2.290   3.514  10.133  0.8851 -0.1360 -0.3144
    7SAPS   H3X  884   2.205   3.585  10.134  0.1843 -0.9423 -0.7757
    7SAPS   H3Y  885   2.238   3.426  10.090 -1.3879  0.5449  0.8964
    7SAPS   C34  886   2.406   3.564  10.036 -0.1511  0.3751  0.2390
    7SAPS   H4X  887   2.478   3.492   9.992  0.9492  1.0569  0.8827
    7SAPS   H4Y  888   2.467   3.639  10.092  0.7740 -0.6420  0.6268
    7SAPS   C35  889   2.340   3.640   9.918  0.2838 -0.1711 -0.2447
    7SAPS   H5X  890   2.263   3.715   9.948  0.4603  0.0349 -0.3053
    7SAPS   H5Y  891   2.283   3.553   9.878  1.1928 -0.1479 -1.6536
    7SAPS   C36  892   2.437   3.685   9.805 -0.0923  0.9763 -0.7345
    7SAPS   H6X  893   2.486   3.590   9.774  0.6038  0.2696  2.2125
    7SAPS   H6Y  894   2.515   3.744   9.858  1.1569  0.0624 -1.4877
    7SAPS   C37  895   2.368   3.767   9.699  0.5425  0.1146 -0.6361
    7SAPS   H7X  896   2.289   3.837   9.732  0.3941 -0.3294 -0.0268
    7SAPS   H7Y  897   2.304   3.691   9.648 -1.0065  0.4623  0.7172
    7SAPS   C38  898   2.470   3.826   9.602 -0.1755  0.9411  0.9521
    7SAPS   H8X  899   2.551   3.750   9.604 -0.7602  0.2831  0.0015
    7SAPS   H8Y  900   2.516   3.919   9.643  0.2759  0.9625  0.4084
    7SAPS   C39  901   2.424   3.842   9.455 -0.9075 -0.2715  0.7338
    7SAPS   H9X  902   2.410   3.745   9.403  0.7938  0.9026 -2.1920
    7SAPS   H9Y  903   2.512   3.880   9.399  0.0262 -2.7070  0.4241
    7SAPS  C310  904   2.300   3.933   9.424 -0.3134  0.7216 -0.3951
    7SAPS  H10X  905   2.332   4.033   9.460 -2.3860  0.3264  2.8925
    7SAPS  H10Y  906   2.212   3.906   9.486 -0.9709 -0.4197 -1.7432
    7SAPS  C311  907   2.261   3.919   9.274  0.4353 -0.3642 -0.2973
    7SAPS  H11X  908   2.247   3.813   9.244  1.3336 -0.2438 -1.2076
    7SAPS  H11Y  909   2.341   3.956   9.205  0.6032 -0.2872 -0.0636
    7SAPS  C312  910   2.141   4.006   9.233 -0.4884  0.3657  0.3454
    7SAPS  H12X  911   2.130   4.100   9.291  0.4826  0.8407 -0.2093
    7SAPS  H12Y  912   2.057   3.941   9.265  0.5305 -0.8207  0.6784
    7SAPS  C313  913   2.142   4.039   9.081  0.3881 -0.0769  0.1656
    7SAPS  H13X  914   2.215   4.119   9.056  1.0512 -1.1319 -1.3642
    7SAPS  H13Y  915   2.041   4.078   9.057  0.9317  1.3955  0.1732
    7SAPS  C314  916   2.152   3.918   8.999  0.5649  0.0290  0.0525
    7SAPS  H14X  917   2.083   3.851   9.054  0.7399  1.8253  2.6163
    7SAPS  H14Y  918   2.255   3.878   9.010  1.8184  2.8308 -0.7328
    7SAPS  C315  919   2.119   3.925   8.849  0.4996  0.5786  0.3556
    7SAPS  H15X  920   2.177   3.999   8.789  2.4955 -0.4465  0.9095
    7SAPS  H15Y  921   2.014   3.959   8.842  0.6325  0.7385 -1.7085
    7SAPS  C316  922   2.111   3.794   8.761 -0.5685 -0.0619  0.5647
    7SAPS  H16X  923   2.024   3.793   8.692 -0.0691 -2.9633 -0.1688
    7SAPS  H16Y  924   2.103   3.696   8.813 -0.6922 -1.4392 -1.8932
    7SAPS  C317  925   2.232   3.775   8.667 -0.4686  0.6992 -0.4934
    7SAPS  H17X  926   2.218   3.671   8.629 -0.8890  1.0066 -1.1991
    7SAPS  H17Y  927   2.329   3.784   8.721  0.9078 -0.2342 -2.6554
    7SAPS  C318  928   2.247   3.866   8.546 -0.0185 -0.3920 -0.1662
    7SAPS  H18X  929   2.340   3.847   8.487  0.7979 -2.1951  1.5935
    7SAPS  H18Y  930   2.253   3.975   8.563 -0.3907 -0.2939 -0.6392
    7SAPS  H18Z  931   2.153   3.851   8.489 -1.6955  0.3777  2.2521
    8SAPS     N  932   6.685   4.797  11.365 -0.9696 -0.1273 -0.0835
    8SAPS   HN1  933   6.693   4.872  11.437 -0.0705 -1.4011  1.2007
    8SAPS   HN2  934   6.587   4.790  11.331 -0.8988  1.8137 -0.8218
    8SAPS   HN3  935   6.727   4.718  11.417  3.4029  1.8395 -0.1976
    8SAPS   C12  936   6.776   4.836  11.250 -0.3736  0.0287 -0.4065
    8SAPS  H12A  937   6.764   4.943  11.243 -2.3348  0.0807  2.5078
    8SAPS   C13  938   6.926   4.807  11.262  0.3376 -0.0773  1.0673
    8SAPS  O13A  939   6.962   4.754  11.368  0.4447 -0.3186 -0.0255
    8SAPS  O13B  940   7.002   4.827  11.165 -0.2406 -0.3827  0.3018
    8SAPS   C11  941   6.728   4.768  11.111 -0.3473 -0.4952  0.1494
    8SAPS  H11A  942   6.769   4.664  11.111 -0.9431 -0.7333 -0.3255
    8SAPS  H11B  943   6.787   4.816  11.030  2.5204  1.4025  3.0831
    8SAPS     P  944   6.513   4.878  11.015 -0.5640  0.0076  0.1157
    8SAPS   O13  945   6.376   4.834  10.990  0.1159  0.1595  0.2778
    8SAPS   O14  946   6.526   5.007  11.087 -0.1879  0.2931  0.2903
    8SAPS   O12  947   6.589   4.762  11.094  0.5660  0.8480  0.0976
    8SAPS   O11  948   6.592   4.890  10.878  0.7523  0.2257 -0.7793
    8SAPS    C1  949   6.589   4.775  10.780 -0.1277 -0.9853  0.4429
    8SAPS    HA  950   6.673   4.707  10.807  1.0996  0.4020  0.2267
    8SAPS    HB  951   6.489   4.726  10.786 -1.7464  2.1383  1.1768
    8SAPS    C2  952   6.581   4.826  10.629  0.4838 -0.3303  0.1694
    8SAPS    HS  953   6.587   4.742  10.558 -0.0284  0.2011 -0.5108
    8SAPS   O21  954   6.687   4.923  10.616 -0.5894  0.0595  0.0823
    8SAPS   C21  955   6.806   4.866  10.609 -0.1537 -0.0883  0.4534
    8SAPS   O22  956   6.828   4.750  10.620  0.2820  0.3663  0.1462
    8SAPS   C22  957   6.905   4.974  10.574  0.2712 -0.2597 -0.6886
    8SAPS   H2R  958   6.898   5.055  10.649 -0.1127 -0.9502  0.0360
    8SAPS   H2S  959   7.004   4.929  10.597  0.5830  0.7351 -0.0310
    8SAPS    C3  960   6.447   4.901  10.597  0.2415 -0.0506  0.3852
    8SAPS    HX  961   6.452   4.996  10.654 -1.8218  0.7637 -0.6901
    8SAPS    HY  962   6.355   4.857  10.642 -0.6714  1.5889  0.1688
    8SAPS   O31  963   6.434   4.929  10.454  0.6936  0.6427  0.6148
    8SAPS   C31  964   6.379   4.821  10.383 -0.0376  1.0639  0.3414
    8SAPS   O32  965   6.348   4.718  10.437 -0.4831 -0.1083 -0.2475
    8SAPS   C32  966   6.400   4.851  10.233 -0.0628 -0.3032 -0.3924
    8SAPS   H2X  967   6.507   4.833  10.210  0.9693  0.6486  3.0312
    8SAPS   H2Y  968   6.359   4.955  10.228  0.0083 -0.1123  1.8705
    8SAPS   C23  969   6.894   5.034  10.429 -0.4352 -0.5500  0.5913
    8SAPS   H3R  970   6.937   5.136  10.436 -2.4095  0.5446 -1.8332
    8SAPS   H3S  971   6.795   5.054  10.382 -1.0310 -0.5572  1.8078
    8SAPS   C24  972   6.983   4.946  10.329 -0.2234  0.2488  0.1938
    8SAPS   H4R  973   6.931   4.848  10.334  2.3608 -1.2212  0.2769
    8SAPS   H4S  974   7.087   4.934  10.367  0.2925  0.8022 -0.9842
    8SAPS   C25  975   6.992   5.008  10.197  0.0048  0.0555  0.4398
    8SAPS   H5R  976   7.056   5.097  10.186  0.0040 -0.1672 -2.1181
    8SAPS   C26  977   6.943   4.960  10.081 -0.3872 -0.5282 -0.5942
    8SAPS   H6R  978   6.947   5.030   9.996 -2.3710  1.9408  1.1949
    8SAPS   C27  979   6.850   4.841  10.055 -0.3627 -0.3692 -0.4023
    8SAPS   H7R  980   6.789   4.819  10.145 -0.8659  0.4866 -0.5257
    8SAPS   H7S  981   6.908   4.750  10.028  1.1790  0.0221  1.3629
    8SAPS   C28  982   6.767   4.877   9.940  0.4358  0.0376 -0.5496
    8SAPS   H8R  983   6.667   4.906   9.975  1.2105 -2.3301  4.5331
    8SAPS   C29  984   6.793   4.862   9.805  0.4812 -0.5648 -0.5716
    8SAPS   H9R  985   6.722   4.901   9.730  0.9731 -0.6002 -1.0617
    8SAPS  C210  986   6.924   4.812   9.742  0.4489  0.6083 -0.4097
    8SAPS  H10R  987   6.908   4.703   9.724 -2.5878  1.1127 -1.4799
    8SAPS  H10S  988   7.013   4.833   9.804 -0.7144  0.6355  1.3215
    8SAPS  C211  989   6.959   4.871   9.608  0.5051 -0.5867  0.0185
    8SAPS  H11R  990   7.032   4.954   9.614  1.6507 -1.5385 -0.2993
    8SAPS  C212  991   6.932   4.825   9.480  0.1789 -0.0272  0.1780
    8SAPS  H12R  992   6.972   4.883   9.396 -0.8933 -1.0187 -1.0501
    8SAPS  C213  993   6.847   4.700   9.445 -0.3618  0.0622 -0.4146
    8SAPS  H13R  994   6.769   4.708   9.367  0.9321  1.8976 -1.6016
    8SAPS  H13S  995   6.782   4.676   9.532  1.6946 -2.4478  0.5992
    8SAPS  C214  996   6.938   4.579   9.429  0.2092 -0.1184 -1.0434
    8SAPS  H14R  997   7.002   4.561   9.517  1.5533  1.9896 -1.5182
    8SAPS  C215  998   6.957   4.509   9.318  0.2478  0.0632  0.4259
    8SAPS  H15R  999   7.031   4.427   9.311  0.0097 -0.0329 -1.2666
    8SAPS  C216 1000   6.902   4.543   9.184  0.4757  0.1706  0.5392
    8SAPS  H16R 1001   6.918   4.651   9.161 -1.9264  0.7418  1.2542
    8SAPS  H16S 1002   6.791   4.535   9.188  0.3194  1.4141 -0.5887
    8SAPS  C217 1003   6.972   4.463   9.070  0.7723 -0.3457 -0.0398
    8SAPS  H17R 1004   6.950   4.359   9.100  0.9842  0.1842  2.1178
    8SAPS  H17S 1005   7.082   4.467   9.053  0.3256  0.4476 -3.8748
    8SAPS  C218 1006   6.900   4.504   8.932 -0.0203 -0.3967 -0.0372
    8SAPS  H18R 1007   6.949   4.598   8.896  1.9773 -1.1584  0.5400
    8SAPS  H18S 1008   6.790   4.520   8.934 -0.2448 -1.5226 -1.6913
    8SAPS  C219 1009   6.932   4.405   8.819 -0.3464  0.2865  1.2312
    8SAPS  H19R 1010   6.854   4.421   8.741  1.3633 -1.5268 -1.0053
    8SAPS  H19S 1011   6.914   4.307   8.868 -1.9191  1.4628  3.1690
    8SAPS  C220 1012   7.072   4.406   8.754 -0.1495  0.0232  0.0414
    8SAPS  H20R 1013   7.157   4.387   8.823 -0.1277  3.7525  1.2106
    8SAPS  H20S 1014   7.085   4.514   8.732  0.1356  0.7735  3.4308
    8SAPS  H20T 1015   7.080   4.341   8.664  1.7653  0.2680 -0.0081
    8SAPS   C33 1016   6.323   4.758  10.142  0.7059  0.3879  0.1265
    8SAPS   H3X 1017   6.215   4.753  10.169  0.3976 -2.3966 -1.2373
    8SAPS   H3Y 1018   6.363   4.655  10.150 -0.2564 -0.1506 -1.5245
    8SAPS   C34 1019   6.339   4.804   9.992  0.4484  0.4855 -0.1538
    8SAPS   H4X 1020   6.450   4.807   9.985  0.4886 -0.4595 -0.0402
    8SAPS   H4Y 1021   6.293   4.905   9.989 -0.5060  0.2024  2.4522
    8SAPS   C35 1022   6.277   4.717   9.875 -0.2373 -0.0616  0.0734
    8SAPS   H5X 1023   6.169   4.710   9.898 -1.0700  1.3814 -2.8342
    8SAPS   H5Y 1024   6.315   4.614   9.890  0.4141  0.4822  2.4977
    8SAPS   C36 1025   6.308   4.786   9.737  0.2395 -0.4076  0.1804
    8SAPS   H6X 1026   6.419   4.787   9.732  0.3766  0.0765  2.2782
    8SAPS   H6Y 1027   6.261   4.886   9.742  0.3979 -0.3072 -0.3377
    8SAPS   C37 1028   6.250   4.709   9.621 -0.2426 -0.0203  0.0193
    8SAPS   H7X 1029   6.139   4.713   9.615 -0.3390 -1.3467  0.6593
    8SAPS   H7Y 1030   6.280   4.603   9.616  0.3550  0.1885 -2.6965
    8SAPS   C38 1031   6.318   4.769   9.487  0.4420  0.0535  0.4175
    8SAPS   H8X 1032   6.425   4.737   9.487 -0.5555 -3.8147  1.6831
    8SAPS   H8Y 1033   6.315   4.880   9.487  0.8136  0.0934  2.0563
    8SAPS   C39 1034   6.243   4.710   9.371  0.0459 -0.0037 -0.5357
    8SAPS   H9X 1035   6.140   4.749   9.371  0.8515  2.3044 -1.8180
    8SAPS   H9Y 1036   6.235   4.599   9.360 -0.6698  0.0971 -1.1039
    8SAPS  C310 1037   6.308   4.756   9.240 -0.4248 -0.1891 -0.8169
    8SAPS  H10X 1038   6.332   4.863   9.258  0.2374 -0.5246  0.3964
    8SAPS  H10Y 1039   6.238   4.764   9.154 -1.5471  3.3716  0.2544
    8SAPS  C311 1040   6.425   4.663   9.193 -0.7048 -0.2376  0.0764
    8SAPS  H11X 1041   6.382   4.577   9.138  0.7348 -1.1501  0.3192
    8SAPS  H11Y 1042   6.474   4.613   9.280 -1.3409  0.6778  0.9810
    8SAPS  C312 1043   6.522   4.724   9.094 -0.0752  0.3695  0.4153
    8SAPS  H12X 1044   6.465   4.747   9.001  1.9553  3.0021 -0.3273
    8SAPS  H12Y 1045   6.595   4.643   9.076  2.2173  2.0916  1.3877
    8SAPS  C313 1046   6.595   4.847   9.138  0.2120  0.0901  0.1151
    8SAPS  H13X 1047   6.650   4.833   9.234 -1.3064 -1.4862  0.7982
    8SAPS  H13Y 1048   6.527   4.933   9.157  0.4149  0.0162  1.3012
    8SAPS  C314 1049   6.696   4.889   9.028 -0.3343  0.1372  1.0332
    8SAPS  H14X 1050   6.641   4.875   8.932 -0.2480  1.7766  0.7166
    8SAPS  H14Y 1051   6.780   4.816   9.027 -0.2819  0.1988  0.9478
    8SAPS  C315 1052   6.746   5.034   9.049  0.4575 -0.0375 -0.2415
    8SAPS  H15X 1053   6.780   5.048   9.153  0.3798 -0.0648 -0.2131
    8SAPS  H15Y 1054   6.661   5.102   9.025  0.6026 -0.5479 -2.3985
    8SAPS  C316 1055   6.850   5.072   8.944 -0.6356  0.3386 -0.2311
    8SAPS  H16X 1056   6.858   5.182   8.959 -0.9133  0.1105  1.8968
    8SAPS  H16Y 1057   6.806   5.058   8.843 -2.3905  2.2417  0.2023
    8SAPS  C317 1058   6.987   5.015   8.946 -0.5387 -0.6270  0.7658
    8SAPS  H17X 1059   6.985   4.904   8.936  0.8092 -0.5747 -0.4206
    8SAPS  H17Y 1060   7.018   5.047   9.048 -3.2792  2.3315  0.8050
    8SAPS  C318 1061   7.073   5.075   8.839  0.0299  0.1305  0.1837
    8SAPS  H18X 1062   7.086   5.184   8.855 -1.0375  0.0770  1.6831
    8SAPS  H18Y 1063   7.035   5.061   8.736  1.2786 -0.4381 -0.2194
    8SAPS  H18Z 1064   7.175   5.030   8.841  0.0400  0.1758  1.0099
    9SAPS     N 1065   1.930   0.265   6.429 -0.0504 -0.1820  0.2883
    9SAPS   HN1 1066   1.896   0.235   6.522  0.3788 -1.2601  0.1202
    9SAPS   HN2 1067   1.998   0.193   6.396  0.5938  0.9202 -0.9068
    9SAPS   HN3 1068   1.979   0.356   6.435  1.4004 -0.8785 -0.4497
    9SAPS   C12 1069   1.808   0.271   6.335  0.3561  0.6375 -0.6215
    9SAPS  H12A 1070   1.848   0.332   6.255 -0.3682  1.0554 -0.6756
    9SAPS   C13 1071   1.770   0.133   6.283 -0.2826 -0.0093 -0.3219
    9SAPS  O13A 1072   1.844   0.032   6.303  0.3597 -0.4387  0.0873
    9SAPS  O13B 1073   1.665   0.127   6.218  0.2076  0.0242  0.2493
    9SAPS   C11 1074   1.681   0.329   6.414  0.1688 -0.8064  0.3943
    9SAPS  H11A 1075   1.636   0.251   6.479 -1.4738 -0.3249 -0.0928
    9SAPS  H11B 1076   1.603   0.348   6.337  0.4642  1.6962  0.6333
    9SAPS     P 1077   1.611   0.547   6.543  0.0212  0.0499  0.2646
    9SAPS   O13 1078   1.648   0.680   6.482  0.2837 -0.2093  0.0415
    9SAPS   O14 1079   1.472   0.488   6.526 -0.5562  0.0380  0.3769
    9SAPS   O12 1080   1.714   0.445   6.487  0.1168  0.0572  0.1109
    9SAPS   O11 1081   1.637   0.551   6.700 -0.0499  0.3439  0.6514
    9SAPS    C1 1082   1.771   0.565   6.746  0.0915  0.2460  0.2456
    9SAPS    HA 1083   1.813   0.462   6.752  0.5197  0.3136 -1.2105
    9SAPS    HB 1084   1.843   0.622   6.684  1.6114  0.5656  2.1897
    9SAPS    C2 1085   1.769   0.633   6.885 -0.6057  0.3464 -0.4672
    9SAPS    HS 1086   1.872   0.609   6.920  0.0289  0.9778 -1.8351
    9SAPS   O21 1087   1.667   0.568   6.975 -0.7361 -0.5514  0.1497
    9SAPS   C21 1088   1.684   0.554   7.101 -0.3345  0.5674 -0.1241
    9SAPS   O22 1089   1.781   0.581   7.168  0.0278 -0.1641 -0.0788
    9SAPS   C22 1090   1.565   0.476   7.148  0.2165  1.1086 -0.3893
    9SAPS   H2R 1091   1.540   0.394   7.078  1.7663  0.7282 -0.5256
    9SAPS   H2S 1092   1.598   0.424   7.241  0.7268 -0.2562 -1.3058
    9SAPS    C3 1093   1.754   0.790   6.879 -0.5935 -0.4390  0.5504
    9SAPS    HX 1094   1.653   0.806   6.835 -0.0781  0.8181 -0.2164
    9SAPS    HY 1095   1.833   0.819   6.807 -1.5489  1.5612  0.2375
    9SAPS   O31 1096   1.774   0.857   7.004 -0.6816  0.2990 -0.4490
    9SAPS   C31 1097   1.665   0.876   7.076 -0.5317 -0.8696 -0.3631
    9SAPS   O32 1098   1.555   0.836   7.046 -0.8675 -0.4469  0.5408
    9SAPS   C32 1099   1.697   0.979   7.188  0.4388  1.1025  0.1264
    9SAPS   H2X 1100   1.685   1.080   7.143 -1.8167  0.5816 -0.5480
    9SAPS   H2Y 1101   1.803   0.977   7.221  0.4969 -1.9865  0.0714
    9SAPS   C23 1102   1.424   0.546   7.162 -0.4006  1.1025 -0.4108
    9SAPS   H3R 1103   1.399   0.579   7.059  1.0410  0.3454 -1.0515
    9SAPS   H3S 1104   1.451   0.642   7.210  0.1201  0.5207  0.5120
    9SAPS   C24 1105   1.317   0.466   7.238 -0.5403 -0.0687 -0.0706
    9SAPS   H4R 1106   1.236   0.540   7.252 -2.1211 -1.4746 -1.4078
    9SAPS   H4S 1107   1.358   0.446   7.339 -2.2006  2.9745  1.3201
    9SAPS   C25 1108   1.258   0.344   7.169 -0.4005 -0.8910 -0.1685
    9SAPS   H5R 1109   1.242   0.359   7.062 -1.5804  1.6853  0.2930
    9SAPS   C26 1110   1.242   0.227   7.224  0.4479  0.2814  0.1723
    9SAPS   H6R 1111   1.194   0.144   7.169  0.7569  0.4481 -0.3518
    9SAPS   C27 1112   1.264   0.193   7.371  0.2561 -0.1035 -0.1939
    9SAPS   H7R 1113   1.360   0.238   7.404  0.0553 -0.3833  0.8109
    9SAPS   H7S 1114   1.289   0.086   7.381 -2.1617 -0.6459  0.7470
    9SAPS   C28 1115   1.161   0.238   7.472 -0.2823  0.3901 -0.2906
    9SAPS   H8R 1116   1.107   0.330   7.443  0.8027  0.8201 -1.0034
    9SAPS   C29 1117   1.135   0.189   7.596  0.2248  0.0241  0.0630
    9SAPS   H9R 1118   1.062   0.248   7.654 -1.5682  1.1498 -3.1064
    9SAPS  C210 1119   1.202   0.071   7.664 -0.9948  0.2946  0.4624
    9SAPS  H10R 1120   1.276   0.113   7.735  0.3942  0.5767 -1.0992
    9SAPS  H10S 1121   1.260   0.017   7.587 -0.8753 -2.1539  2.1442
    9SAPS  C211 1122   1.109  -0.029   7.728  0.3723  0.0379 -0.2829
    9SAPS  H11R 1123   1.072  -0.114   7.669 -0.7308  0.9281 -0.9229
    9SAPS  C212 1124   1.069  -0.020   7.854  0.0456  0.0916 -0.0943
    9SAPS  H12R 1125   0.993  -0.094   7.884  1.2092 -0.9213  0.4589
    9SAPS  C213 1126   1.110   0.089   7.953 -0.3306  0.0753  0.4929
    9SAPS  H13R 1127   1.221   0.094   7.965 -0.2950 -2.4257  1.7384
    9SAPS  H13S 1128   1.085   0.049   8.053  1.4113 -0.9020  0.5851
    9SAPS  C214 1129   1.042   0.219   7.936  0.3015 -0.0735 -0.1803
    9SAPS  H14R 1130   0.939   0.203   7.901  0.0584  0.4704  0.2603
    9SAPS  C215 1131   1.087   0.347   7.959 -1.0617  0.1183  0.1934
    9SAPS  H15R 1132   1.038   0.435   7.916 -0.8978  0.0973 -0.0415
    9SAPS  C216 1133   1.230   0.388   8.009  0.6229  0.4069  0.3756
    9SAPS  H16R 1134   1.259   0.302   8.074 -1.2394 -0.4981  0.0763
    9SAPS  H16S 1135   1.215   0.474   8.077  0.7058  0.3861  0.4195
    9SAPS  C217 1136   1.326   0.417   7.894  0.0081  0.1107  0.6789
    9SAPS  H17R 1137   1.320   0.344   7.811 -2.1578  1.8303 -0.8300
    9SAPS  H17S 1138   1.431   0.420   7.928 -0.0249  1.9512  0.7474
    9SAPS  C218 1139   1.298   0.552   7.830  0.2893  0.4167 -0.3844
    9SAPS  H18R 1140   1.272   0.626   7.909  0.2316  0.6849 -0.6546
    9SAPS  H18S 1141   1.209   0.550   7.764  0.1134 -0.4370 -0.1423
    9SAPS  C219 1142   1.421   0.593   7.738  0.1358  0.3075  0.4083
    9SAPS  H19R 1143   1.514   0.624   7.791  1.5723 -0.0992 -1.7225
    9SAPS  H19S 1144   1.402   0.691   7.688  0.2943 -0.1848 -0.6540
    9SAPS  C220 1145   1.449   0.504   7.629  0.0999  0.4037 -0.1116
    9SAPS  H20R 1146   1.361   0.488   7.564  0.0539 -0.9906  0.2537
    9SAPS  H20S 1147   1.486   0.405   7.664  2.3661  1.1456 -0.2020
    9SAPS  H20T 1148   1.528   0.545   7.562  1.8771 -1.3070  0.8193
    9SAPS   C33 1149   1.603   0.972   7.313 -0.4736 -0.0543 -0.1061
    9SAPS   H3X 1150   1.504   0.934   7.279  0.1772  0.6609 -3.0594
    9SAPS   H3Y 1151   1.593   1.079   7.340 -0.1110  0.5538 -2.2435
    9SAPS   C34 1152   1.650   0.903   7.437 -0.7860  0.0755 -0.1844
    9SAPS   H4X 1153   1.562   0.890   7.503  0.7966 -1.1554  1.8332
    9SAPS   H4Y 1154   1.716   0.974   7.493 -2.5212  2.6403 -1.2144
    9SAPS   C35 1155   1.721   0.764   7.431  0.2490 -0.2964 -0.0049
    9SAPS   H5X 1156   1.813   0.765   7.368  1.1821 -1.0166  1.2986
    9SAPS   H5Y 1157   1.646   0.688   7.398 -1.7539  0.5737  2.2638
    9SAPS   C36 1158   1.773   0.712   7.561 -0.3915 -0.1466  0.1930
    9SAPS   H6X 1159   1.694   0.698   7.637 -1.7722 -1.9561 -1.4557
    9SAPS   H6Y 1160   1.842   0.788   7.605  1.0232 -2.0985  1.5315
    9SAPS   C37 1161   1.854   0.578   7.549 -0.0329 -0.1162 -0.3084
    9SAPS   H7X 1162   1.891   0.564   7.445  0.4918 -0.5549 -0.0668
    9SAPS   H7Y 1163   1.776   0.498   7.554 -0.1228  0.0116  0.3425
    9SAPS   C38 1164   1.951   0.546   7.666  0.4316  0.0839 -0.0913
    9SAPS   H8X 1165   2.036   0.616   7.661 -0.0085  0.5920 -0.6488
    9SAPS   H8Y 1166   1.992   0.443   7.656  0.3715 -0.0708  1.1055
    9SAPS   C39 1167   1.892   0.572   7.806  0.1672 -0.0305  0.4186
    9SAPS   H9X 1168   1.787   0.540   7.817 -0.5517  2.4897  1.6147
    9SAPS   H9Y 1169   1.911   0.679   7.830 -2.6116  0.3251  1.2664
    9SAPS  C310 1170   1.960   0.482   7.909  0.3886 -0.0316  0.2022
    9SAPS  H10X 1171   1.938   0.377   7.882 -1.4183 -0.8237  3.9979
    9SAPS  H10Y 1172   1.915   0.488   8.010  1.1616 -1.6281  0.6663
    9SAPS  C311 1173   2.109   0.512   7.925 -0.0840  0.2250  0.5358
    9SAPS  H11X 1174   2.122   0.615   7.966  2.9609  1.9221 -3.8517
    9SAPS  H11Y 1175   2.157   0.501   7.825 -1.7605 -0.2283 -0.2471
    9SAPS  C312 1176   2.170   0.412   8.024 -0.4826  0.3192  0.8595
    9SAPS  H12X 1177   2.162   0.314   7.973 -2.8285 -0.4254  2.4824
    9SAPS  H12Y 1178   2.113   0.419   8.120 -0.7657 -0.8074  0.7907
    9SAPS  C313 1179   2.320   0.453   8.055 -0.0937  0.0505 -0.0895
    9SAPS  H13X 1180   2.338   0.559   8.084 -0.1830 -0.1588  0.7653
    9SAPS  H13Y 1181   2.366   0.438   7.955 -1.2960 -2.8333 -0.2895
    9SAPS  C314 1182   2.383   0.362   8.160  0.3430 -0.0395 -0.3654
    9SAPS  H14X 1183   2.377   0.258   8.121  1.2812 -1.1627  2.2117
    9SAPS  H14Y 1184   2.316   0.360   8.249  0.8644 -1.2655  0.0164
    9SAPS  C315 1185   2.525   0.387   8.202 -0.3461  0.9877 -0.0036
    9SAPS  H15X 1186   2.536   0.477   8.267 -0.3382  0.3960  0.8451
    9SAPS  H15Y 1187   2.593   0.405   8.117  0.4604  1.9465  0.8094
    9SAPS  C316 1188   2.585   0.263   8.277  0.2778  0.8145  0.5154
    9SAPS  H16X 1189   2.576   0.171   8.215  0.9996  1.6839 -0.9340
    9SAPS  H16Y 1190   2.503   0.253   8.351  1.8765 -0.0437  2.2541
    9SAPS  C317 1191   2.726   0.289   8.334 -0.0426 -0.1955  0.8071
    9SAPS  H17X 1192   2.725   0.371   8.409  0.6811  0.5383  0.0401
    9SAPS  H17Y 1193   2.801   0.319   8.258 -0.9203 -0.3804 -0.1580
    9SAPS  C318 1194   2.788   0.165   8.400 -0.3759 -0.3008  0.2399
    9SAPS  H18X 1195   2.708   0.121   8.463 -1.5561 -0.1057 -1.0852
    9SAPS  H18Y 1196   2.882   0.189   8.454  0.0891  0.0155 -0.6834
    9SAPS  H18Z 1197   2.824   0.090   8.326  0.4582 -1.0377  1.3678
   10SAPS     N 1198   2.105   5.949   6.180 -0.8518  0.2140  0.4347
   10SAPS   HN1 1199   2.007   5.915   6.175 -1.4279  1.6571  1.2564
   10SAPS   HN2 1200   2.107   6.032   6.242 -0.5400 -0.0277  0.7490
   10SAPS   HN3 1201   2.133   5.979   6.084  0.1211 -0.1661  0.5928
   10SAPS   C12 1202   2.203   5.843   6.219 -0.2243  0.3641  0.2435
   10SAPS  H12A 1203   2.188   5.824   6.324  2.0716  1.0893  0.7552
   10SAPS   C13 1204   2.203   5.717   6.134  0.2296 -0.3276  1.2102
   10SAPS  O13A 1205   2.135   5.707   6.030 -0.3650 -0.0294  0.4809
   10SAPS  O13B 1206   2.243   5.610   6.192 -0.3118 -0.1630  0.7680
   10SAPS   C11 1207   2.343   5.905   6.209  1.2198 -1.0076 -0.2666
   10SAPS  H11A 1208   2.375   5.912   6.103  3.1488 -0.8804  0.2960
   10SAPS  H11B 1209   2.412   5.836   6.261  0.9746 -0.3553  0.9711
   10SAPS     P 1210   2.486   6.093   6.315  0.0902  0.2581  0.7406
   10SAPS   O13 1211   2.598   6.025   6.247 -0.8366 -0.5289 -1.1384
   10SAPS   O14 1212   2.483   6.240   6.308  0.0880 -0.4596 -0.1976
   10SAPS   O12 1213   2.348   6.039   6.261 -0.2302  0.0920 -0.1494
   10SAPS   O11 1214   2.484   6.060   6.467  0.3498 -0.3456  0.4966
   10SAPS    C1 1215   2.596   6.085   6.556  0.4007 -0.1026  0.1319
   10SAPS    HA 1216   2.652   6.171   6.514  1.0644 -0.5778  0.0330
   10SAPS    HB 1217   2.553   6.135   6.645  0.9355  1.8566 -0.6622
   10SAPS    C2 1218   2.691   5.964   6.571  0.1951  0.1618 -0.5934
   10SAPS    HS 1219   2.721   5.919   6.474  0.8507  0.1057 -0.3641
   10SAPS   O21 1220   2.629   5.870   6.665 -0.3163 -0.6960 -0.5043
   10SAPS   C21 1221   2.684   5.753   6.670  0.2824 -0.4577 -0.3500
   10SAPS   O22 1222   2.775   5.715   6.593 -0.2476 -0.1713 -0.3378
   10SAPS   C22 1223   2.619   5.661   6.776 -0.0918 -0.5009  0.1404
   10SAPS   H2R 1224   2.540   5.604   6.722  0.5001 -4.0822  2.6702
   10SAPS   H2S 1225   2.693   5.584   6.807  1.7532  0.2863 -2.0744
   10SAPS    C3 1226   2.829   6.010   6.630  0.4815 -0.3995  0.4104
   10SAPS    HX 1227   2.872   6.062   6.542  1.2393  1.0127  1.5781
   10SAPS    HY 1228   2.902   5.930   6.653  0.7740  0.3877  2.4109
   10SAPS   O31 1229   2.806   6.090   6.740 -0.1486 -0.1617 -0.6465
   10SAPS   C31 1230   2.818   6.036   6.861  0.2137  0.3634  0.1794
   10SAPS   O32 1231   2.827   5.917   6.886  0.1454  0.2129 -0.0550
   10SAPS   C32 1232   2.826   6.146   6.962 -0.1012 -0.3573 -0.3478
   10SAPS   H2X 1233   2.722   6.184   6.978  0.8036  0.9597  3.4402
   10SAPS   H2Y 1234   2.879   6.225   6.904  0.1577 -2.2935 -2.8931
   10SAPS   C23 1235   2.559   5.743   6.897 -0.2569 -0.4276 -0.0251
   10SAPS   H3R 1236   2.503   5.826   6.849 -0.6590 -0.3445  0.5903
   10SAPS   H3S 1237   2.632   5.789   6.967 -1.6121 -1.0555  1.8785
   10SAPS   C24 1238   2.451   5.673   6.965  0.4458  0.5683 -0.4725
   10SAPS   H4R 1239   2.358   5.670   6.903 -1.0805 -1.4981  1.7497
   10SAPS   H4S 1240   2.419   5.733   7.053  0.3332 -0.6356  0.3191
   10SAPS   C25 1241   2.487   5.528   7.005  0.1829  0.4801 -0.0122
   10SAPS   H5R 1242   2.535   5.468   6.927  1.0681 -0.4979  1.2356
   10SAPS   C26 1243   2.455   5.471   7.123  0.2499  0.1870 -0.5399
   10SAPS   H6R 1244   2.491   5.368   7.135 -0.1154  0.0858 -0.2598
   10SAPS   C27 1245   2.378   5.537   7.234 -0.1103 -0.2369  0.5532
   10SAPS   H7R 1246   2.309   5.467   7.285 -1.1129  0.6118  0.4007
   10SAPS   H7S 1247   2.317   5.623   7.199  0.8753  0.3063  0.1322
   10SAPS   C28 1248   2.478   5.597   7.329  0.7358 -0.3244  0.7583
   10SAPS   H8R 1249   2.564   5.645   7.280  0.2965  1.4622  1.6742
   10SAPS   C29 1250   2.484   5.591   7.461  0.9178  0.7242 -0.2217
   10SAPS   H9R 1251   2.564   5.635   7.523  2.2562 -0.4153 -1.0778
   10SAPS  C210 1252   2.389   5.522   7.558 -0.1069  0.1789  1.2608
   10SAPS  H10R 1253   2.292   5.515   7.505  1.0751 -0.8503 -0.8734
   10SAPS  H10S 1254   2.384   5.584   7.650 -0.6608  0.1432  1.2596
   10SAPS  C211 1255   2.442   5.385   7.590  0.3162 -0.4609  0.1444
   10SAPS  H11R 1256   2.467   5.323   7.502 -1.2776  1.0201 -1.4532
   10SAPS  C212 1257   2.456   5.343   7.720 -0.2176 -0.2851  0.5519
   10SAPS  H12R 1258   2.507   5.246   7.732  0.0792 -0.2950 -0.6546
   10SAPS  C213 1259   2.430   5.421   7.846 -0.3713 -0.2677  0.3169
   10SAPS  H13R 1260   2.450   5.346   7.926  1.3716  0.5607  0.7002
   10SAPS  H13S 1261   2.328   5.464   7.852 -0.3551  0.1291 -1.6848
   10SAPS  C214 1262   2.530   5.526   7.866  0.1955 -0.6988  0.1095
   10SAPS  H14R 1263   2.576   5.568   7.775 -0.6880 -0.2337 -0.1376
   10SAPS  C215 1264   2.541   5.603   7.979 -0.0784 -0.3912 -0.0719
   10SAPS  H15R 1265   2.614   5.685   7.988 -1.9048  1.1710  1.4423
   10SAPS  C216 1266   2.461   5.591   8.108  0.8176  0.2326  0.3462
   10SAPS  H16R 1267   2.395   5.502   8.114 -0.2170  1.0489  2.1531
   10SAPS  H16S 1268   2.400   5.682   8.125  0.6865  0.6840 -2.2116
   10SAPS  C217 1269   2.557   5.571   8.226 -0.3366 -0.4609  0.5911
   10SAPS  H17R 1270   2.593   5.668   8.267  0.5366 -0.3727 -0.3323
   10SAPS  H17S 1271   2.646   5.525   8.178  0.9200  1.9583  0.4508
   10SAPS  C218 1272   2.515   5.486   8.339 -0.0470  0.5278  0.0282
   10SAPS  H18R 1273   2.462   5.393   8.308 -0.1235 -0.0084  1.6639
   10SAPS  H18S 1274   2.445   5.555   8.391  0.8183  0.7169  0.9733
   10SAPS  C219 1275   2.639   5.439   8.417  0.3988 -0.0237  0.2998
   10SAPS  H19R 1276   2.704   5.383   8.346  1.4955  0.0679  1.1933
   10SAPS  H19S 1277   2.629   5.357   8.492  1.4643 -0.3154  0.1432
   10SAPS  C220 1278   2.711   5.549   8.491 -0.3773 -0.3617 -0.0236
   10SAPS  H20R 1279   2.659   5.576   8.585  1.5494  1.1379  0.6991
   10SAPS  H20S 1280   2.726   5.646   8.439  1.2506  0.0781  1.1826
   10SAPS  H20T 1281   2.812   5.515   8.523 -0.1375 -0.3518 -0.7484
   10SAPS   C33 1282   2.885   6.124   7.096  1.0758 -0.3723 -0.1801
   10SAPS   H3X 1283   2.993   6.151   7.094  0.9373  0.1885 -0.1975
   10SAPS   H3Y 1284   2.871   6.016   7.116 -0.8505 -0.3501 -1.1307
   10SAPS   C34 1285   2.806   6.196   7.206 -0.0207  0.4545 -0.0491
   10SAPS   H4X 1286   2.710   6.143   7.221 -0.2849  0.4985 -1.5353
   10SAPS   H4Y 1287   2.779   6.298   7.173 -1.5585 -0.1027 -0.5744
   10SAPS   C35 1288   2.878   6.189   7.340  0.0227  0.4338 -0.3919
   10SAPS   H5X 1289   2.984   6.214   7.316  0.0644  1.5858  0.8571
   10SAPS   H5Y 1290   2.881   6.088   7.387 -0.3754  0.1808 -0.9062
   10SAPS   C36 1291   2.836   6.294   7.446 -0.5509  0.3722 -0.1866
   10SAPS   H6X 1292   2.735   6.268   7.485  0.0049 -0.3544  0.8159
   10SAPS   H6Y 1293   2.826   6.397   7.406 -0.5015  0.3643 -0.2183
   10SAPS   C37 1294   2.936   6.307   7.564  0.0564 -0.2262 -0.7517
   10SAPS   H7X 1295   3.034   6.341   7.523  0.6305 -3.4797 -2.4396
   10SAPS   H7Y 1296   2.958   6.203   7.599 -1.6554 -0.8905 -1.5562
   10SAPS   C38 1297   2.897   6.402   7.682 -0.9193 -0.4968 -0.5040
   10SAPS   H8X 1298   2.799   6.358   7.711 -0.3923 -0.2383  1.8455
   10SAPS   H8Y 1299   2.871   6.501   7.639 -1.8078 -0.4178  0.1832
   10SAPS   C39 1300   3.009   6.431   7.778 -0.8818  0.0187 -0.1068
   10SAPS   H9X 1301   3.096   6.469   7.721  0.7753 -2.2044  0.7771
   10SAPS   H9Y 1302   3.035   6.342   7.840 -0.4167  0.0374 -0.2674
   10SAPS  C310 1303   2.983   6.541   7.887  0.5691 -0.1577  0.3724
   10SAPS  H10X 1304   2.960   6.635   7.831 -1.5599 -2.0211 -2.1349
   10SAPS  H10Y 1305   3.068   6.563   7.954  0.5571  0.3118  0.2412
   10SAPS  C311 1306   2.875   6.489   7.980 -0.3865 -0.0155  0.2599
   10SAPS  H11X 1307   2.919   6.391   8.008 -2.1255 -1.1760 -0.8616
   10SAPS  H11Y 1308   2.788   6.468   7.913 -0.0077 -2.1664  0.3646
   10SAPS  C312 1309   2.834   6.591   8.094  0.0040 -1.0555  0.2433
   10SAPS  H12X 1310   2.828   6.687   8.039  3.7850 -0.8633 -0.0934
   10SAPS  H12Y 1311   2.918   6.601   8.167 -1.3267  3.0548  1.4765
   10SAPS  C313 1312   2.702   6.556   8.161  0.7609  0.0965 -0.0283
   10SAPS  H13X 1313   2.687   6.446   8.160  1.3416 -0.0228  1.7593
   10SAPS  H13Y 1314   2.635   6.602   8.085  0.4222  0.6804  0.6206
   10SAPS  C314 1315   2.678   6.622   8.299 -0.2911  0.0900  0.1687
   10SAPS  H14X 1316   2.683   6.733   8.294  3.3556  0.0205 -0.2742
   10SAPS  H14Y 1317   2.761   6.588   8.365  1.0824  2.9081  0.0508
   10SAPS  C315 1318   2.539   6.585   8.362 -0.8493 -0.2023  0.1867
   10SAPS  H15X 1319   2.535   6.625   8.466 -1.4995  0.2590 -0.0087
   10SAPS  H15Y 1320   2.538   6.474   8.355  1.7293 -0.1543 -2.7812
   10SAPS  C316 1321   2.427   6.658   8.295 -0.1883 -0.4220 -0.0733
   10SAPS  H16X 1322   2.445   6.677   8.187 -1.7973 -1.4813 -0.5473
   10SAPS  H16Y 1323   2.419   6.761   8.335  0.7025  0.1996 -1.3861
   10SAPS  C317 1324   2.284   6.604   8.307 -0.5791 -0.2799 -0.3693
   10SAPS  H17X 1325   2.274   6.498   8.275 -3.0609 -0.3381  0.3742
   10SAPS  H17Y 1326   2.213   6.674   8.257 -1.4698  0.0417  1.2616
   10SAPS  C318 1327   2.231   6.579   8.455  0.8081 -0.3753  0.0177
   10SAPS  H18X 1328   2.300   6.522   8.522  2.3675  2.5416  1.0467
   10SAPS  H18Y 1329   2.144   6.510   8.453  0.9710 -0.5695 -1.6391
   10SAPS  H18Z 1330   2.199   6.674   8.503  0.8328  0.0750 -0.8511
   11SAPS     N 1331   4.460   0.348   6.330  0.1947 -0.2235 -0.1387
   11SAPS   HN1 1332   4.381   0.365   6.396  1.8337  0.8966  1.6303
   11SAPS   HN2 1333   4.544   0.302   6.371  0.3641  0.5422  0.3974
   11SAPS   HN3 1334   4.478   0.442   6.290 -2.5573 -0.5373 -2.4574
   11SAPS   C12 1335   4.416   0.260   6.215 -0.2609 -0.2122  0.5346
   11SAPS  H12A 1336   4.477   0.285   6.130 -0.0059 -0.6265  0.5936
   11SAPS   C13 1337   4.404   0.104   6.233  0.4949  0.3421 -0.9230
   11SAPS  O13A 1338   4.456   0.042   6.335 -0.7438 -0.6077  0.3083
   11SAPS  O13B 1339   4.372   0.032   6.136 -0.0940  0.4940  0.2093
   11SAPS   C11 1340   4.273   0.303   6.169 -0.7038 -0.5644 -0.4258
   11SAPS  H11A 1341   4.194   0.278   6.244 -0.5590  3.4910  1.3553
   11SAPS  H11B 1342   4.258   0.257   6.069 -0.6416 -2.3794  0.3621
   11SAPS     P 1343   4.154   0.530   6.094  0.5156 -0.4129 -0.5721
   11SAPS   O13 1344   4.212   0.657   6.059 -0.5306  0.6560 -0.0283
   11SAPS   O14 1345   4.069   0.462   5.993 -0.1265  0.1147 -0.8420
   11SAPS   O12 1346   4.275   0.442   6.130  0.2964 -0.5916 -0.3449
   11SAPS   O11 1347   4.077   0.562   6.233 -0.9241 -0.7415 -0.5311
   11SAPS    C1 1348   4.163   0.570   6.349 -0.3974 -0.1983 -0.9450
   11SAPS    HA 1349   4.216   0.473   6.364 -0.1878 -0.1768 -1.5232
   11SAPS    HB 1350   4.244   0.644   6.331  0.3967 -1.0096 -0.8022
   11SAPS    C2 1351   4.080   0.611   6.476 -0.3917  0.6476 -0.5803
   11SAPS    HS 1352   4.135   0.583   6.568 -2.6591 -0.8784  0.4022
   11SAPS   O21 1353   3.948   0.545   6.475  0.1082  0.1477  0.1036
   11SAPS   C21 1354   3.938   0.432   6.534  0.2135 -0.0652  0.3368
   11SAPS   O22 1355   4.026   0.371   6.599 -0.1567  0.2118 -0.0210
   11SAPS   C22 1356   3.800   0.379   6.519  0.0382 -0.0825  0.5347
   11SAPS   H2R 1357   3.779   0.372   6.411 -1.5368 -2.7054  0.9148
   11SAPS   H2S 1358   3.788   0.272   6.550  0.5938 -0.2820  0.0684
   11SAPS    C3 1359   4.052   0.760   6.462  0.6465  0.1448 -0.0156
   11SAPS    HX 1360   3.994   0.781   6.369 -0.2312  0.6733  0.6324
   11SAPS    HY 1361   4.153   0.803   6.448  1.1817 -0.3226  2.0613
   11SAPS   O31 1362   3.982   0.822   6.574 -0.0503  0.0839  0.4393
   11SAPS   C31 1363   4.039   0.824   6.690  0.0561 -0.3209 -0.0600
   11SAPS   O32 1364   4.160   0.788   6.717 -0.1631  0.4253  0.0412
   11SAPS   C32 1365   3.921   0.835   6.795 -0.2831 -0.0985  0.5379
   11SAPS   H2X 1366   3.857   0.746   6.777  0.9103 -0.6743 -1.2011
   11SAPS   H2Y 1367   3.863   0.929   6.780 -1.8813 -0.9543  1.1485
   11SAPS   C23 1368   3.690   0.462   6.585  0.1545  0.1425  0.3357
   11SAPS   H3R 1369   3.595   0.408   6.565  0.3016 -0.0067  0.0389
   11SAPS   H3S 1370   3.682   0.567   6.550 -0.6630 -0.3400 -0.9838
   11SAPS   C24 1371   3.705   0.470   6.737  0.6376 -0.3087  0.2090
   11SAPS   H4R 1372   3.794   0.530   6.766 -0.0583  1.0460 -0.3683
   11SAPS   H4S 1373   3.718   0.368   6.780  1.6453 -1.5152 -2.7447
   11SAPS   C25 1374   3.583   0.543   6.797  0.0520  0.1807 -0.2979
   11SAPS   H5R 1375   3.574   0.653   6.793 -1.3322  0.1577  1.1099
   11SAPS   C26 1376   3.482   0.478   6.863 -0.4086 -0.1294  0.1734
   11SAPS   H6R 1377   3.403   0.544   6.903 -2.0401 -0.7152 -1.9199
   11SAPS   C27 1378   3.458   0.329   6.883  0.0500 -0.1407 -0.4264
   11SAPS   H7R 1379   3.495   0.276   6.792 -1.7191 -1.7463 -0.2838
   11SAPS   H7S 1380   3.353   0.295   6.884 -0.0770  0.2589  0.0922
   11SAPS   C28 1381   3.523   0.294   7.014 -0.1459  0.8938 -0.1538
   11SAPS   H8R 1382   3.627   0.324   7.032 -0.4591  0.9790  1.7627
   11SAPS   C29 1383   3.477   0.213   7.109 -0.1404 -1.0653  0.0951
   11SAPS   H9R 1384   3.541   0.187   7.195  1.0256 -1.0713 -0.7470
   11SAPS  C210 1385   3.334   0.153   7.108 -0.4460 -0.3756 -0.4773
   11SAPS  H10R 1386   3.299   0.141   7.003 -0.2859  0.1412 -0.5918
   11SAPS  H10S 1387   3.271   0.230   7.158 -0.4737 -0.1865 -0.8003
   11SAPS  C211 1388   3.320   0.013   7.168  0.4760 -0.4594 -1.1326
   11SAPS  H11R 1389   3.266  -0.066   7.113  0.0812 -0.7970 -0.2736
   11SAPS  C212 1390   3.352  -0.024   7.298  0.0148  0.1251 -0.4202
   11SAPS  H12R 1391   3.334  -0.127   7.331  2.0732 -0.4353 -0.8474
   11SAPS  C213 1392   3.417   0.066   7.404  1.0857 -0.8438 -0.5954
   11SAPS  H13R 1393   3.501   0.127   7.364 -0.5180  0.3436 -2.3148
   11SAPS  H13S 1394   3.460   0.018   7.494 -2.0790  0.0147  1.5302
   11SAPS  C214 1395   3.310   0.160   7.458  0.4560 -0.2246 -0.4940
   11SAPS  H14R 1396   3.300   0.250   7.396 -0.6952 -0.2002 -0.2794
   11SAPS  C215 1397   3.235   0.133   7.569  0.1940  0.0662 -0.0552
   11SAPS  H15R 1398   3.163   0.213   7.596  0.4937  0.4169 -0.2805
   11SAPS  C216 1399   3.232   0.014   7.662 -0.6628 -0.3315 -0.8124
   11SAPS  H16R 1400   3.333  -0.025   7.686 -1.1864 -1.4834 -0.3663
   11SAPS  H16S 1401   3.169  -0.061   7.609 -0.9466  0.1557 -1.1794
   11SAPS  C217 1402   3.168   0.065   7.798  0.0207  0.6065 -0.3111
   11SAPS  H17R 1403   3.168  -0.027   7.860 -1.0313  0.0226 -1.1730
   11SAPS  H17S 1404   3.060   0.089   7.787 -0.2919 -0.2432  0.7372
   11SAPS  C218 1405   3.254   0.174   7.871  0.1097 -0.3390  0.5016
   11SAPS  H18R 1406   3.280   0.259   7.805  0.6693 -1.6551 -1.0410
   11SAPS  H18S 1407   3.352   0.127   7.896  1.1582  1.2058 -0.5090
   11SAPS  C219 1408   3.190   0.230   7.998 -0.2888  0.1547 -0.0004
   11SAPS  H19R 1409   3.249   0.318   8.033 -0.5673  0.7928 -1.0762
   11SAPS  H19S 1410   3.201   0.143   8.066 -0.0791  0.5882  0.5356
   11SAPS  C220 1411   3.051   0.284   7.990  0.4777  0.1298 -0.1701
   11SAPS  H20R 1412   3.020   0.353   8.071  0.0795  0.7905 -0.8668
   11SAPS  H20S 1413   2.973   0.206   7.975 -0.9080  1.6031 -1.0067
   11SAPS  H20T 1414   3.040   0.350   7.901 -0.8550  1.5050  0.9521
   11SAPS   C33 1415   3.960   0.842   6.941 -0.0172 -0.3558  0.0789
   11SAPS   H3X 1416   4.019   0.936   6.950 -2.2774  1.1223  0.5668
   11SAPS   H3Y 1417   4.019   0.755   6.975  0.4640  0.0075  0.1928
   11SAPS   C34 1418   3.834   0.867   7.030 -0.4459  0.2930  0.4680
   11SAPS   H4X 1419   3.743   0.819   6.988 -1.1779  3.1771 -1.5714
   11SAPS   H4Y 1420   3.806   0.973   7.013  1.6495  0.6415 -1.2535
   11SAPS   C35 1421   3.847   0.828   7.176 -0.3764  0.5111 -0.3885
   11SAPS   H5X 1422   3.917   0.895   7.230  0.8794  0.5800 -2.0208
   11SAPS   H5Y 1423   3.909   0.736   7.170  2.7962  2.5384 -1.3975
   11SAPS   C36 1424   3.722   0.817   7.261  0.6390 -0.0646  0.4299
   11SAPS   H6X 1425   3.645   0.749   7.220  0.4197  0.6817 -0.4268
   11SAPS   H6Y 1426   3.689   0.923   7.255  1.7516  0.2357 -3.8614
   11SAPS   C37 1427   3.753   0.778   7.403 -0.5366  0.3532 -0.9107
   11SAPS   H7X 1428   3.854   0.804   7.441 -1.2381  0.4572  0.9958
   11SAPS   H7Y 1429   3.742   0.667   7.410 -0.7411  0.4291 -0.0147
   11SAPS   C38 1430   3.648   0.833   7.501 -0.5433  0.5903  0.4303
   11SAPS   H8X 1431   3.548   0.818   7.454  1.1450 -2.2748 -2.7036
   11SAPS   H8Y 1432   3.660   0.943   7.513  0.6056  0.3627  1.6201
   11SAPS   C39 1433   3.666   0.772   7.645  0.5202 -0.4529  0.4691
   11SAPS   H9X 1434   3.650   0.662   7.641 -0.3985 -0.3413  0.7818
   11SAPS   H9Y 1435   3.571   0.812   7.687  1.6036  2.3344  0.4504
   11SAPS  C310 1436   3.791   0.806   7.715 -0.3885 -0.4584  0.4473
   11SAPS  H10X 1437   3.795   0.917   7.719 -0.7833 -0.4691  1.3781
   11SAPS  H10Y 1438   3.883   0.767   7.666  1.7303  2.9637  1.2829
   11SAPS  C311 1439   3.813   0.748   7.860  0.2998  0.0039  0.6081
   11SAPS  H11X 1440   3.811   0.639   7.882  4.2525  0.2438  3.3568
   11SAPS  H11Y 1441   3.730   0.788   7.922 -0.4076 -1.5251  0.6824
   11SAPS  C312 1442   3.943   0.802   7.918  0.3963  0.4452  0.4486
   11SAPS  H12X 1443   3.937   0.912   7.929 -2.3050  0.2163  2.5342
   11SAPS  H12Y 1444   4.025   0.768   7.851  1.9846  0.1385  2.4577
   11SAPS  C313 1445   3.970   0.747   8.063 -0.1522  0.4993  1.0895
   11SAPS  H13X 1446   3.947   0.639   8.061  1.2990  0.0702  3.4488
   11SAPS  H13Y 1447   3.906   0.794   8.141  0.3927  0.7460  1.3921
   11SAPS  C314 1448   4.119   0.745   8.099 -0.2426 -0.3900  0.5175
   11SAPS  H14X 1449   4.159   0.847   8.079  0.1690  0.0938  3.3022
   11SAPS  H14Y 1450   4.166   0.684   8.019  1.2795  3.4707 -1.8254
   11SAPS  C315 1451   4.146   0.685   8.238  0.1986 -0.2255  0.4107
   11SAPS  H15X 1452   4.248   0.642   8.242  1.6068  2.9314  2.6852
   11SAPS  H15Y 1453   4.065   0.612   8.258  1.0075 -1.0639  0.6713
   11SAPS  C316 1454   4.134   0.782   8.360  0.0375  0.3645 -0.0569
   11SAPS  H16X 1455   4.047   0.850   8.347  0.8472  1.3398 -0.4516
   11SAPS  H16Y 1456   4.219   0.852   8.369  0.1298  0.0887  1.4687
   11SAPS  C317 1457   4.113   0.702   8.496 -0.4316  0.1565 -0.2092
   11SAPS  H17X 1458   4.017   0.649   8.513  0.0719 -1.2720 -1.5596
   11SAPS  H17Y 1459   4.107   0.779   8.575 -0.6420 -0.2190  0.1454
   11SAPS  C318 1460   4.222   0.601   8.523 -0.5645  0.2233  0.3046
   11SAPS  H18X 1461   4.204   0.515   8.455 -1.0872 -1.4711  2.4739
   11SAPS  H18Y 1462   4.209   0.557   8.624 -0.8739 -3.0055 -1.0195
   11SAPS  H18Z 1463   4.323   0.642   8.503 -0.2562 -0.3018  0.7615
   12SAPS     N 1464   5.305   3.834   6.236  0.4026 -0.5197 -0.1323
   12SAPS   HN1 1465   5.258   3.891   6.309 -3.0689 -1.4772 -1.3909
   12SAPS   HN2 1466   5.368   3.764   6.281 -0.0500 -0.2546  0.9303
   12SAPS   HN3 1467   5.371   3.893   6.182  2.1153 -1.7931  0.4578
   12SAPS   C12 1468   5.193   3.775   6.142 -0.4500 -0.1496 -0.3215
   12SAPS  H12A 1469   5.149   3.850   6.077 -0.4146  1.1878  1.1503
   12SAPS   C13 1470   5.245   3.681   6.033  0.0601  1.0843 -0.3480
   12SAPS  O13A 1471   5.360   3.633   6.037  0.1365  0.0859 -0.5863
   12SAPS  O13B 1472   5.163   3.637   5.946 -0.5053 -1.1908 -0.1596
   12SAPS   C11 1473   5.086   3.711   6.229  0.8440 -0.6598  0.5614
   12SAPS  H11A 1474   5.139   3.640   6.297 -0.3169 -2.5516 -0.4236
   12SAPS  H11B 1475   5.026   3.653   6.156  0.6457 -0.8180  0.8491
   12SAPS     P 1476   4.902   3.901   6.231 -0.3023 -0.0538 -0.5061
   12SAPS   O13 1477   4.901   4.034   6.292  0.1721 -0.3639  0.0378
   12SAPS   O14 1478   4.904   3.889   6.086  0.5698 -0.2723 -0.2324
   12SAPS   O12 1479   5.018   3.821   6.299 -0.0014  0.0274 -0.3427
   12SAPS   O11 1480   4.775   3.811   6.281  0.8692  0.0160 -0.4370
   12SAPS    C1 1481   4.760   3.796   6.424  0.3882 -0.3750  1.1246
   12SAPS    HA 1482   4.795   3.886   6.478  1.0614  0.3892 -0.5140
   12SAPS    HB 1483   4.653   3.780   6.446  0.3602 -0.9319  0.6285
   12SAPS    C2 1484   4.842   3.680   6.495 -0.3740  0.0968 -0.2632
   12SAPS    HS 1485   4.949   3.697   6.469 -0.2735 -0.2518 -0.0904
   12SAPS   O21 1486   4.778   3.562   6.451  0.7381  0.0223  0.4575
   12SAPS   C21 1487   4.859   3.455   6.447 -0.0577  0.2456 -0.9318
   12SAPS   O22 1488   4.978   3.448   6.461 -1.0054  0.3764 -0.2009
   12SAPS   C22 1489   4.769   3.333   6.412  0.0138  0.1229  0.3379
   12SAPS   H2R 1490   4.694   3.367   6.337 -1.6228 -1.2514  1.2862
   12SAPS   H2S 1491   4.820   3.258   6.348  2.4396  1.1035  1.0339
   12SAPS    C3 1492   4.830   3.681   6.656  0.5662 -0.0302 -0.4142
   12SAPS    HX 1493   4.722   3.690   6.679  0.7153 -2.0309  1.5067
   12SAPS    HY 1494   4.866   3.780   6.693 -1.6843  1.1343 -1.1659
   12SAPS   O31 1495   4.888   3.567   6.723 -0.4976  0.0415 -0.4315
   12SAPS   C31 1496   5.019   3.580   6.758 -0.0219  0.5560 -0.4290
   12SAPS   O32 1497   5.074   3.693   6.753  0.5888  0.8276  0.2459
   12SAPS   C32 1498   5.075   3.452   6.807 -0.1508 -0.7691 -0.3872
   12SAPS   H2X 1499   5.077   3.388   6.717 -0.4665 -0.9871 -0.2411
   12SAPS   H2Y 1500   5.009   3.413   6.888  0.5612 -2.9748 -0.7911
   12SAPS   C23 1501   4.702   3.284   6.544 -0.2432 -0.7258 -0.4457
   12SAPS   H3R 1502   4.630   3.202   6.521  0.8223 -2.3347  1.5788
   12SAPS   H3S 1503   4.633   3.358   6.589  0.6277  0.2297 -0.6512
   12SAPS   C24 1504   4.803   3.214   6.633 -0.0065  0.7756 -0.8165
   12SAPS   H4R 1505   4.757   3.180   6.729  1.0021 -1.7428 -1.1558
   12SAPS   H4S 1506   4.875   3.297   6.651  0.7185  0.0289 -0.2286
   12SAPS   C25 1507   4.870   3.090   6.573 -0.2552 -0.7159 -0.6257
   12SAPS   H5R 1508   4.841   3.068   6.470 -0.6280 -0.3828 -0.5947
   12SAPS   C26 1509   4.974   3.025   6.639  0.1718  0.9061 -0.2247
   12SAPS   H6R 1510   5.015   2.935   6.592  2.0650  1.1361  0.8953
   12SAPS   C27 1511   5.021   3.049   6.780 -0.0740  0.7232 -0.0599
   12SAPS   H7R 1512   5.006   3.155   6.810  1.0013  0.6965  0.6103
   12SAPS   H7S 1513   5.128   3.030   6.801 -0.3198  0.1110  0.7142
   12SAPS   C28 1514   4.935   2.969   6.872  0.0114 -0.0895 -0.8420
   12SAPS   H8R 1515   4.913   2.863   6.854 -1.5724 -0.1439  1.0334
   12SAPS   C29 1516   4.888   3.014   6.994 -0.2173 -0.1625  0.3679
   12SAPS   H9R 1517   4.828   2.946   7.056 -0.3330  0.6477  1.1616
   12SAPS  C210 1518   4.917   3.143   7.065  0.4796  1.4284  0.2389
   12SAPS  H10R 1519   5.016   3.172   7.025 -0.4234  2.0217 -1.7151
   12SAPS  H10S 1520   4.904   3.132   7.175 -4.8083  1.5722 -0.1155
   12SAPS  C211 1521   4.826   3.253   7.017  0.7474  0.1787  0.4346
   12SAPS  H11R 1522   4.815   3.252   6.907  1.9710 -1.2431  0.2980
   12SAPS  C212 1523   4.771   3.348   7.092  0.2981  0.0232  0.2031
   12SAPS  H12R 1524   4.700   3.415   7.042  1.4419  0.3402 -1.0524
   12SAPS  C213 1525   4.787   3.378   7.239 -0.4088 -0.0887  0.5451
   12SAPS  H13R 1526   4.784   3.488   7.250 -1.3061  0.2328 -2.1370
   12SAPS  H13S 1527   4.889   3.355   7.275  0.4921  0.5761 -1.4458
   12SAPS  C214 1528   4.674   3.332   7.322  0.8126 -0.0059 -0.2555
   12SAPS  H14R 1529   4.579   3.343   7.268  0.0996  2.0158  1.2794
   12SAPS  C215 1530   4.662   3.286   7.450  0.3667 -0.2086  0.0559
   12SAPS  H15R 1531   4.562   3.268   7.492 -0.2765  0.9430 -0.9419
   12SAPS  C216 1532   4.776   3.269   7.547 -0.0875 -0.5571  0.1593
   12SAPS  H16R 1533   4.870   3.317   7.511 -1.0697  2.4694  1.3014
   12SAPS  H16S 1534   4.819   3.167   7.543 -0.5560 -0.7387 -0.3371
   12SAPS  C217 1535   4.726   3.319   7.685 -1.1954  0.3101  0.4774
   12SAPS  H17R 1536   4.634   3.260   7.707 -0.8075  0.0676  1.5029
   12SAPS  H17S 1537   4.699   3.426   7.678  0.9615  0.8000 -1.5274
   12SAPS  C218 1538   4.828   3.289   7.791 -0.5629 -0.0821 -0.0914
   12SAPS  H18R 1539   4.905   3.367   7.781  0.4201 -1.0174 -0.0047
   12SAPS  H18S 1540   4.885   3.193   7.789  0.7594  0.6150  1.7503
   12SAPS  C219 1541   4.777   3.307   7.936  0.1284  0.7530  0.4723
   12SAPS  H19R 1542   4.870   3.291   7.994 -0.2970  1.7379  1.4687
   12SAPS  H19S 1543   4.708   3.223   7.958  1.0106  0.0447  0.6015
   12SAPS  C220 1544   4.707   3.435   7.972  0.1949 -0.3302  0.2888
   12SAPS  H20R 1545   4.678   3.438   8.080 -1.4314 -0.2988 -0.1227
   12SAPS  H20S 1546   4.610   3.426   7.919  0.1567 -2.7819  0.6364
   12SAPS  H20T 1547   4.759   3.532   7.956  0.9141 -0.5425  1.2292
   12SAPS   C33 1548   5.227   3.479   6.838  0.9074  0.1298 -0.6901
   12SAPS   H3X 1549   5.281   3.545   6.766  0.7136  0.6532 -0.3670
   12SAPS   H3Y 1550   5.281   3.383   6.848 -0.1820 -0.6110 -1.6746
   12SAPS   C34 1551   5.245   3.561   6.969 -0.1596 -0.1343  0.6630
   12SAPS   H4X 1552   5.195   3.658   6.949 -0.0973 -0.5940 -2.0982
   12SAPS   H4Y 1553   5.355   3.572   6.969  0.1634 -2.6810 -0.2770
   12SAPS   C35 1554   5.187   3.484   7.091 -0.0788 -0.0985  0.2527
   12SAPS   H5X 1555   5.178   3.375   7.075 -0.2205 -0.3117  1.6679
   12SAPS   H5Y 1556   5.084   3.526   7.097 -0.5967 -1.0752 -1.3287
   12SAPS   C36 1557   5.249   3.507   7.231 -0.0381 -0.2668 -0.2197
   12SAPS   H6X 1558   5.256   3.616   7.254  0.5483 -0.2568 -0.4230
   12SAPS   H6Y 1559   5.353   3.468   7.230  0.4638  1.0358 -1.3083
   12SAPS   C37 1560   5.171   3.433   7.347 -0.2045  0.1969 -0.4696
   12SAPS   H7X 1561   5.156   3.326   7.324 -1.3631 -0.1081  1.5026
   12SAPS   H7Y 1562   5.070   3.479   7.334 -1.0750 -1.8618 -1.4856
   12SAPS   C38 1563   5.234   3.460   7.486  0.0490 -0.2695  0.5114
   12SAPS   H8X 1564   5.251   3.569   7.483 -1.0131 -0.1181 -1.5428
   12SAPS   H8Y 1565   5.330   3.406   7.470 -0.5044 -1.4033  0.8702
   12SAPS   C39 1566   5.159   3.402   7.607 -0.1164 -0.1641  0.1178
   12SAPS   H9X 1567   5.130   3.296   7.598 -1.3764  0.1005  0.9457
   12SAPS   H9Y 1568   5.070   3.464   7.632 -0.2401 -0.3760  0.1954
   12SAPS  C310 1569   5.251   3.435   7.729  0.1571  0.5774  0.3573
   12SAPS  H10X 1570   5.267   3.545   7.740  0.6116  0.6677 -1.0253
   12SAPS  H10Y 1571   5.344   3.379   7.706 -0.4658 -0.4498  0.2884
   12SAPS  C311 1572   5.190   3.383   7.864 -0.1023 -0.4769 -0.0046
   12SAPS  H11X 1573   5.152   3.280   7.846 -2.1570  0.1228  0.7063
   12SAPS  H11Y 1574   5.105   3.445   7.897 -0.4278 -2.2684  2.8077
   12SAPS  C312 1575   5.291   3.391   7.979 -0.3108  0.0997  0.4938
   12SAPS  H12X 1576   5.335   3.492   7.996  0.6622  0.2037 -2.1428
   12SAPS  H12Y 1577   5.377   3.325   7.958  0.7456  0.5192  3.1140
   12SAPS  C313 1578   5.228   3.334   8.108  0.3310  0.3692 -0.0315
   12SAPS  H13X 1579   5.187   3.232   8.097  1.3935  0.0610 -1.3917
   12SAPS  H13Y 1580   5.136   3.395   8.121 -0.5649 -0.6145 -1.4663
   12SAPS  C314 1581   5.330   3.334   8.216 -0.1128 -0.0670 -0.4308
   12SAPS  H14X 1582   5.356   3.436   8.249 -0.4788 -0.3853  0.8811
   12SAPS  H14Y 1583   5.420   3.287   8.171  0.5436 -0.8759  1.6364
   12SAPS  C315 1584   5.268   3.262   8.336  0.0648 -0.2091  0.6056
   12SAPS  H15X 1585   5.258   3.157   8.301 -1.8089  0.6352 -1.6612
   12SAPS  H15Y 1586   5.165   3.297   8.360  0.6569  0.9543  1.5226
   12SAPS  C316 1587   5.360   3.288   8.460  0.4931 -0.2687  0.0614
   12SAPS  H16X 1588   5.365   3.396   8.482 -0.4807 -0.4810  1.4582
   12SAPS  H16Y 1589   5.460   3.252   8.429  0.2517 -0.0347 -1.0375
   12SAPS  C317 1590   5.315   3.205   8.580  0.5794  0.5405  0.1630
   12SAPS  H17X 1591   5.268   3.108   8.553  2.1411  0.0376 -0.9146
   12SAPS  H17Y 1592   5.233   3.263   8.628 -0.2406 -0.6620  0.2440
   12SAPS  C318 1593   5.421   3.173   8.680  0.3442 -0.3561  0.0070
   12SAPS  H18X 1594   5.434   3.267   8.739  1.3780  0.3298 -1.2297
   12SAPS  H18Y 1595   5.514   3.140   8.629  0.7959  0.4998  0.2484
   12SAPS  H18Z 1596   5.390   3.090   8.747 -0.8706  1.0721  1.2957
   13SAPS     N 1597   5.532   0.027   6.081  0.0254 -0.0636 -0.2235
   13SAPS   HN1 1598   5.433  -0.005   6.086  0.1203 -0.1525  1.5714
   13SAPS   HN2 1599   5.555   0.057   6.178 -2.6514 -2.3379  1.2716
   13SAPS   HN3 1600   5.541   0.109   6.017  1.5967 -0.4086 -0.4869
   13SAPS   C12 1601   5.622  -0.085   6.055  0.2474 -0.1557  0.2399
   13SAPS  H12A 1602   5.590  -0.159   6.127 -3.1483  1.0988  0.1495
   13SAPS   C13 1603   5.623  -0.142   5.907  0.4320  0.0092  0.4626
   13SAPS  O13A 1604   5.539  -0.099   5.827 -0.2339 -0.4995  0.1783
   13SAPS  O13B 1605   5.676  -0.257   5.896  0.3961 -0.2998 -0.2913
   13SAPS   C11 1606   5.765  -0.043   6.082 -0.4375 -0.5150  0.5400
   13SAPS  H11A 1607   5.828  -0.134   6.076 -0.3327 -0.4798  1.0894
   13SAPS  H11B 1608   5.770   0.008   6.181 -0.4919  2.0994 -0.7146
   13SAPS     P 1609   5.870   0.203   6.023 -0.0966  0.0150  0.0666
   13SAPS   O13 1610   6.001   0.195   6.099  0.2324  0.4638 -0.2819
   13SAPS   O14 1611   5.873   0.284   5.895  0.3322  0.1219 -0.0584
   13SAPS   O12 1612   5.814   0.053   5.982 -0.5603 -0.0340 -0.0725
   13SAPS   O11 1613   5.749   0.259   6.105 -0.5414  0.4023 -0.0441
   13SAPS    C1 1614   5.742   0.388   6.179 -0.4271  0.1676 -0.2979
   13SAPS    HA 1615   5.788   0.461   6.109 -0.6095 -1.4394 -2.1882
   13SAPS    HB 1616   5.635   0.415   6.189 -0.5839  0.4186 -2.3026
   13SAPS    C2 1617   5.829   0.382   6.313 -0.7311 -0.7296  0.2943
   13SAPS    HS 1618   5.934   0.371   6.280 -1.0852  1.7264 -2.0319
   13SAPS   O21 1619   5.792   0.275   6.404  0.0913  0.1977  0.2856
   13SAPS   C21 1620   5.861   0.256   6.512  0.2462 -0.0666  0.3947
   13SAPS   O22 1621   5.957   0.320   6.547 -0.3614 -0.6778  0.0079
   13SAPS   C22 1622   5.796   0.136   6.592  0.7925  0.0893  0.3521
   13SAPS   H2R 1623   5.698   0.119   6.544  1.1336 -1.5822  0.1965
   13SAPS   H2S 1624   5.859   0.046   6.578  1.2992  0.7213 -1.7986
   13SAPS    C3 1625   5.804   0.515   6.396  0.1285  0.3048  0.4907
   13SAPS    HX 1626   5.856   0.595   6.339 -1.0816  0.2653 -0.7237
   13SAPS    HY 1627   5.861   0.518   6.492  1.7029 -0.2676 -0.3864
   13SAPS   O31 1628   5.664   0.532   6.423 -0.2993  0.1745  0.5089
   13SAPS   C31 1629   5.613   0.659   6.443  0.2551  0.5204 -0.1233
   13SAPS   O32 1630   5.668   0.766   6.426 -0.0535  0.0575  0.0783
   13SAPS   C32 1631   5.462   0.636   6.463 -0.3249 -0.2784  0.7563
   13SAPS   H2X 1632   5.424   0.592   6.369  3.0178 -3.2425  0.5874
   13SAPS   H2Y 1633   5.417   0.732   6.496  0.6299 -0.2978  2.2355
   13SAPS   C23 1634   5.783   0.173   6.734 -0.5311  0.1467  0.7372
   13SAPS   H3R 1635   5.719   0.262   6.725  0.2504  0.5007 -2.4732
   13SAPS   H3S 1636   5.879   0.211   6.775  1.8419 -2.7374 -1.6021
   13SAPS   C24 1637   5.716   0.069   6.818 -0.5229  0.0055  0.6487
   13SAPS   H4R 1638   5.632   0.021   6.763 -0.0897 -1.7088  1.4221
   13SAPS   H4S 1639   5.674   0.115   6.910  1.3539  0.3186  1.3916
   13SAPS   C25 1640   5.816  -0.051   6.833 -0.1436  0.3687 -0.3969
   13SAPS   H5R 1641   5.858  -0.087   6.738 -0.9116 -0.5721 -0.3940
   13SAPS   C26 1642   5.848  -0.123   6.939 -0.2556 -0.2289  0.7281
   13SAPS   H6R 1643   5.918  -0.207   6.930  1.6731  1.1654  1.9912
   13SAPS   C27 1644   5.782  -0.108   7.073  0.2323  0.8884 -0.5701
   13SAPS   H7R 1645   5.689  -0.169   7.080  0.8137  0.0858  0.5444
   13SAPS   H7S 1646   5.753  -0.004   7.099 -1.3443  0.1398  0.8862
   13SAPS   C28 1647   5.860  -0.141   7.193 -0.3358 -0.3471 -0.2435
   13SAPS   H8R 1648   5.964  -0.166   7.170 -1.1089 -2.7528 -1.4478
   13SAPS   C29 1649   5.831  -0.125   7.324  0.1136  0.3127  0.1202
   13SAPS   H9R 1650   5.913  -0.136   7.396 -0.3860 -1.4470  0.4941
   13SAPS  C210 1651   5.701  -0.066   7.372  0.1160 -0.0051 -0.0102
   13SAPS  H10R 1652   5.635  -0.082   7.285 -0.4331  0.0911  0.3833
   13SAPS  H10S 1653   5.703   0.043   7.396 -1.1032 -0.3097  1.6758
   13SAPS  C211 1654   5.640  -0.143   7.483 -0.7133 -0.1746 -0.0486
   13SAPS  H11R 1655   5.569  -0.213   7.437 -2.4086  0.3377  1.6593
   13SAPS  C212 1656   5.645  -0.131   7.616 -0.5555  0.4519  0.5008
   13SAPS  H12R 1657   5.580  -0.186   7.686 -0.8782  1.8069  1.3080
   13SAPS  C213 1658   5.737  -0.019   7.678  0.4337  0.4117  0.1626
   13SAPS  H13R 1659   5.787   0.046   7.603 -0.6510  0.3876 -0.6018
   13SAPS  H13S 1660   5.816  -0.077   7.731  0.0337  0.3219  0.6586
   13SAPS  C214 1661   5.679   0.073   7.777 -0.2864  0.4831 -0.2616
   13SAPS  H14R 1662   5.637   0.164   7.732 -2.0127 -0.2418 -0.1911
   13SAPS  C215 1663   5.688   0.061   7.910  0.8892  0.2442  0.4043
   13SAPS  H15R 1664   5.646   0.139   7.975 -1.1799  0.9383 -1.6590
   13SAPS  C216 1665   5.744  -0.055   7.991 -0.0226  0.3342  0.0118
   13SAPS  H16R 1666   5.761  -0.003   8.087  1.1140  0.8623 -0.4509
   13SAPS  H16S 1667   5.843  -0.086   7.950 -0.6932 -1.5993 -0.2434
   13SAPS  C217 1668   5.661  -0.178   8.034  0.0808  0.0150  0.2603
   13SAPS  H17R 1669   5.643  -0.235   7.940  3.2393  0.4217 -0.7370
   13SAPS  H17S 1670   5.564  -0.142   8.073 -0.5704 -1.8327  0.4158
   13SAPS  C218 1671   5.734  -0.252   8.147 -0.5552  0.3467  0.8386
   13SAPS  H18R 1672   5.757  -0.188   8.235 -1.2300  1.4563  0.2315
   13SAPS  H18S 1673   5.833  -0.276   8.102 -0.4027  1.2371  0.6794
   13SAPS  C219 1674   5.663  -0.376   8.192 -0.0555 -0.6002  0.5403
   13SAPS  H19R 1675   5.731  -0.431   8.260  0.4738 -0.1410  0.3881
   13SAPS  H19S 1676   5.646  -0.437   8.101  3.9129 -1.1032 -0.0385
   13SAPS  C220 1677   5.531  -0.341   8.270 -0.2432  0.0677 -0.0944
   13SAPS  H20R 1678   5.560  -0.263   8.344  0.5914  0.7531 -1.1209
   13SAPS  H20S 1679   5.494  -0.434   8.318  0.9974 -0.0804  0.6331
   13SAPS  H20T 1680   5.455  -0.305   8.197  1.0627  2.9250 -0.1742
   13SAPS   C33 1681   5.441   0.534   6.578 -0.0729  0.1656 -0.0307
   13SAPS   H3X 1682   5.478   0.436   6.542 -1.9735 -1.0893  1.2266
   13SAPS   H3Y 1683   5.333   0.508   6.578 -0.2023  0.5973 -1.8720
   13SAPS   C34 1684   5.487   0.578   6.718 -0.3530  0.8099  0.5679
   13SAPS   H4X 1685   5.432   0.664   6.764  0.0285  0.5650  1.5158
   13SAPS   H4Y 1686   5.589   0.621   6.707 -0.3249  0.4410 -0.6910
   13SAPS   C35 1687   5.486   0.462   6.830 -0.1526  0.3222  0.0267
   13SAPS   H5X 1688   5.556   0.384   6.794  2.2517  2.7584 -0.9181
   13SAPS   H5Y 1689   5.380   0.428   6.836 -0.4056  0.4806 -2.5931
   13SAPS   C36 1690   5.537   0.514   6.975 -0.3351 -0.0998  0.8100
   13SAPS   H6X 1691   5.482   0.610   6.987  0.0145  0.3614 -0.9039
   13SAPS   H6Y 1692   5.647   0.527   6.969  0.1082 -3.5576 -2.6632
   13SAPS   C37 1693   5.514   0.414   7.086  1.2203 -0.4465  0.0624
   13SAPS   H7X 1694   5.585   0.330   7.072 -0.2797 -1.6152 -0.9706
   13SAPS   H7Y 1695   5.408   0.381   7.089  0.4708  1.7872  0.3142
   13SAPS   C38 1696   5.539   0.484   7.219 -0.0638  0.0989 -0.4230
   13SAPS   H8X 1697   5.491   0.584   7.220 -0.9017 -0.2974  0.4300
   13SAPS   H8Y 1698   5.647   0.502   7.236 -0.2658 -0.0710  1.2094
   13SAPS   C39 1699   5.500   0.391   7.336 -0.4267 -0.3166 -0.0092
   13SAPS   H9X 1700   5.549   0.294   7.315 -0.7025 -0.4080 -0.2405
   13SAPS   H9Y 1701   5.391   0.367   7.334 -0.5021  0.0759 -0.7771
   13SAPS  C310 1702   5.552   0.447   7.476  0.1542  0.1393  0.1224
   13SAPS  H10X 1703   5.519   0.553   7.478 -1.2236 -0.2531  3.1129
   13SAPS  H10Y 1704   5.662   0.435   7.477  0.2883  0.6289 -2.1551
   13SAPS  C311 1705   5.481   0.365   7.592  0.4113 -0.3795 -0.5312
   13SAPS  H11X 1706   5.506   0.257   7.589  2.2681  0.0421 -0.8880
   13SAPS  H11Y 1707   5.370   0.378   7.588  0.1141 -2.6263 -0.7059
   13SAPS  C312 1708   5.521   0.433   7.729 -0.1720 -0.0041  0.4113
   13SAPS  H12X 1709   5.491   0.540   7.724  0.9804  0.2971 -0.3074
   13SAPS  H12Y 1710   5.630   0.416   7.740 -0.2827 -1.1329 -0.1111
   13SAPS  C313 1711   5.443   0.375   7.837 -0.2048  0.2828 -0.0954
   13SAPS  H13X 1712   5.462   0.266   7.830  0.0693  0.2038  1.5481
   13SAPS  H13Y 1713   5.336   0.396   7.817 -0.1970  1.2702  0.7943
   13SAPS  C314 1714   5.477   0.419   7.978 -0.3093  0.3742 -0.1845
   13SAPS  H14X 1715   5.457   0.526   7.999  1.1152  0.9882 -1.6779
   13SAPS  H14Y 1716   5.584   0.392   7.992 -0.1192  2.3687  3.1442
   13SAPS  C315 1717   5.408   0.333   8.083  0.2547 -0.5742  0.1656
   13SAPS  H15X 1718   5.452   0.232   8.097 -0.4365 -1.1714 -1.7661
   13SAPS  H15Y 1719   5.300   0.315   8.062  0.1156 -0.7639  1.0120
   13SAPS  C316 1720   5.404   0.399   8.222 -0.8900  0.5143  0.0294
   13SAPS  H16X 1721   5.340   0.491   8.224 -1.2014  0.3008  2.5645
   13SAPS  H16Y 1722   5.503   0.437   8.253 -0.3063 -0.3135 -0.7791
   13SAPS  C317 1723   5.360   0.304   8.340 -0.3618 -0.1487  0.8519
   13SAPS  H17X 1724   5.411   0.205   8.332  0.2355  0.1576  0.7970
   13SAPS  H17Y 1725   5.254   0.278   8.318 -0.7807  2.0439  0.0876
   13SAPS  C318 1726   5.380   0.366   8.477  0.6750 -0.4263  0.3726
   13SAPS  H18X 1727   5.311   0.453   8.476  1.4955  0.2541 -1.2962
   13SAPS  H18Y 1728   5.481   0.408   8.496  0.0863  1.0914  0.2568
   13SAPS  H18Z 1729   5.339   0.304   8.560 -2.3618 -2.0837 -2.1452
   14SAPS     N 1730   3.836   2.549   6.206  0.4703  0.2569  0.1275
   14SAPS   HN1 1731   3.763   2.588   6.270 -0.3353 -0.5277 -0.2959
   14SAPS   HN2 1732   3.844   2.618   6.128 -1.0216  0.7605  0.3932
   14SAPS   HN3 1733   3.792   2.465   6.163  0.6170 -0.5029  1.3929
   14SAPS   C12 1734   3.960   2.519   6.274  0.7060 -0.0785  0.4133
   14SAPS  H12A 1735   3.921   2.463   6.358 -1.6127 -0.3662 -0.7573
   14SAPS   C13 1736   4.057   2.442   6.180 -0.1294  0.7496 -0.2100
   14SAPS  O13A 1737   4.028   2.433   6.060  0.6147  0.0838  0.5687
   14SAPS  O13B 1738   4.158   2.379   6.228 -0.0991  0.1007 -0.5009
   14SAPS   C11 1739   4.021   2.653   6.341 -0.0357 -0.7167  0.5373
   14SAPS  H11A 1740   4.121   2.635   6.387  1.1312  2.2119 -0.5815
   14SAPS  H11B 1741   3.956   2.685   6.425  0.5749  0.6806  0.5202
   14SAPS     P 1742   4.162   2.847   6.210  0.4096 -0.2735 -0.2588
   14SAPS   O13 1743   4.202   2.832   6.069  0.5890  0.3206  0.5849
   14SAPS   O14 1744   4.128   2.979   6.267  0.5518  0.1411 -0.6649
   14SAPS   O12 1745   4.039   2.755   6.244  0.1685 -0.4269  0.5276
   14SAPS   O11 1746   4.268   2.785   6.296  0.0300 -0.6608  0.5993
   14SAPS    C1 1747   4.382   2.863   6.322 -0.6816 -0.7701  0.1519
   14SAPS    HA 1748   4.422   2.912   6.230  0.8799 -2.0433  0.1000
   14SAPS    HB 1749   4.367   2.929   6.410  1.6990 -0.7613  0.6265
   14SAPS    C2 1750   4.493   2.773   6.379  0.1640 -0.0423  0.3098
   14SAPS    HS 1751   4.549   2.715   6.302 -0.5899 -2.9621  1.8011
   14SAPS   O21 1752   4.449   2.685   6.484  0.1053  0.3611  0.4036
   14SAPS   C21 1753   4.525   2.584   6.511  0.4103  0.4725 -0.0297
   14SAPS   O22 1754   4.630   2.549   6.458  0.2120 -0.2573 -0.1967
   14SAPS   C22 1755   4.461   2.521   6.640  0.7105  0.4983 -0.1263
   14SAPS   H2R 1756   4.467   2.599   6.719 -0.4175  1.5032 -1.0010
   14SAPS   H2S 1757   4.353   2.510   6.617  0.7193 -0.4566  0.2332
   14SAPS    C3 1758   4.613   2.866   6.429 -0.6431  0.8647 -0.8257
   14SAPS    HX 1759   4.648   2.917   6.337  0.6007 -1.0833 -1.4994
   14SAPS    HY 1760   4.688   2.792   6.465 -2.1808 -1.2211 -1.6999
   14SAPS   O31 1761   4.575   2.970   6.530  0.2675  0.0159 -0.1075
   14SAPS   C31 1762   4.571   2.917   6.657  0.3069  0.5837  0.4201
   14SAPS   O32 1763   4.602   2.802   6.694 -0.0181 -0.4516 -0.1121
   14SAPS   C32 1764   4.532   3.029   6.755  0.1603 -0.1022 -0.2867
   14SAPS   H2X 1765   4.478   3.107   6.698 -0.5754 -0.1809  0.2934
   14SAPS   H2Y 1766   4.627   3.063   6.802  0.8771 -1.9711 -0.2773
   14SAPS   C23 1767   4.519   2.384   6.685 -0.5210 -0.1673  0.0717
   14SAPS   H3R 1768   4.624   2.400   6.716 -0.6739 -1.8298  1.5622
   14SAPS   H3S 1769   4.517   2.331   6.588 -1.3803 -2.0439  1.0546
   14SAPS   C24 1770   4.434   2.325   6.797 -0.8040  0.0692 -0.2381
   14SAPS   H4R 1771   4.326   2.336   6.778 -0.6411  1.6710 -0.3234
   14SAPS   H4S 1772   4.448   2.387   6.888  0.9084 -1.2894  0.4954
   14SAPS   C25 1773   4.464   2.181   6.825 -0.4014  0.4009 -0.4809
   14SAPS   H5R 1774   4.463   2.112   6.739 -3.3223  0.5526 -0.6864
   14SAPS   C26 1775   4.452   2.126   6.949 -1.7178 -0.1867 -0.1615
   14SAPS   H6R 1776   4.457   2.017   6.967 -0.7498 -0.6876 -3.0150
   14SAPS   C27 1777   4.415   2.197   7.078  0.1296  0.5970 -0.6105
   14SAPS   H7R 1778   4.346   2.135   7.138 -1.0255  1.0538 -1.4234
   14SAPS   H7S 1779   4.357   2.291   7.060 -0.1500  0.2914 -1.3681
   14SAPS   C28 1780   4.521   2.234   7.174 -0.0880 -0.5033  0.3468
   14SAPS   H8R 1781   4.582   2.315   7.132  0.0578 -1.5773 -1.6499
   14SAPS   C29 1782   4.541   2.189   7.299 -0.3897 -0.6335  0.3719
   14SAPS   H9R 1783   4.635   2.220   7.348 -1.5598  1.5310  1.4109
   14SAPS  C210 1784   4.455   2.090   7.372  0.1456  0.2028 -0.5238
   14SAPS  H10R 1785   4.506   1.991   7.372  0.6996  0.4819 -0.6964
   14SAPS  H10S 1786   4.360   2.072   7.319  0.6325 -1.0345 -1.0121
   14SAPS  C211 1787   4.428   2.130   7.517 -0.1702 -0.3194 -0.5199
   14SAPS  H11R 1788   4.321   2.152   7.530 -0.1074  2.6241 -3.6519
   14SAPS  C212 1789   4.509   2.150   7.627 -0.2633 -0.0073 -0.1145
   14SAPS  H12R 1790   4.459   2.165   7.723 -0.5468  1.1874 -0.4393
   14SAPS  C213 1791   4.660   2.139   7.623  0.1496  0.1283  0.2418
   14SAPS  H13R 1792   4.702   2.171   7.721  0.9298 -1.9619  0.6485
   14SAPS  H13S 1793   4.710   2.197   7.542  0.5910 -1.5152 -0.7092
   14SAPS  C214 1794   4.702   1.995   7.612 -1.4240 -0.1463 -0.9675
   14SAPS  H14R 1795   4.712   1.950   7.512 -1.8029 -1.1316 -0.5780
   14SAPS  C215 1796   4.691   1.896   7.710 -0.1449  0.1996 -0.1157
   14SAPS  H15R 1797   4.737   1.799   7.688  0.9366  0.5332  0.6173
   14SAPS  C216 1798   4.641   1.907   7.855 -0.1171  0.3145 -0.3971
   14SAPS  H16R 1799   4.534   1.881   7.866  0.2284 -1.1658 -0.3618
   14SAPS  H16S 1800   4.663   2.009   7.894  0.7417 -0.2427  0.6276
   14SAPS  C217 1801   4.699   1.799   7.949  0.1818 -0.3662 -0.2236
   14SAPS  H17R 1802   4.807   1.819   7.967 -0.3757 -0.1526  3.7595
   14SAPS  H17S 1803   4.689   1.695   7.910 -0.8882  0.7377 -3.1061
   14SAPS  C218 1804   4.639   1.802   8.083 -0.3186 -0.1910 -0.4682
   14SAPS  H18R 1805   4.528   1.790   8.085 -0.1988 -1.8523 -1.3891
   14SAPS  H18S 1806   4.658   1.906   8.116 -0.8226  0.4285 -2.0449
   14SAPS  C219 1807   4.707   1.709   8.194 -0.4141 -0.6432  0.0923
   14SAPS  H19R 1808   4.645   1.728   8.285  0.5152  1.8073  0.2639
   14SAPS  H19S 1809   4.808   1.741   8.225 -1.2299  0.4285  1.8053
   14SAPS  C220 1810   4.716   1.559   8.159  0.2852 -0.0992  1.3514
   14SAPS  H20R 1811   4.786   1.536   8.076 -0.4072  1.4436  0.3067
   14SAPS  H20S 1812   4.617   1.519   8.132  0.9135 -0.0121 -1.3079
   14SAPS  H20T 1813   4.752   1.505   8.249  0.1376 -0.3640  1.2508
   14SAPS   C33 1814   4.436   2.996   6.877 -0.2507 -0.1378  0.1785
   14SAPS   H3X 1815   4.472   2.906   6.929 -0.8252 -1.2229 -1.2370
   14SAPS   H3Y 1816   4.338   2.965   6.835  0.0392 -0.7295 -0.0582
   14SAPS   C34 1817   4.413   3.126   6.966 -0.2061  0.5976  0.4514
   14SAPS   H4X 1818   4.340   3.175   6.897  1.8542 -0.0438 -2.3348
   14SAPS   H4Y 1819   4.502   3.189   6.986 -0.0147  0.4817 -0.0283
   14SAPS   C35 1820   4.343   3.094   7.106 -0.2008  0.5639  1.0385
   14SAPS   H5X 1821   4.257   3.030   7.073  0.0169 -0.1360  1.7975
   14SAPS   H5Y 1822   4.307   3.192   7.142  1.3298  1.2917  0.6668
   14SAPS   C36 1823   4.434   3.026   7.207 -0.3400 -0.5212  0.3129
   14SAPS   H6X 1824   4.533   3.073   7.189 -0.5421  0.3089  1.2998
   14SAPS   H6Y 1825   4.445   2.918   7.181 -0.5584 -0.9077  1.7813
   14SAPS   C37 1826   4.388   3.045   7.352 -1.7551  0.5337  0.0549
   14SAPS   H7X 1827   4.279   3.026   7.346 -1.4601 -0.9186 -1.1914
   14SAPS   H7Y 1828   4.404   3.147   7.393 -0.4435  0.4904 -0.2807
   14SAPS   C38 1829   4.476   2.960   7.453 -0.2761  0.3735 -0.4459
   14SAPS   H8X 1830   4.577   3.004   7.464  1.1561 -2.9030  0.7588
   14SAPS   H8Y 1831   4.494   2.855   7.423  1.1936  0.6532 -0.6036
   14SAPS   C39 1832   4.417   2.951   7.596  0.1171 -0.3407 -0.3655
   14SAPS   H9X 1833   4.501   2.912   7.659  0.2343 -1.9449 -1.4613
   14SAPS   H9Y 1834   4.328   2.887   7.606 -0.2116  0.2665  0.7109
   14SAPS  C310 1835   4.369   3.085   7.654  0.4492  0.8018 -0.7911
   14SAPS  H10X 1836   4.298   3.146   7.593  0.4510  1.5680 -0.0567
   14SAPS  H10Y 1837   4.461   3.146   7.663 -0.3468  2.0103 -0.5633
   14SAPS  C311 1838   4.315   3.064   7.796  0.2147 -0.1417  0.1768
   14SAPS  H11X 1839   4.383   2.993   7.848 -0.7155  0.3254  2.1096
   14SAPS  H11Y 1840   4.219   3.012   7.775 -0.1818 -0.3642  2.3494
   14SAPS  C312 1841   4.320   3.193   7.887  0.2210  0.0632 -0.8079
   14SAPS  H12X 1842   4.227   3.254   7.879  0.2397  0.3046  0.5586
   14SAPS  H12Y 1843   4.405   3.258   7.856  0.1260 -0.4389 -2.1853
   14SAPS  C313 1844   4.349   3.157   8.039  0.6253  0.1138  0.1241
   14SAPS  H13X 1845   4.431   3.081   8.041  0.1733 -0.4006 -0.4355
   14SAPS  H13Y 1846   4.257   3.113   8.084 -0.2613 -0.7929 -2.4253
   14SAPS  C314 1847   4.403   3.263   8.124 -0.5091 -0.0386  0.4496
   14SAPS  H14X 1848   4.333   3.349   8.125 -0.8644 -0.2887 -0.9226
   14SAPS  H14Y 1849   4.502   3.295   8.085 -1.4928  1.6786 -0.7742
   14SAPS  C315 1850   4.419   3.213   8.272 -0.0893  0.1576  0.3659
   14SAPS  H15X 1851   4.480   3.120   8.276  0.1380  0.1625 -1.7757
   14SAPS  H15Y 1852   4.319   3.184   8.312 -0.6616  1.6582  0.0845
   14SAPS  C316 1853   4.469   3.308   8.379  0.0085  0.0459 -0.4278
   14SAPS  H16X 1854   4.405   3.298   8.469  0.3112 -1.0703 -0.3267
   14SAPS  H16Y 1855   4.458   3.414   8.347  0.3725 -0.3243 -1.8407
   14SAPS  C317 1856   4.609   3.278   8.442  0.4971  0.7879  0.5154
   14SAPS  H17X 1857   4.675   3.229   8.368  0.0322 -3.6269  2.7228
   14SAPS  H17Y 1858   4.607   3.199   8.519  1.4088  0.2825  0.0282
   14SAPS  C318 1859   4.674   3.407   8.494 -0.0287 -0.7549  0.2257
   14SAPS  H18X 1860   4.623   3.442   8.586  1.1337  0.4068  0.4684
   14SAPS  H18Y 1861   4.675   3.482   8.413  0.8978 -0.7784  0.2060
   14SAPS  H18Z 1862   4.779   3.387   8.526  0.4791  1.3678 -0.0087
   15SAPS     N 1863   5.504   1.327   5.929  0.2787  0.5300  0.2309
   15SAPS   HN1 1864   5.437   1.339   6.008 -1.6794 -0.9214 -1.1162
   15SAPS   HN2 1865   5.578   1.256   5.950  0.9997  1.3112  0.3812
   15SAPS   HN3 1866   5.556   1.416   5.921  1.3620 -0.0684  0.3217
   15SAPS   C12 1867   5.434   1.284   5.804 -0.2375 -0.4156  0.8628
   15SAPS  H12A 1868   5.359   1.361   5.788 -0.8647 -0.9877  1.0234
   15SAPS   C13 1869   5.529   1.275   5.679  0.0206 -0.1104 -0.5051
   15SAPS  O13A 1870   5.645   1.320   5.695  0.0809 -0.0102 -0.0317
   15SAPS  O13B 1871   5.472   1.268   5.567 -0.1779 -0.3610 -0.2737
   15SAPS   C11 1872   5.357   1.151   5.831  0.0134 -0.1438  0.0754
   15SAPS  H11A 1873   5.431   1.077   5.867  1.8698  0.9617 -1.3041
   15SAPS  H11B 1874   5.313   1.126   5.732 -1.6298  0.3760  0.6494
   15SAPS     P 1875   5.154   1.054   5.970 -0.2853 -0.2430 -0.1589
   15SAPS   O13 1876   5.027   1.109   6.020  0.3851  0.2954 -0.1208
   15SAPS   O14 1877   5.147   0.954   5.863  0.7808 -0.2539 -0.0345
   15SAPS   O12 1878   5.252   1.168   5.929 -0.3975 -0.0074  0.0109
   15SAPS   O11 1879   5.227   0.984   6.090 -0.2808 -0.3033 -0.3593
   15SAPS    C1 1880   5.336   1.044   6.170 -0.4671 -0.8146  0.0019
   15SAPS    HA 1881   5.425   0.977   6.178  1.1019  1.1515 -0.3501
   15SAPS    HB 1882   5.381   1.139   6.135 -2.6318  0.2799  0.0432
   15SAPS    C2 1883   5.310   1.067   6.323  0.3505 -0.0859  0.2233
   15SAPS    HS 1884   5.315   0.968   6.373  0.1377  1.4272  3.4686
   15SAPS   O21 1885   5.190   1.138   6.346  0.3561 -0.0684 -0.6911
   15SAPS   C21 1886   5.077   1.076   6.356  0.3314  0.6897  0.4081
   15SAPS   O22 1887   5.054   0.953   6.352 -0.6456 -0.3811 -0.5626
   15SAPS   C22 1888   4.972   1.182   6.359 -0.5129 -0.0500  0.5170
   15SAPS   H2R 1889   5.018   1.281   6.341  2.0307 -1.2825 -0.0834
   15SAPS   H2S 1890   4.903   1.178   6.272  2.0467 -0.5784 -1.5977
   15SAPS    C3 1891   5.424   1.141   6.392 -0.1014  0.1201  0.0890
   15SAPS    HX 1892   5.434   1.246   6.357  0.3893 -0.4113 -1.4633
   15SAPS    HY 1893   5.517   1.085   6.371 -0.5490 -0.3520 -0.6826
   15SAPS   O31 1894   5.412   1.138   6.534  0.1473  0.0356 -0.4991
   15SAPS   C31 1895   5.352   1.240   6.594 -0.0949  0.2255  0.5753
   15SAPS   O32 1896   5.307   1.340   6.541 -0.6019 -0.0277  0.1194
   15SAPS   C32 1897   5.346   1.212   6.744  0.4348 -0.3573 -1.0685
   15SAPS   H2X 1898   5.387   1.110   6.763  0.1025 -0.1074  1.1815
   15SAPS   H2Y 1899   5.240   1.214   6.777  0.7014  0.4626 -0.2374
   15SAPS   C23 1900   4.887   1.169   6.490  0.4685 -0.6586  0.3850
   15SAPS   H3R 1901   4.827   1.075   6.496 -0.3152 -0.0744  3.0545
   15SAPS   H3S 1902   4.806   1.243   6.472  2.0134  1.1341  0.5677
   15SAPS   C24 1903   4.960   1.203   6.627  0.2454  0.0110 -0.1718
   15SAPS   H4R 1904   5.046   1.134   6.639 -1.6507 -2.1919  1.8427
   15SAPS   H4S 1905   4.888   1.169   6.705 -0.4103 -1.6449 -1.4392
   15SAPS   C25 1906   4.997   1.348   6.643 -0.0547  0.3971  0.2278
   15SAPS   H5R 1907   5.049   1.397   6.559  3.0600 -0.3280  1.6106
   15SAPS   C26 1908   4.956   1.420   6.751  0.3327  0.5092 -0.8188
   15SAPS   H6R 1909   4.984   1.527   6.758  1.3873  0.1546  0.8616
   15SAPS   C27 1910   4.888   1.366   6.873  0.2209  0.5834 -0.0733
   15SAPS   H7R 1911   4.806   1.301   6.834 -0.2248  0.7272  0.6122
   15SAPS   H7S 1912   4.829   1.443   6.927 -0.9333  0.1749 -0.7054
   15SAPS   C28 1913   4.991   1.302   6.968 -0.1269 -0.5477  0.7502
   15SAPS   H8R 1914   5.089   1.350   6.957 -0.5333  0.1693  0.1808
   15SAPS   C29 1915   4.967   1.205   7.058 -0.1800  0.2325  0.0142
   15SAPS   H9R 1916   5.051   1.175   7.122 -0.0619  1.2671  0.3611
   15SAPS  C210 1917   4.829   1.143   7.084 -0.7316  0.0684  0.3214
   15SAPS  H10R 1918   4.750   1.147   7.006 -1.4659 -0.6019  1.0081
   15SAPS  H10S 1919   4.801   1.204   7.172  0.7661  1.1628  0.0838
   15SAPS  C211 1920   4.829   0.999   7.132 -0.0178 -0.6685  0.1183
   15SAPS  H11R 1921   4.775   0.931   7.065  0.7970 -0.3092 -0.9215
   15SAPS  C212 1922   4.892   0.953   7.244 -0.4750  0.6340 -0.1775
   15SAPS  H12R 1923   4.865   0.853   7.283 -0.2862  1.4609  2.2887
   15SAPS  C213 1924   4.980   1.030   7.347  0.0967 -0.1214  0.0891
   15SAPS  H13R 1925   4.959   1.139   7.336 -3.1562 -0.7779 -1.7695
   15SAPS  H13S 1926   5.089   1.016   7.333  0.0359 -1.6809  0.9584
   15SAPS  C214 1927   4.947   0.990   7.488 -0.0164 -0.4975 -0.5438
   15SAPS  H14R 1928   5.012   0.913   7.532  0.7334 -0.4370 -1.5011
   15SAPS  C215 1929   4.853   1.039   7.570 -0.0226  0.2747 -0.1489
   15SAPS  H15R 1930   4.856   1.002   7.674  1.9283  0.6983 -0.0155
   15SAPS  C216 1931   4.744   1.137   7.537 -0.2487 -0.4742 -0.2272
   15SAPS  H16R 1932   4.649   1.096   7.577 -0.1030  0.2898  0.9381
   15SAPS  H16S 1933   4.721   1.143   7.428  0.3661 -0.6943 -0.3772
   15SAPS  C217 1934   4.762   1.286   7.580  0.3677  0.1689  0.5807
   15SAPS  H17R 1935   4.829   1.342   7.511 -0.7173  0.4618 -0.2603
   15SAPS  H17S 1936   4.796   1.286   7.686  1.0985 -1.9196  0.3926
   15SAPS  C218 1937   4.625   1.360   7.563  0.2672  0.4702 -0.7528
   15SAPS  H18R 1938   4.553   1.295   7.617  2.1680  1.2684  3.0738
   15SAPS  H18S 1939   4.597   1.358   7.455  0.1160  0.3718 -0.7114
   15SAPS  C219 1940   4.625   1.504   7.615  0.1397 -0.7300  0.5085
   15SAPS  H19R 1941   4.687   1.575   7.556 -1.4387 -0.2065 -0.6100
   15SAPS  H19S 1942   4.666   1.506   7.718 -0.7989  0.0464  0.8908
   15SAPS  C220 1943   4.484   1.566   7.611 -0.2491  0.1909 -0.0546
   15SAPS  H20R 1944   4.483   1.673   7.639 -2.5356 -0.4272  2.6220
   15SAPS  H20S 1945   4.414   1.517   7.683 -1.0740 -1.2726 -1.7628
   15SAPS  H20T 1946   4.445   1.552   7.508  0.6341  0.0324 -0.3784
   15SAPS   C33 1947   5.431   1.323   6.818  0.0320 -0.3286 -0.2196
   15SAPS   H3X 1948   5.375   1.418   6.828  0.9794  0.3586 -1.3378
   15SAPS   H3Y 1949   5.519   1.349   6.756  0.4533 -0.0608  0.4729
   15SAPS   C34 1950   5.483   1.288   6.959  0.9761 -1.0409  0.6286
   15SAPS   H4X 1951   5.560   1.355   7.000  0.7186 -0.8302  0.7669
   15SAPS   H4Y 1952   5.532   1.189   6.944  0.0092 -1.1865 -2.1957
   15SAPS   C35 1953   5.376   1.285   7.061 -0.8739 -0.4974 -0.0685
   15SAPS   H5X 1954   5.284   1.230   7.031 -1.4439 -0.2294  1.1198
   15SAPS   H5Y 1955   5.341   1.389   7.080  0.3000  0.6878 -3.6828
   15SAPS   C36 1956   5.433   1.231   7.188 -0.6949 -0.3018  0.4122
   15SAPS   H6X 1957   5.525   1.289   7.213 -0.8469 -0.8669  2.3924
   15SAPS   H6Y 1958   5.470   1.127   7.175 -0.3219  0.1247 -2.7597
   15SAPS   C37 1959   5.343   1.253   7.310  0.2652  0.5058  0.0316
   15SAPS   H7X 1960   5.255   1.188   7.289 -1.3785  1.6851  2.6426
   15SAPS   H7Y 1961   5.306   1.357   7.321 -3.6633 -0.7599  0.3944
   15SAPS   C38 1962   5.411   1.222   7.443  0.2871  0.0955 -0.5110
   15SAPS   H8X 1963   5.489   1.300   7.459  0.1857  0.0124  0.4155
   15SAPS   H8Y 1964   5.467   1.126   7.434 -1.5251 -1.0658  0.0645
   15SAPS   C39 1965   5.333   1.195   7.569 -0.1952 -1.4382  0.5821
   15SAPS   H9X 1966   5.253   1.120   7.551 -1.0634 -0.8011  1.7167
   15SAPS   H9Y 1967   5.283   1.290   7.599  0.9427 -0.4897 -0.4053
   15SAPS  C310 1968   5.414   1.160   7.692 -0.2015  0.3242  0.1185
   15SAPS  H10X 1969   5.493   1.237   7.702  2.4813 -2.3929  1.6398
   15SAPS  H10Y 1970   5.465   1.062   7.676  0.1694  0.5849 -0.3282
   15SAPS  C311 1971   5.332   1.164   7.827  0.2906  0.2991  0.2338
   15SAPS  H11X 1972   5.252   1.088   7.813 -1.0827  1.7039  0.1780
   15SAPS  H11Y 1973   5.286   1.264   7.839 -3.4498 -0.8847 -2.2341
   15SAPS  C312 1974   5.434   1.140   7.936 -0.1764 -0.2386  0.1673
   15SAPS  H12X 1975   5.509   1.222   7.940  0.8121 -1.0294 -1.1984
   15SAPS  H12Y 1976   5.487   1.045   7.910  0.1840 -0.1909  0.7110
   15SAPS  C313 1977   5.374   1.134   8.078 -0.3156 -0.2105 -0.6695
   15SAPS  H13X 1978   5.293   1.058   8.074  0.7215 -1.3000 -3.1140
   15SAPS  H13Y 1979   5.322   1.231   8.091 -0.1351 -0.0187 -1.3396
   15SAPS  C314 1980   5.473   1.092   8.186  0.9306 -0.0102 -0.0095
   15SAPS  H14X 1981   5.546   1.174   8.172 -0.6029  1.8011  1.8459
   15SAPS  H14Y 1982   5.519   0.993   8.167 -0.8459 -0.7263 -0.7886
   15SAPS  C315 1983   5.405   1.112   8.323 -0.2454 -0.7443  0.2049
   15SAPS  H15X 1984   5.316   1.045   8.319 -0.0869 -1.0708  1.6079
   15SAPS  H15Y 1985   5.367   1.216   8.319  1.9045  0.0399 -1.2809
   15SAPS  C316 1986   5.501   1.105   8.435  0.3201  0.2116  0.1701
   15SAPS  H16X 1987   5.589   1.170   8.412 -0.1481  1.0940  0.8293
   15SAPS  H16Y 1988   5.535   1.000   8.453  2.3456  0.7956  0.0324
   15SAPS  C317 1989   5.433   1.174   8.560 -0.9514  0.1172 -0.0950
   15SAPS  H17X 1990   5.328   1.138   8.565 -1.3808  1.2057 -0.7456
   15SAPS  H17Y 1991   5.421   1.279   8.525 -1.2700  0.3670  0.7425
   15SAPS  C318 1992   5.493   1.156   8.700  0.4430  0.6794  0.3607
   15SAPS  H18X 1993   5.595   1.198   8.707  1.0885 -0.6578 -0.7088
   15SAPS  H18Y 1994   5.522   1.050   8.716 -0.3825  0.4916  0.6726
   15SAPS  H18Z 1995   5.419   1.199   8.771  0.4227 -2.1991  2.2769
   16SAPS     N 1996   4.155   4.627   6.248  0.3245 -0.6702 -0.6463
   16SAPS   HN1 1997   4.108   4.571   6.323  1.1537 -0.3038  0.1621
   16SAPS   HN2 1998   4.144   4.580   6.156 -0.1081 -0.3314 -0.7751
   16SAPS   HN3 1999   4.256   4.630   6.272  0.5109 -0.0098 -1.4613
   16SAPS   C12 2000   4.097   4.764   6.252 -0.3042 -0.1608 -0.2819
   16SAPS  H12A 2001   4.171   4.827   6.205  0.2050 -1.0998 -0.7611
   16SAPS   C13 2002   3.967   4.780   6.169  0.6374 -0.2405  0.5763
   16SAPS  O13A 2003   3.936   4.688   6.090 -0.5259  0.1742 -0.4364
   16SAPS  O13B 2004   3.913   4.894   6.146  0.9277  0.1980  0.4233
   16SAPS   C11 2005   4.052   4.803   6.396 -0.2440  1.1185 -0.4827
   16SAPS  H11A 2006   4.032   4.913   6.392  1.8993  1.8512  3.7808
   16SAPS  H11B 2007   4.140   4.800   6.464  0.4672  0.9298 -1.3913
   16SAPS     P 2008   3.859   4.771   6.557 -0.2162  0.4536 -0.2415
   16SAPS   O13 2009   3.773   4.884   6.501 -0.1664  0.8853  0.1641
   16SAPS   O14 2010   3.779   4.654   6.608  0.3099 -0.0105  0.0518
   16SAPS   O12 2011   3.950   4.718   6.442 -0.1062 -0.2023  0.2282
   16SAPS   O11 2012   3.968   4.826   6.663 -0.1519 -0.2166  0.1210
   16SAPS    C1 2013   4.036   4.737   6.750  0.1148  0.1633  0.2201
   16SAPS    HA 2014   4.000   4.632   6.742 -1.9954  0.6470  2.0706
   16SAPS    HB 2015   4.141   4.732   6.715  0.2591  0.6175  0.5714
   16SAPS    C2 2016   4.037   4.785   6.896  0.4232  0.8860 -0.3765
   16SAPS    HS 2017   4.117   4.733   6.954  0.5876  1.1573 -0.3575
   16SAPS   O21 2018   3.900   4.766   6.948 -0.0172  0.4888 -0.0763
   16SAPS   C21 2019   3.887   4.652   7.009 -0.5541  1.0646 -0.5648
   16SAPS   O22 2020   3.978   4.584   7.053  0.0326  0.1657  0.8563
   16SAPS   C22 2021   3.741   4.603   7.015 -0.1249  0.1240 -0.7063
   16SAPS   H2R 2022   3.667   4.682   6.989 -0.3138 -0.5197 -2.1924
   16SAPS   H2S 2023   3.737   4.517   6.944  0.3949 -1.0745  0.6667
   16SAPS    C3 2024   4.066   4.936   6.918 -0.4631 -0.0873  0.8301
   16SAPS    HX 2025   3.978   4.990   6.878  0.3145  1.7321  1.4573
   16SAPS    HY 2026   4.158   4.963   6.861 -1.2759  1.6435  0.2655
   16SAPS   O31 2027   4.101   4.961   7.057 -0.0615  0.0007 -0.1500
   16SAPS   C31 2028   4.099   5.092   7.087 -0.2509  0.9003  0.2230
   16SAPS   O32 2029   4.073   5.188   7.018 -0.4316  0.0588  0.5608
   16SAPS   C32 2030   4.148   5.110   7.226  0.0678 -1.0997  1.0273
   16SAPS   H2X 2031   4.251   5.071   7.240  1.1494  1.4286  0.7076
   16SAPS   H2Y 2032   4.074   5.060   7.293 -0.0275 -0.6387  1.2691
   16SAPS   C23 2033   3.719   4.537   7.148  0.2224 -0.1050 -0.3015
   16SAPS   H3R 2034   3.806   4.473   7.174  1.0258  1.2589  0.4415
   16SAPS   H3S 2035   3.629   4.471   7.146  0.6744 -0.7821  0.5545
   16SAPS   C24 2036   3.692   4.651   7.249  0.3823  0.0379 -0.0578
   16SAPS   H4R 2037   3.590   4.687   7.224  0.3992 -0.9470 -1.7285
   16SAPS   H4S 2038   3.771   4.729   7.240  2.0505 -1.6353 -0.7325
   16SAPS   C25 2039   3.705   4.586   7.389  0.5836  0.0493 -0.0989
   16SAPS   H5R 2040   3.800   4.553   7.432  0.3228  0.4278  0.7929
   16SAPS   C26 2041   3.604   4.570   7.475  0.2299 -0.0316  0.7532
   16SAPS   H6R 2042   3.619   4.504   7.562  1.0901  1.7619  2.0135
   16SAPS   C27 2043   3.464   4.625   7.461 -0.0647  0.1427 -0.1989
   16SAPS   H7R 2044   3.394   4.542   7.485  0.9587 -0.7413 -0.2364
   16SAPS   H7S 2045   3.447   4.661   7.357  0.4024  1.0191  0.0185
   16SAPS   C28 2046   3.435   4.739   7.551  0.0999 -0.1922  0.0064
   16SAPS   H8R 2047   3.419   4.833   7.497 -0.4830 -0.8443 -1.0104
   16SAPS   C29 2048   3.420   4.737   7.687  0.0659  0.2847 -0.1864
   16SAPS   H9R 2049   3.384   4.826   7.741 -1.7924  0.3044 -1.3745
   16SAPS  C210 2050   3.434   4.618   7.774  0.8712  0.7179 -0.5962
   16SAPS  H10R 2051   3.371   4.537   7.733 -1.4887  1.4155  1.3801
   16SAPS  H10S 2052   3.385   4.644   7.871 -1.2648 -0.0209 -1.4209
   16SAPS  C211 2053   3.572   4.572   7.819 -0.0815  0.6844  0.1466
   16SAPS  H11R 2054   3.647   4.650   7.838  2.5999 -1.9622  1.2122
   16SAPS  C212 2055   3.611   4.448   7.832  0.2963  0.5680 -0.2812
   16SAPS  H12R 2056   3.710   4.433   7.877 -1.3725 -0.9979  3.2172
   16SAPS  C213 2057   3.535   4.314   7.814 -0.2285 -0.5921  0.4081
   16SAPS  H13R 2058   3.482   4.331   7.718  0.1856 -1.0486  0.0966
   16SAPS  H13S 2059   3.451   4.293   7.883  0.5349  0.8770  1.8667
   16SAPS  C214 2060   3.632   4.199   7.816 -0.1318 -0.9072 -0.2061
   16SAPS  H14R 2061   3.672   4.182   7.917  1.9045  1.9767 -0.4391
   16SAPS  C215 2062   3.673   4.129   7.710  0.1365  0.2213 -0.2513
   16SAPS  H15R 2063   3.745   4.047   7.721 -1.2369 -1.5280 -3.0164
   16SAPS  C216 2064   3.620   4.144   7.570  0.4343 -0.1665  0.5108
   16SAPS  H16R 2065   3.546   4.227   7.568  1.2230  0.5413  0.0677
   16SAPS  H16S 2066   3.562   4.057   7.531 -1.3399  1.6670 -1.1921
   16SAPS  C217 2067   3.736   4.195   7.480  0.4954 -0.1594 -0.3979
   16SAPS  H17R 2068   3.833   4.145   7.501 -0.1707 -0.3220  2.9744
   16SAPS  H17S 2069   3.766   4.302   7.491  0.6558  0.0776 -2.7042
   16SAPS  C218 2070   3.696   4.168   7.337  0.1663  0.1068  0.1327
   16SAPS  H18R 2071   3.613   4.235   7.308  0.2343  1.1885  2.2606
   16SAPS  H18S 2072   3.665   4.061   7.335 -0.7318  0.3163  1.6404
   16SAPS  C219 2073   3.821   4.169   7.247  0.1878 -0.5343 -0.2801
   16SAPS  H19R 2074   3.889   4.087   7.279  1.7631  1.0221  0.5638
   16SAPS  H19S 2075   3.867   4.269   7.259  0.4498 -0.6078 -0.6485
   16SAPS  C220 2076   3.801   4.164   7.095 -0.4274  0.1126 -0.4618
   16SAPS  H20R 2077   3.779   4.266   7.056  1.2194  0.0148 -1.7624
   16SAPS  H20S 2078   3.721   4.094   7.064 -0.9571 -0.3882  1.8955
   16SAPS  H20T 2079   3.894   4.131   7.044 -0.2951  0.2741 -0.3266
   16SAPS   C33 2080   4.173   5.260   7.270  0.2534  0.8382  0.1080
   16SAPS   H3X 2081   4.079   5.315   7.249  0.4203  0.4699 -1.7927
   16SAPS   H3Y 2082   4.261   5.295   7.211  1.7333 -3.2800 -0.4044
   16SAPS   C34 2083   4.200   5.271   7.427  0.1147 -0.4333 -0.2447
   16SAPS   H4X 2084   4.215   5.379   7.446 -3.2608 -0.0801  1.0639
   16SAPS   H4Y 2085   4.294   5.214   7.442  0.6977  0.2185 -1.2844
   16SAPS   C35 2086   4.085   5.218   7.525 -0.1237 -0.5981 -0.3857
   16SAPS   H5X 2087   4.100   5.109   7.542 -1.2395 -0.3928  2.3743
   16SAPS   H5Y 2088   3.991   5.216   7.466 -1.0090  0.7780  0.8985
   16SAPS   C36 2089   4.096   5.285   7.657 -0.0844 -0.0261 -0.5889
   16SAPS   H6X 2090   4.011   5.262   7.724 -0.4559  1.1086 -0.6497
   16SAPS   H6Y 2091   4.096   5.395   7.636 -1.3746 -0.2318 -1.7808
   16SAPS   C37 2092   4.220   5.266   7.745 -0.8779 -0.3924  0.1612
   16SAPS   H7X 2093   4.314   5.279   7.688  0.9438  3.4603  3.5450
   16SAPS   H7Y 2094   4.228   5.160   7.777  0.2930 -0.0566  1.0385
   16SAPS   C38 2095   4.224   5.371   7.857 -0.0677 -0.2153 -1.2174
   16SAPS   H8X 2096   4.228   5.478   7.831  1.9769 -0.2294 -1.1330
   16SAPS   H8Y 2097   4.318   5.350   7.912 -0.9114 -3.3291 -0.7455
   16SAPS   C39 2098   4.122   5.349   7.970  0.3376 -0.5046 -0.6321
   16SAPS   H9X 2099   4.116   5.242   7.999 -0.2672 -0.9478 -2.2771
   16SAPS   H9Y 2100   4.032   5.397   7.926  0.8288  0.6953 -0.3687
   16SAPS  C310 2101   4.160   5.427   8.103  0.5878 -0.1900  0.1863
   16SAPS  H10X 2102   4.269   5.410   8.116  1.1511  1.7331 -1.4297
   16SAPS  H10Y 2103   4.096   5.360   8.163  0.2081 -1.5441 -1.6333
   16SAPS  C311 2104   4.112   5.572   8.128  0.0448 -0.3741 -0.1890
   16SAPS  H11X 2105   4.002   5.573   8.109  0.3065  0.4218 -1.8121
   16SAPS  H11Y 2106   4.157   5.651   8.065 -0.3668  1.6515  1.9301
   16SAPS  C312 2107   4.135   5.611   8.276 -1.1950 -0.2333 -0.2900
   16SAPS  H12X 2108   4.080   5.552   8.353  0.6920 -0.7234  0.7272
   16SAPS  H12Y 2109   4.113   5.719   8.286  1.2631  0.3627 -0.8621
   16SAPS  C313 2110   4.284   5.604   8.318  0.6296 -0.3246  0.4282
   16SAPS  H13X 2111   4.347   5.672   8.257 -0.0865 -1.2054 -1.3841
   16SAPS  H13Y 2112   4.318   5.499   8.303  0.9119 -0.2887  0.8067
   16SAPS  C314 2113   4.308   5.628   8.465 -1.1580  0.2455 -0.5368
   16SAPS  H14X 2114   4.252   5.547   8.517 -1.3736  0.0530 -1.0698
   16SAPS  H14Y 2115   4.258   5.723   8.493 -2.1830 -0.3806 -0.1521
   16SAPS  C315 2116   4.456   5.621   8.506  0.5632  0.2601 -0.2013
   16SAPS  H15X 2117   4.511   5.700   8.449  2.2086 -1.3869 -1.0097
   16SAPS  H15Y 2118   4.496   5.523   8.474  0.2980  0.2029 -0.3627
   16SAPS  C316 2119   4.473   5.653   8.655  0.2681  0.3432 -0.4761
   16SAPS  H16X 2120   4.418   5.575   8.712 -0.6442  1.4579  0.2119
   16SAPS  H16Y 2121   4.413   5.741   8.685 -3.1052 -1.7545 -0.5081
   16SAPS  C317 2122   4.616   5.667   8.697 -0.9120  0.6020  0.1747
   16SAPS  H17X 2123   4.658   5.755   8.644 -0.3593  0.9191  1.1140
   16SAPS  H17Y 2124   4.676   5.579   8.666 -1.2954  0.0332  1.0215
   16SAPS  C318 2125   4.642   5.682   8.850 -0.8595  0.0736 -0.0798
   16SAPS  H18X 2126   4.624   5.594   8.914  0.5845  2.2565  3.6294
   16SAPS  H18Y 2127   4.574   5.761   8.888  0.1585  1.5100 -1.1172
   16SAPS  H18Z 2128   4.746   5.714   8.874 -0.5153 -1.2353  0.2361
   17SAPC     N 2129   4.529   1.519  10.889  0.1080  0.3431  0.2993
   17SAPC   C12 2130   4.587   1.451  10.764  0.3378 -0.4275 -0.0916
   17SAPC  H12A 2131   4.575   1.344  10.763  1.1107 -0.5449  1.1051
   17SAPC  H12B 2132   4.694   1.463  10.771  0.1138  0.8191  1.9377
   17SAPC   C13 2133   4.569   1.664  10.897  0.2043 -0.1968 -0.3253
   17SAPC  H13A 2134   4.675   1.682  10.906  0.0398 -0.0145  1.5808
   17SAPC  H13B 2135   4.530   1.707  10.805 -1.9372 -2.5603 -0.6248
   17SAPC  H13C 2136   4.519   1.712  10.980  1.5836  0.6123  0.0671
   17SAPC   C14 2137   4.389   1.517  10.891  0.1743  0.4630  0.0995
   17SAPC  H14A 2138   4.339   1.574  10.968 -2.6799  0.5934 -1.6692
   17SAPC  H14B 2139   4.343   1.545  10.797 -1.4304 -2.2462 -0.0277
   17SAPC  H14C 2140   4.352   1.416  10.900  0.2407  0.3525 -0.7512
   17SAPC   C15 2141   4.587   1.449  11.004 -0.5205 -0.1729  0.2386
   17SAPC  H15A 2142   4.565   1.344  11.016  1.7784 -0.7254  0.2152
   17SAPC  H15B 2143   4.695   1.457  11.003 -0.4601 -0.9774  0.1532
   17SAPC  H15C 2144   4.552   1.496  11.095 -0.7798 -0.8653  0.4990
   17SAPC   C11 2145   4.539   1.500  10.627 -0.2406 -0.7035 -0.3319
   17SAPC  H11A 2146   4.429   1.484  10.619  0.0367 -2.7097 -0.7893
   17SAPC  H11B 2147   4.580   1.433  10.548 -0.7266 -1.0572 -0.2902
   17SAPC     P 2148   4.707   1.669  10.516  0.4307 -0.0406  0.1993
   17SAPC   O13 2149   4.726   1.807  10.558 -0.0005 -0.3271 -0.8629
   17SAPC   O14 2150   4.816   1.571  10.529  0.1123 -0.2406  0.0606
   17SAPC   O12 2151   4.571   1.632  10.585 -0.1517  0.0919  0.4090
   17SAPC   O11 2152   4.674   1.666  10.371  0.2097  0.1604 -0.2253
   17SAPC    C1 2153   4.543   1.622  10.312  0.4394  0.7301  0.3304
   17SAPC    HA 2154   4.497   1.540  10.371  0.6159 -0.7557 -1.4963
   17SAPC    HB 2155   4.478   1.712  10.321 -0.4446 -0.0042  1.4977
   17SAPC    C2 2156   4.562   1.566  10.169  0.5350 -0.3966  0.2710
   17SAPC    HS 2157   4.614   1.469  10.178 -1.7939 -1.5515  2.9544
   17SAPC   O21 2158   4.639   1.669  10.100 -0.3335  0.1943 -0.3607
   17SAPC   C21 2159   4.771   1.652  10.086  0.0705  0.2398  0.4741
   17SAPC   O22 2160   4.835   1.555  10.123  0.4325 -0.7402  0.4321
   17SAPC   C22 2161   4.827   1.779  10.014  0.1625  0.2176  0.2290
   17SAPC   H2R 2162   4.800   1.868  10.075 -0.6677  1.5295 -1.9591
   17SAPC   H2S 2163   4.938   1.772  10.017  0.2195  1.2280  1.5957
   17SAPC    C3 2164   4.414   1.555  10.111 -0.7472 -0.1289 -0.1730
   17SAPC    HX 2165   4.363   1.649  10.142 -0.1332 -0.3445  1.6045
   17SAPC    HY 2166   4.357   1.470  10.156  1.0484 -0.6175  1.2993
   17SAPC   O31 2167   4.410   1.553   9.970  0.0094 -0.5283 -0.4576
   17SAPC   C31 2168   4.429   1.443   9.903 -0.2348  0.1171  0.7256
   17SAPC   O32 2169   4.441   1.332   9.956 -0.5592  0.4671  0.1372
   17SAPC   C32 2170   4.465   1.470   9.757 -0.2261  0.0939  0.8393
   17SAPC   H2X 2171   4.521   1.564   9.742 -1.9740  0.9847 -0.5324
   17SAPC   H2Y 2172   4.369   1.504   9.713  0.6791  1.0120 -0.4942
   17SAPC   C23 2173   4.790   1.793   9.861  0.0132  0.0224  0.4666
   17SAPC   H3R 2174   4.795   1.899   9.827 -2.0062 -0.1238 -0.4503
   17SAPC   H3S 2175   4.683   1.765   9.855 -0.5554  1.7344  1.8864
   17SAPC   C24 2176   4.865   1.708   9.757  0.0264 -1.0529 -0.4686
   17SAPC   H4R 2177   4.800   1.710   9.667  1.1157  3.2948 -1.3922
   17SAPC   H4S 2178   4.859   1.603   9.792 -0.2752 -0.8549  0.0814
   17SAPC   C25 2179   5.007   1.756   9.727  0.4327  0.0893 -0.0647
   17SAPC   H5R 2180   5.056   1.801   9.814 -1.2944 -0.9745  1.5438
   17SAPC   C26 2181   5.077   1.740   9.613 -0.2222 -0.0924  0.3824
   17SAPC   H6R 2182   5.185   1.763   9.610 -0.5836  1.5650 -2.1010
   17SAPC   C27 2183   5.026   1.659   9.498 -0.0510  0.6558  0.3899
   17SAPC   H7R 2184   4.923   1.692   9.471 -0.1826  0.9175  1.1907
   17SAPC   H7S 2185   5.023   1.552   9.526 -1.9053  0.3458 -0.8498
   17SAPC   C28 2186   5.121   1.669   9.381  0.4116  0.4984  0.4889
   17SAPC   H8R 2187   5.213   1.729   9.393  1.5545 -0.9615 -0.6003
   17SAPC   C29 2188   5.125   1.581   9.275  0.2685  0.0368  0.4166
   17SAPC   H9R 2189   5.198   1.606   9.197 -1.1265  0.6485 -0.7491
   17SAPC  C210 2190   5.035   1.457   9.252 -0.2041  0.0956 -0.0845
   17SAPC  H10R 2191   4.939   1.475   9.199 -1.4492 -1.3962  1.5583
   17SAPC  H10S 2192   4.999   1.420   9.350 -0.3823  1.3782  0.3598
   17SAPC  C211 2193   5.099   1.339   9.186 -0.4683 -0.1816  0.1572
   17SAPC  H11R 2194   5.118   1.256   9.256  0.0577  1.2991  1.8309
   17SAPC  C212 2195   5.136   1.318   9.060 -0.5262  0.8266 -0.4695
   17SAPC  H12R 2196   5.182   1.221   9.036 -1.3417 -0.3771  2.3268
   17SAPC  C213 2197   5.130   1.412   8.946  0.4302  0.0297  0.2673
   17SAPC  H13R 2198   5.072   1.502   8.975  1.9667  2.5989 -3.7156
   17SAPC  H13S 2199   5.074   1.368   8.861 -0.6901 -0.2521  1.1378
   17SAPC  C214 2200   5.261   1.452   8.899 -0.0956 -0.1877  0.5088
   17SAPC  H14R 2201   5.342   1.434   8.972  1.7674  0.6234 -1.2479
   17SAPC  C215 2202   5.289   1.529   8.791 -0.0790  0.5330  0.2732
   17SAPC  H15R 2203   5.393   1.554   8.764 -0.0295  1.0504  0.9346
   17SAPC  C216 2204   5.187   1.574   8.692 -0.1297 -0.3286  0.3023
   17SAPC  H16R 2205   5.093   1.596   8.747 -0.6853 -0.4066 -0.5996
   17SAPC  H16S 2206   5.166   1.498   8.614 -4.1425  0.9052 -0.0183
   17SAPC  C217 2207   5.234   1.703   8.615  0.3411  0.2508 -0.2717
   17SAPC  H17R 2208   5.248   1.787   8.686 -1.8617  1.2211 -0.9141
   17SAPC  H17S 2209   5.148   1.740   8.556 -0.8111  0.8346  1.6550
   17SAPC  C218 2210   5.356   1.686   8.526  0.1260  0.3070 -0.5757
   17SAPC  H18R 2211   5.349   1.585   8.483  0.1248 -0.2991  0.7798
   17SAPC  H18S 2212   5.442   1.682   8.596 -1.1166 -0.1024  1.0036
   17SAPC  C219 2213   5.383   1.804   8.432  0.5367 -0.5493  1.1261
   17SAPC  H19R 2214   5.285   1.807   8.379  0.7240 -1.1774  0.7274
   17SAPC  H19S 2215   5.470   1.778   8.369  0.0650 -0.3123  0.3601
   17SAPC  C220 2216   5.424   1.927   8.506 -0.5927  0.7554 -0.2644
   17SAPC  H20R 2217   5.377   1.939   8.606  0.8259 -0.9733  0.6750
   17SAPC  H20S 2218   5.405   2.013   8.437 -0.2498  0.6933 -0.4392
   17SAPC  H20T 2219   5.532   1.932   8.532  0.1612  0.7924 -3.0842
   17SAPC   C33 2220   4.526   1.350   9.675 -0.4465  0.3254  0.2410
   17SAPC   H3X 2221   4.439   1.285   9.652 -1.9522  2.0115  0.9293
   17SAPC   H3Y 2222   4.605   1.292   9.727 -1.1987  0.0236  1.0860
   17SAPC   C34 2223   4.570   1.399   9.536  0.0497 -0.1980 -0.6167
   17SAPC   H4X 2224   4.655   1.471   9.531 -2.5242  3.2138  0.5158
   17SAPC   H4Y 2225   4.486   1.450   9.484  0.5403  0.8520 -0.4027
   17SAPC   C35 2226   4.598   1.283   9.437  0.3754 -0.3183  0.1175
   17SAPC   H5X 2227   4.505   1.224   9.424  1.0696 -1.5008  0.3388
   17SAPC   H5Y 2228   4.662   1.206   9.485  0.6141 -0.3307 -0.2122
   17SAPC   C36 2229   4.653   1.328   9.299  0.5160 -0.3615  0.0788
   17SAPC   H6X 2230   4.751   1.381   9.302 -0.0895  0.7487  1.4451
   17SAPC   H6Y 2231   4.573   1.392   9.257 -0.8176 -2.1016 -0.1415
   17SAPC   C37 2232   4.659   1.212   9.208  0.4352 -0.2289 -1.1314
   17SAPC   H7X 2233   4.561   1.162   9.195  0.9254 -1.3058 -0.8266
   17SAPC   H7Y 2234   4.724   1.128   9.242 -0.4495 -0.9649 -1.2056
   17SAPC   C38 2235   4.719   1.258   9.071 -0.6982  0.5787 -0.3617
   17SAPC   H8X 2236   4.786   1.346   9.077 -1.2033  0.9433  0.0246
   17SAPC   H8Y 2237   4.625   1.269   9.013 -1.8343 -1.7353  0.9047
   17SAPC   C39 2238   4.806   1.149   9.007 -0.1235  0.0290  0.0044
   17SAPC   H9X 2239   4.750   1.057   9.033 -0.0632  0.8655  3.6919
   17SAPC   H9Y 2240   4.907   1.156   9.054  0.2439  1.7007 -0.9359
   17SAPC  C310 2241   4.810   1.169   8.856  0.4891  0.1441  0.5037
   17SAPC  H10X 2242   4.862   1.265   8.836  2.9616 -0.9301  1.3142
   17SAPC  H10Y 2243   4.708   1.186   8.817  0.8280  2.2324  0.4329
   17SAPC  C311 2244   4.883   1.053   8.789  0.1256 -0.4561 -0.0207
   17SAPC  H11X 2245   4.830   0.956   8.801 -1.4473  0.5658  1.9325
   17SAPC  H11Y 2246   4.986   1.047   8.831 -0.2787 -0.1698  1.0345
   17SAPC  C312 2247   4.903   1.073   8.638  0.7843  0.3474 -0.4153
   17SAPC  H12X 2248   4.803   1.084   8.591 -0.4380 -5.2262  0.1686
   17SAPC  H12Y 2249   4.941   0.983   8.584  0.3704  0.2397 -0.5298
   17SAPC  C313 2250   4.991   1.192   8.587 -0.1954  0.3778  0.4003
   17SAPC  H13X 2251   5.096   1.170   8.617 -0.2067  0.6395  0.6402
   17SAPC  H13Y 2252   4.955   1.283   8.639  0.3100  0.1594  1.1518
   17SAPC  C314 2253   4.985   1.219   8.436 -0.1234  0.5280  0.4492
   17SAPC  H14X 2254   4.879   1.208   8.404 -0.7939  1.7856  2.1324
   17SAPC  H14Y 2255   5.045   1.139   8.388  1.4599  1.2983  1.0582
   17SAPC  C315 2256   5.044   1.349   8.392  0.0313  0.5435 -0.2362
   17SAPC  H15X 2257   5.148   1.358   8.431 -1.0783  1.2201  2.8261
   17SAPC  H15Y 2258   4.998   1.440   8.435 -1.1915  0.0050 -0.3752
   17SAPC  C316 2259   5.039   1.364   8.239 -0.6058 -0.3426  0.0507
   17SAPC  H16X 2260   4.938   1.362   8.193 -0.8812 -0.0032  0.6283
   17SAPC  H16Y 2261   5.094   1.275   8.201  0.3943 -0.3990  1.5403
   17SAPC  C317 2262   5.128   1.492   8.194 -0.1829  0.5446  0.2927
   17SAPC  H17X 2263   5.134   1.481   8.084  0.8557 -1.2688  0.4953
   17SAPC  H17Y 2264   5.232   1.469   8.227  0.3379 -0.1237 -1.7022
   17SAPC  C318 2265   5.080   1.630   8.223 -0.3103 -0.1204 -0.3351
   17SAPC  H18X 2266   5.090   1.661   8.329 -0.4188  2.2064 -0.9345
   17SAPC  H18Y 2267   5.153   1.701   8.179  1.4356 -0.4077  1.9488
   17SAPC  H18Z 2268   4.972   1.640   8.198 -0.6787  1.1715  1.5549
   18SAPC     N 2269   6.776   0.679  10.769  0.3451 -0.2235 -0.2625
   18SAPC   C12 2270   6.839   0.547  10.709 -1.0450 -0.0665 -0.3064
   18SAPC  H12A 2271   6.847   0.573  10.605 -3.3051  1.2403 -0.2170
   18SAPC  H12B 2272   6.771   0.467  10.736  0.5113 -1.3681 -0.1094
   18SAPC   C13 2273   6.628   0.685  10.732 -0.2744 -0.2857 -0.0043
   18SAPC  H13A 2274   6.588   0.781  10.762  0.9094  0.3958 -0.5128
   18SAPC  H13B 2275   6.607   0.686  10.626 -0.1484  1.5130 -0.0489
   18SAPC  H13C 2276   6.579   0.602  10.779  2.1492 -0.7921  1.8173
   18SAPC   C14 2277   6.788   0.686  10.916  0.4294  0.5260  0.2076
   18SAPC  H14A 2278   6.726   0.766  10.955 -0.4384  0.3201 -0.7308
   18SAPC  H14B 2279   6.767   0.588  10.955 -0.2607  0.1791 -0.9995
   18SAPC  H14C 2280   6.890   0.713  10.940  0.4648 -0.7606  1.6665
   18SAPC   C15 2281   6.839   0.790  10.710 -0.7424 -0.2778 -0.1719
   18SAPC  H15A 2282   6.806   0.881  10.757  0.6120 -0.6321  1.5747
   18SAPC  H15B 2283   6.946   0.779  10.716 -0.9428 -1.9373  1.0363
   18SAPC  H15C 2284   6.812   0.789  10.605 -0.9492 -0.5714 -0.1171
   18SAPC   C11 2285   6.984   0.515  10.766 -0.2597  0.0295  0.2424
   18SAPC  H11A 2286   7.019   0.416  10.730 -0.3516  0.2340 -0.4070
   18SAPC  H11B 2287   6.967   0.501  10.875  2.3600 -3.6956  0.4061
   18SAPC     P 2288   7.183   0.612  10.625 -0.0595  0.1263  0.6230
   18SAPC   O13 2289   7.196   0.744  10.562  0.3126 -0.5340  0.1513
   18SAPC   O14 2290   7.312   0.553  10.672 -0.0565 -0.1015  0.3529
   18SAPC   O12 2291   7.084   0.617  10.747  0.0856  0.2704 -0.0945
   18SAPC   O11 2292   7.108   0.508  10.526 -0.2423  0.0481 -0.0845
   18SAPC    C1 2293   7.188   0.402  10.477 -0.1497  0.2066 -0.1691
   18SAPC    HA 2294   7.242   0.341  10.553 -1.4808  0.4152  0.9917
   18SAPC    HB 2295   7.121   0.334  10.421 -0.4899  0.8849 -0.5929
   18SAPC    C2 2296   7.293   0.442  10.365  0.9898 -0.5825  0.8737
   18SAPC    HS 2297   7.364   0.511  10.415  0.1675  1.1324 -0.2109
   18SAPC   O21 2298   7.215   0.507  10.264 -0.4281 -0.3559  0.0584
   18SAPC   C21 2299   7.271   0.610  10.222 -0.2810 -0.3698 -0.5070
   18SAPC   O22 2300   7.390   0.642  10.242 -0.0060  0.1646  0.8765
   18SAPC   C22 2301   7.162   0.672  10.132 -0.7987 -0.2627  0.0925
   18SAPC   H2R 2302   7.072   0.669  10.196  0.3141 -0.3899  1.7053
   18SAPC   H2S 2303   7.195   0.771  10.096  2.5988 -1.2132  0.2409
   18SAPC    C3 2304   7.371   0.321  10.300  0.5089 -0.2544  0.0736
   18SAPC    HX 2305   7.295   0.251  10.259  1.4022 -2.1192  1.4137
   18SAPC    HY 2306   7.424   0.260  10.378  2.2305  2.3548  1.0852
   18SAPC   O31 2307   7.458   0.356  10.189  0.1097 -0.0135 -0.0257
   18SAPC   C31 2308   7.570   0.410  10.233 -0.0901  0.2513 -0.5480
   18SAPC   O32 2309   7.607   0.422  10.348  0.0562 -0.8486  0.4676
   18SAPC   C32 2310   7.667   0.428  10.109 -0.3888  0.1672 -0.7373
   18SAPC   H2X 2311   7.603   0.507  10.062 -1.7465 -0.1480  0.4933
   18SAPC   H2Y 2312   7.664   0.337  10.045  0.1877 -0.0781 -0.4214
   18SAPC   C23 2313   7.134   0.585  10.004  0.2113 -0.6392  0.1309
   18SAPC   H3R 2314   7.043   0.637   9.966  2.2473  1.2039 -2.5634
   18SAPC   H3S 2315   7.102   0.481  10.026  1.1570 -0.4373  2.7604
   18SAPC   C24 2316   7.241   0.607   9.895 -0.1520 -0.0313  0.2329
   18SAPC   H4R 2317   7.342   0.578   9.932 -0.4369  0.9567  1.8853
   18SAPC   H4S 2318   7.249   0.717   9.881  2.4252 -0.3357 -1.4206
   18SAPC   C25 2319   7.206   0.538   9.765 -0.0524  0.3371 -0.0559
   18SAPC   H5R 2320   7.111   0.565   9.717  0.1419 -1.3070 -1.4500
   18SAPC   C26 2321   7.285   0.440   9.706  0.1158  0.1279 -0.0602
   18SAPC   H6R 2322   7.249   0.394   9.613 -0.1042 -0.9653  0.5478
   18SAPC   C27 2323   7.407   0.376   9.759 -0.0429  0.0820 -0.1286
   18SAPC   H7R 2324   7.416   0.275   9.713  2.6791  0.3306 -0.3106
   18SAPC   H7S 2325   7.422   0.360   9.867 -1.0914 -1.4260 -0.1862
   18SAPC   C28 2326   7.525   0.463   9.710 -0.7792  0.3990 -0.2229
   18SAPC   H8R 2327   7.515   0.570   9.736 -1.8340  0.2873 -0.1393
   18SAPC   C29 2328   7.636   0.428   9.632  0.0503  0.0406 -0.3834
   18SAPC   H9R 2329   7.706   0.506   9.597  0.7936 -0.4073  0.0555
   18SAPC  C210 2330   7.663   0.283   9.599 -0.1565  0.2580  0.2661
   18SAPC  H10R 2331   7.568   0.233   9.572 -0.2621  0.2605  0.6277
   18SAPC  H10S 2332   7.699   0.240   9.695 -0.5764 -0.7864 -0.0349
   18SAPC  C211 2333   7.775   0.267   9.499  0.1113  0.0851 -0.1232
   18SAPC  H11R 2334   7.873   0.312   9.522  1.7190 -1.6591 -2.9451
   18SAPC  C212 2335   7.753   0.229   9.371  0.1342  0.0349  0.1130
   18SAPC  H12R 2336   7.842   0.225   9.306 -0.7341 -0.2083 -1.0960
   18SAPC  C213 2337   7.619   0.180   9.321  0.3891  0.7027  0.4579
   18SAPC  H13R 2338   7.575   0.110   9.395 -4.6436  0.8436 -2.0475
   18SAPC  H13S 2339   7.647   0.133   9.224 -1.2435  2.3195 -0.8581
   18SAPC  C214 2340   7.510   0.282   9.304 -0.0816 -0.6896  0.0453
   18SAPC  H14R 2341   7.430   0.281   9.380 -1.6073 -2.4860 -1.4798
   18SAPC  C215 2342   7.507   0.363   9.201 -0.1542 -0.0767  0.4265
   18SAPC  H15R 2343   7.424   0.433   9.184  0.2615  0.2053 -0.5180
   18SAPC  C216 2344   7.613   0.366   9.091 -0.3035 -0.0658  0.1252
   18SAPC  H16R 2345   7.705   0.317   9.131  0.4058  1.2997  0.2307
   18SAPC  H16S 2346   7.624   0.476   9.079 -2.7236  0.0858 -1.4494
   18SAPC  C217 2347   7.571   0.299   8.955  0.2164  0.2506  0.1790
   18SAPC  H17R 2348   7.469   0.333   8.927 -0.7466 -0.5866  2.3797
   18SAPC  H17S 2349   7.564   0.189   8.960 -0.4728  0.0905 -2.8453
   18SAPC  C218 2350   7.665   0.335   8.844  0.8391 -0.3841  0.0662
   18SAPC  H18R 2351   7.652   0.445   8.838 -1.4847 -0.6880 -2.7153
   18SAPC  H18S 2352   7.617   0.285   8.757  0.2698  0.7050 -0.2597
   18SAPC  C219 2353   7.803   0.277   8.864  0.3858  1.0132 -0.5201
   18SAPC  H19R 2354   7.840   0.321   8.959  2.1002  1.3366 -1.2909
   18SAPC  H19S 2355   7.869   0.325   8.788  1.9415 -0.8849 -0.4486
   18SAPC  C220 2356   7.810   0.129   8.855 -0.5475 -0.2314  0.1208
   18SAPC  H20R 2357   7.712   0.080   8.873  0.0486 -1.5754 -0.1217
   18SAPC  H20S 2358   7.897   0.095   8.915  0.9207  2.0392 -0.5839
   18SAPC  H20T 2359   7.819   0.093   8.750  1.3566 -0.6984  0.3947
   18SAPC   C33 2360   7.821   0.465  10.140 -1.0028  0.2752  0.6496
   18SAPC   H3X 2361   7.867   0.390  10.208 -0.1810 -1.0478 -1.2939
   18SAPC   H3Y 2362   7.819   0.563  10.193  1.2498  1.8153 -1.8888
   18SAPC   C34 2363   7.889   0.467  10.005 -0.9358 -0.3437 -0.2058
   18SAPC   H4X 2364   7.843   0.386   9.946 -0.1816 -3.0169  2.6285
   18SAPC   H4Y 2365   7.994   0.432  10.014 -0.6842 -1.2787 -4.7383
   18SAPC   C35 2366   7.887   0.601   9.931  0.2583  0.2144 -0.0258
   18SAPC   H5X 2367   7.928   0.679   9.998  1.1547  0.4340 -0.8013
   18SAPC   H5Y 2368   7.781   0.633   9.924 -0.2300 -1.1246  0.7672
   18SAPC   C36 2369   7.948   0.591   9.794 -0.2848  0.5654 -0.7501
   18SAPC   H6X 2370   7.921   0.679   9.731 -0.5799  2.2978  1.6772
   18SAPC   H6Y 2371   7.926   0.491   9.750  0.9493  0.3873 -1.0084
   18SAPC   C37 2372   8.104   0.614   9.797 -0.2717 -0.2107  0.8099
   18SAPC   H7X 2373   8.155   0.532   9.850 -2.1573 -1.5106  0.7156
   18SAPC   H7Y 2374   8.120   0.707   9.856  0.6510 -0.9092  1.6972
   18SAPC   C38 2375   8.173   0.621   9.659  0.2918  0.4835 -0.6100
   18SAPC   H8X 2376   8.283   0.628   9.676  0.5465 -1.0532 -1.4177
   18SAPC   H8Y 2377   8.133   0.717   9.619  2.2986  1.7159  0.1916
   18SAPC   C39 2378   8.137   0.507   9.566 -0.0891 -0.2631 -1.3171
   18SAPC   H9X 2379   8.028   0.494   9.550 -0.2999  0.8497 -0.9037
   18SAPC   H9Y 2380   8.186   0.416   9.608  3.8527  2.5193  0.7849
   18SAPC  C310 2381   8.190   0.538   9.429 -0.2225 -0.0329  0.4400
   18SAPC  H10X 2382   8.297   0.566   9.431 -0.7433  2.0617  1.3035
   18SAPC  H10Y 2383   8.132   0.625   9.392  1.3957  0.3950 -1.2146
   18SAPC  C311 2384   8.164   0.417   9.340  0.1664  0.0817 -0.6069
   18SAPC  H11X 2385   8.054   0.413   9.353  0.2818  0.0524  0.3937
   18SAPC  H11Y 2386   8.196   0.318   9.377 -1.7792 -0.2509  0.3144
   18SAPC  C312 2387   8.184   0.438   9.187  0.0239  0.3482 -0.1158
   18SAPC  H12X 2388   8.293   0.440   9.167 -0.0286  1.2859 -0.3730
   18SAPC  H12Y 2389   8.142   0.538   9.162 -0.6548 -0.2799 -1.6912
   18SAPC  C313 2390   8.115   0.323   9.112 -0.5845  0.5413  0.1753
   18SAPC  H13X 2391   8.010   0.340   9.079 -0.4800  0.8878  0.0186
   18SAPC  H13Y 2392   8.100   0.236   9.180 -0.4947  0.7862  0.5077
   18SAPC  C314 2393   8.197   0.270   8.991 -0.3644  0.1256  0.8382
   18SAPC  H14X 2394   8.144   0.187   8.941 -1.2957  2.0503 -1.5817
   18SAPC  H14Y 2395   8.292   0.243   9.042  1.0243  1.2824 -0.9923
   18SAPC  C315 2396   8.211   0.384   8.892 -0.3606 -0.0615  0.4142
   18SAPC  H15X 2397   8.267   0.469   8.935  0.7220 -0.3408 -0.4193
   18SAPC  H15Y 2398   8.104   0.409   8.871 -0.3655 -0.5604 -0.2036
   18SAPC  C316 2399   8.287   0.352   8.757 -0.0170  0.5327  0.1355
   18SAPC  H16X 2400   8.391   0.327   8.787 -1.1243 -4.2828  0.7843
   18SAPC  H16Y 2401   8.289   0.445   8.696 -1.4336  0.4283 -0.1047
   18SAPC  C317 2402   8.226   0.236   8.682  0.6019 -0.4814  0.2441
   18SAPC  H17X 2403   8.115   0.244   8.684  0.4809 -1.8796  0.4429
   18SAPC  H17Y 2404   8.251   0.132   8.712 -0.6178 -1.0581 -0.6231
   18SAPC  C318 2405   8.263   0.238   8.533 -0.6115 -0.1077  0.4624
   18SAPC  H18X 2406   8.295   0.135   8.509 -1.3414 -0.9524  2.8210
   18SAPC  H18Y 2407   8.346   0.309   8.513 -2.5102  2.2566  0.3677
   18SAPC  H18Z 2408   8.177   0.273   8.471 -0.5383  0.7878  0.8507
   19SAPC     N 2409   3.347   2.130  10.543  0.2674  0.7251 -0.2665
   19SAPC   C12 2410   3.377   1.989  10.601  0.4664 -0.1027  0.1368
   19SAPC  H12A 2411   3.293   1.922  10.590  0.2565  0.1104  0.4467
   19SAPC  H12B 2412   3.404   2.002  10.704  2.4057  1.5979 -0.5056
   19SAPC   C13 2413   3.243   2.202  10.623  0.4992 -0.2439 -0.4221
   19SAPC  H13A 2414   3.279   2.215  10.724 -1.0096 -1.1074  0.2535
   19SAPC  H13B 2415   3.222   2.298  10.578  1.5686  0.2762  0.1647
   19SAPC  H13C 2416   3.151   2.145  10.627  2.1687 -3.0597  1.4518
   19SAPC   C14 2417   3.467   2.221  10.557  0.0301  0.3915 -0.6185
   19SAPC  H14A 2418   3.486   2.246  10.660 -1.1884 -0.0883 -0.2597
   19SAPC  H14B 2419   3.550   2.159  10.527  1.1400  0.6997  1.6126
   19SAPC  H14C 2420   3.457   2.317  10.510  0.0433  0.8591  0.3215
   19SAPC   C15 2421   3.307   2.133  10.397 -0.3322  0.5452 -0.1710
   19SAPC  H15A 2422   3.224   2.066  10.384 -0.8923  0.7901  1.8532
   19SAPC  H15B 2423   3.271   2.227  10.359  0.7832  0.9485 -0.2915
   19SAPC  H15C 2424   3.389   2.104  10.331 -0.1868 -0.0077  0.2497
   19SAPC   C11 2425   3.497   1.922  10.535 -0.8976  0.4549  0.4425
   19SAPC  H11A 2426   3.587   1.982  10.562 -0.4165 -0.0741  0.0594
   19SAPC  H11B 2427   3.503   1.930  10.424  3.2866  1.1687  0.5329
   19SAPC     P 2428   3.614   1.688  10.515 -0.0736 -0.2861 -0.0304
   19SAPC   O13 2429   3.739   1.758  10.494 -0.4167  0.0700 -0.3902
   19SAPC   O14 2430   3.610   1.566  10.592  0.5897  0.2067 -0.1304
   19SAPC   O12 2431   3.512   1.789  10.579 -0.1850 -0.1071 -0.2805
   19SAPC   O11 2432   3.548   1.654  10.379 -0.2473  0.3909 -0.0799
   19SAPC    C1 2433   3.435   1.568  10.361  0.4380  0.4879 -0.1123
   19SAPC    HA 2434   3.462   1.465  10.329 -0.1963  0.2078  0.2243
   19SAPC    HB 2435   3.377   1.537  10.451 -2.6886  0.6765 -1.9097
   19SAPC    C2 2436   3.347   1.608  10.249  0.8303  0.0553  0.2092
   19SAPC    HS 2437   3.278   1.523  10.229 -0.8581  1.2109  0.9192
   19SAPC   O21 2438   3.435   1.632  10.136 -0.2522  0.0900 -0.2624
   19SAPC   C21 2439   3.479   1.526  10.070 -0.1506  0.1329  0.0496
   19SAPC   O22 2440   3.458   1.409  10.100 -0.0574 -0.3175 -0.1220
   19SAPC   C22 2441   3.582   1.572   9.973 -0.2374 -0.0493 -0.1410
   19SAPC   H2R 2442   3.656   1.638  10.023 -0.0983  1.1546 -1.8342
   19SAPC   H2S 2443   3.651   1.494   9.935 -1.6205 -0.7246 -1.3522
   19SAPC    C3 2444   3.275   1.742  10.285  0.4147 -0.5855 -0.5504
   19SAPC    HX 2445   3.356   1.818  10.288 -2.3892  2.6561  2.4976
   19SAPC    HY 2446   3.227   1.728  10.385 -0.1890 -0.0772 -0.7637
   19SAPC   O31 2447   3.179   1.775  10.191 -0.3201  0.3630  0.6473
   19SAPC   C31 2448   3.186   1.891  10.122 -0.0811 -0.3787  0.5998
   19SAPC   O32 2449   3.283   1.969  10.119  0.5450 -0.1318 -0.5411
   19SAPC   C32 2450   3.058   1.908  10.034 -0.9224  0.2678 -0.5468
   19SAPC   H2X 2451   3.007   1.995  10.080  1.4111  1.8942 -0.8172
   19SAPC   H2Y 2452   3.002   1.813  10.038 -0.6119  0.1243  1.4828
   19SAPC   C23 2453   3.511   1.651   9.861  0.0697  0.1661 -0.2561
   19SAPC   H3R 2454   3.473   1.738   9.919 -2.3024 -2.3192  2.2760
   19SAPC   H3S 2455   3.425   1.598   9.815  3.5324 -3.8991 -2.6846
   19SAPC   C24 2456   3.604   1.698   9.755  0.8575 -0.3912  0.3298
   19SAPC   H4R 2457   3.690   1.756   9.798  0.3942 -0.8268  1.9277
   19SAPC   H4S 2458   3.549   1.769   9.690  0.9166 -0.5494  0.1061
   19SAPC   C25 2459   3.658   1.576   9.678 -0.3842  0.0110 -1.2091
   19SAPC   H5R 2460   3.743   1.522   9.724 -0.3060 -0.1562 -1.5473
   19SAPC   C26 2461   3.606   1.525   9.565  0.6720  0.5667  0.6475
   19SAPC   H6R 2462   3.656   1.440   9.516 -2.0655 -0.1236 -1.1427
   19SAPC   C27 2463   3.485   1.562   9.476  0.5644  0.1227 -0.1037
   19SAPC   H7R 2464   3.477   1.669   9.506  1.1324  1.1381 -3.2694
   19SAPC   H7S 2465   3.398   1.498   9.501 -0.0691  1.7916  2.3761
   19SAPC   C28 2466   3.521   1.555   9.328 -0.5689 -1.1255 -0.0518
   19SAPC   H8R 2467   3.454   1.497   9.263 -0.0438 -2.4434  0.5585
   19SAPC   C29 2468   3.614   1.629   9.264 -0.3151 -0.8538 -0.2829
   19SAPC   H9R 2469   3.645   1.621   9.158  0.8393  0.2374 -0.0592
   19SAPC  C210 2470   3.700   1.743   9.322  0.1517 -0.1839  0.1470
   19SAPC  H10R 2471   3.659   1.764   9.423 -2.1072  0.8829 -0.8952
   19SAPC  H10S 2472   3.693   1.840   9.268  1.1382 -0.4929 -0.5499
   19SAPC  C211 2473   3.846   1.699   9.313  0.0246 -1.0017  0.1426
   19SAPC  H11R 2474   3.874   1.648   9.407  0.7142  0.7835  0.9383
   19SAPC  C212 2475   3.935   1.725   9.219  0.5863  0.0195  0.0072
   19SAPC  H12R 2476   4.036   1.685   9.236  1.5071  1.0727 -2.5044
   19SAPC  C213 2477   3.930   1.798   9.089  0.1929 -0.3975  0.6274
   19SAPC  H13R 2478   4.025   1.852   9.070 -1.6319  2.7479 -0.1778
   19SAPC  H13S 2479   3.870   1.891   9.088  2.5601  1.2166 -1.1927
   19SAPC  C214 2480   3.880   1.708   8.976 -0.5344  0.1999 -0.3160
   19SAPC  H14R 2481   3.953   1.631   8.945  0.2649  0.5662  0.5851
   19SAPC  C215 2482   3.766   1.710   8.905 -0.9571 -0.1911  0.0169
   19SAPC  H15R 2483   3.755   1.633   8.827 -0.4056 -1.9691  1.6379
   19SAPC  C216 2484   3.652   1.813   8.907 -0.0420  0.3307  0.0105
   19SAPC  H16R 2485   3.664   1.869   9.002 -0.0962 -2.6539  1.9283
   19SAPC  H16S 2486   3.557   1.754   8.908  1.2130 -1.8025  0.8719
   19SAPC  C217 2487   3.668   1.910   8.792 -0.0166  0.0393  0.0667
   19SAPC  H17R 2488   3.771   1.951   8.786 -0.4632  0.9645 -2.2802
   19SAPC  H17S 2489   3.603   1.995   8.823  1.0789  0.4306  1.4276
   19SAPC  C218 2490   3.629   1.855   8.654  0.3717 -0.8721  0.5324
   19SAPC  H18R 2491   3.565   1.766   8.672 -1.1335  0.3319  1.4009
   19SAPC  H18S 2492   3.718   1.821   8.597  1.4467  1.9662  0.3761
   19SAPC  C219 2493   3.560   1.968   8.568  0.2540  0.1337 -0.5934
   19SAPC  H19R 2494   3.626   2.057   8.554 -2.2240  2.0407 -0.7617
   19SAPC  H19S 2495   3.466   2.000   8.617  0.0087 -2.2280  0.6221
   19SAPC  C220 2496   3.511   1.923   8.432  0.7947  0.0117 -0.1478
   19SAPC  H20R 2497   3.521   2.007   8.361  0.1768  0.9536  0.8550
   19SAPC  H20S 2498   3.412   1.873   8.435  2.0317 -2.7025  2.7429
   19SAPC  H20T 2499   3.583   1.850   8.388 -2.1888 -1.4601 -2.9462
   19SAPC   C33 2500   3.084   1.939   9.880 -0.3724 -1.3599 -0.0299
   19SAPC   H3X 2501   3.135   2.038   9.874 -2.0255 -0.2284  2.5172
   19SAPC   H3Y 2502   2.986   1.944   9.829  0.7436 -0.1367 -2.2033
   19SAPC   C34 2503   3.150   1.831   9.805 -0.9504  0.3729  0.0440
   19SAPC   H4X 2504   3.099   1.739   9.841 -0.7757 -1.0842 -3.1302
   19SAPC   H4Y 2505   3.256   1.811   9.829 -1.1367  0.4841  0.9938
   19SAPC   C35 2506   3.129   1.818   9.650 -0.0258 -0.5025  0.5887
   19SAPC   H5X 2507   3.028   1.858   9.624 -0.7524 -2.5233  0.0921
   19SAPC   H5Y 2508   3.135   1.713   9.615 -3.6468 -0.0041 -2.1676
   19SAPC   C36 2509   3.229   1.899   9.565  1.0954 -0.6123 -0.2493
   19SAPC   H6X 2510   3.330   1.875   9.603  1.6963  0.8518 -0.8507
   19SAPC   H6Y 2511   3.218   2.008   9.581 -0.3613 -1.2721  5.1143
   19SAPC   C37 2512   3.226   1.870   9.418 -0.0468 -0.7081  0.0162
   19SAPC   H7X 2513   3.124   1.905   9.393 -0.0587 -0.8852 -0.1947
   19SAPC   H7Y 2514   3.214   1.761   9.400  0.8646 -0.5341 -1.9427
   19SAPC   C38 2515   3.341   1.940   9.344  0.0559 -0.2913 -0.0346
   19SAPC   H8X 2516   3.438   1.892   9.367  0.7840  0.0925 -2.1047
   19SAPC   H8Y 2517   3.360   2.038   9.392  0.7586 -0.6199  0.3707
   19SAPC   C39 2518   3.312   1.948   9.195 -0.0068  0.7043  0.1600
   19SAPC   H9X 2519   3.202   1.960   9.179 -0.2533 -1.9185 -0.6295
   19SAPC   H9Y 2520   3.331   1.853   9.139 -1.7023  1.3898 -1.7356
   19SAPC  C310 2521   3.388   2.064   9.135 -0.4071 -0.4100  0.4737
   19SAPC  H10X 2522   3.498   2.050   9.136 -0.1498  1.3302  1.6642
   19SAPC  H10Y 2523   3.381   2.160   9.191  2.1868 -0.6354  1.3133
   19SAPC  C311 2524   3.337   2.094   8.991  0.4733 -0.1462 -0.2532
   19SAPC  H11X 2525   3.233   2.133   8.993  1.4587  2.7566 -0.1940
   19SAPC  H11Y 2526   3.328   2.006   8.924 -0.0571 -0.2728 -0.0233
   19SAPC  C312 2527   3.400   2.215   8.924 -0.8868 -0.5023 -0.0189
   19SAPC  H12X 2528   3.506   2.198   8.895 -1.5146 -0.4902 -2.5743
   19SAPC  H12Y 2529   3.383   2.303   8.990 -0.2434  0.2014 -0.7601
   19SAPC  C313 2530   3.322   2.249   8.796  0.2595 -1.3862 -0.1072
   19SAPC  H13X 2531   3.216   2.258   8.829  0.4682 -0.8192  0.4357
   19SAPC  H13Y 2532   3.342   2.177   8.714  1.2951  0.0188 -1.1314
   19SAPC  C314 2533   3.369   2.381   8.720  0.0604  0.2275 -0.3734
   19SAPC  H14X 2534   3.390   2.469   8.785  3.5326 -1.8502  1.6180
   19SAPC  H14Y 2535   3.283   2.403   8.653 -0.5655  1.1699  0.6994
   19SAPC  C315 2536   3.496   2.363   8.628  0.3104 -0.2455 -0.3442
   19SAPC  H15X 2537   3.486   2.262   8.584 -1.4207 -0.1512 -0.2281
   19SAPC  H15Y 2538   3.580   2.369   8.701 -0.8470 -1.6982  1.1946
   19SAPC  C316 2539   3.499   2.466   8.516  0.8627 -0.2658 -0.2970
   19SAPC  H16X 2540   3.598   2.466   8.466  1.3578 -0.6589  0.6641
   19SAPC  H16Y 2541   3.475   2.566   8.557 -3.3410 -0.9505 -0.6164
   19SAPC  C317 2542   3.398   2.450   8.404 -0.9025  0.4692  0.6172
   19SAPC  H17X 2543   3.292   2.443   8.436 -2.0998 -1.6098 -3.1216
   19SAPC  H17Y 2544   3.415   2.351   8.356  4.5942  1.5571 -0.3414
   19SAPC  C318 2545   3.403   2.567   8.305  0.0453 -0.4666 -0.3895
   19SAPC  H18X 2546   3.369   2.662   8.351 -0.3913 -0.7129 -0.1896
   19SAPC  H18Y 2547   3.337   2.552   8.217 -0.5453  2.4722 -0.5523
   19SAPC  H18Z 2548   3.503   2.589   8.262 -0.0161 -0.5069 -0.5512
   20SAPC     N 2549   5.005   5.805  10.708 -0.5214 -0.3583 -1.0283
   20SAPC   C12 2550   4.892   5.787  10.608 -0.3421 -0.4317 -0.4340
   20SAPC  H12A 2551   4.853   5.688  10.621 -3.2333  0.8544  1.8855
   20SAPC  H12B 2552   4.931   5.786  10.507 -0.6043 -0.7600 -0.5332
   20SAPC   C13 2553   5.111   5.693  10.696 -0.4193 -0.0661  0.0923
   20SAPC  H13A 2554   5.190   5.702  10.770 -1.6927  1.7189  1.3108
   20SAPC  H13B 2555   5.064   5.596  10.706 -1.4749  0.2667 -1.3142
   20SAPC  H13C 2556   5.167   5.710  10.606  0.9203  1.6866  1.1972
   20SAPC   C14 2557   5.066   5.940  10.669 -1.0807 -0.2084  0.5735
   20SAPC  H14A 2558   5.100   5.931  10.567 -0.7423  1.1384  0.5509
   20SAPC  H14B 2559   4.996   6.022  10.667  1.8372  2.4599 -0.1981
   20SAPC  H14C 2560   5.142   5.963  10.743 -0.1347 -1.5368  0.0437
   20SAPC   C15 2561   4.953   5.806  10.845 -1.1398  0.3534 -0.3040
   20SAPC  H15A 2562   5.027   5.825  10.921 -1.9838  2.6096  0.0290
   20SAPC  H15B 2563   4.870   5.874  10.854 -0.9601  0.4784  0.4236
   20SAPC  H15C 2564   4.911   5.709  10.867 -0.4545  0.2053  0.4187
   20SAPC   C11 2565   4.772   5.893  10.606 -0.1112  0.1022  0.5740
   20SAPC  H11A 2566   4.692   5.859  10.537  0.3118  0.6353 -0.1850
   20SAPC  H11B 2567   4.804   5.990  10.562  2.2749 -1.1165 -0.5132
   20SAPC     P 2568   4.705   6.049  10.813 -0.0727  0.0168 -0.1003
   20SAPC   O13 2569   4.573   6.042  10.878 -0.0173  0.1048  0.2909
   20SAPC   O14 2570   4.821   6.066  10.900 -0.3329 -0.5132  0.4200
   20SAPC   O12 2571   4.709   5.911  10.733  0.1973 -0.3890 -0.1126
   20SAPC   O11 2572   4.707   6.161  10.708  0.2584  0.7301  0.8233
   20SAPC    C1 2573   4.582   6.204  10.651 -0.8414  0.0044 -0.2819
   20SAPC    HA 2574   4.542   6.123  10.586  3.2294 -2.5277  0.0133
   20SAPC    HB 2575   4.515   6.254  10.723  0.2743  0.5026  0.4319
   20SAPC    C2 2576   4.620   6.326  10.564 -0.3163  0.1630  0.1257
   20SAPC    HS 2577   4.533   6.391  10.545  0.4450  0.6751 -1.9036
   20SAPC   O21 2578   4.670   6.273  10.439  0.0898  0.1769  0.3945
   20SAPC   C21 2579   4.577   6.230  10.355 -0.3425  0.1264 -0.0711
   20SAPC   O22 2580   4.455   6.241  10.379 -0.2268 -0.0346  0.3249
   20SAPC   C22 2581   4.644   6.167  10.228 -0.4764 -0.1604  0.1254
   20SAPC   H2R 2582   4.662   6.251  10.157 -2.6245 -1.3649 -1.9748
   20SAPC   H2S 2583   4.741   6.122  10.258  0.9014  1.0190 -2.2017
   20SAPC    C3 2584   4.722   6.425  10.634  0.5033 -0.5271 -0.1514
   20SAPC    HX 2585   4.809   6.357  10.650  0.2648 -0.8318 -0.1250
   20SAPC    HY 2586   4.683   6.457  10.733 -0.0863 -0.6671 -0.3340
   20SAPC   O31 2587   4.752   6.542  10.556 -0.1151  0.2867 -0.2701
   20SAPC   C31 2588   4.664   6.636  10.549 -0.0328  0.1362  0.1453
   20SAPC   O32 2589   4.548   6.630  10.585  0.1007  0.5818  0.0108
   20SAPC   C32 2590   4.738   6.757  10.495  0.5558  0.5074 -0.4683
   20SAPC   H2X 2591   4.846   6.760  10.521  0.4839 -0.3894 -0.0279
   20SAPC   H2Y 2592   4.683   6.844  10.537  0.0924 -1.3259  3.1809
   20SAPC   C23 2593   4.562   6.062  10.160  0.3258  0.5518  0.3901
   20SAPC   H3R 2594   4.468   6.108  10.122 -0.4172 -0.3602  1.0653
   20SAPC   H3S 2595   4.526   6.000  10.245  3.6658 -0.3460  1.3206
   20SAPC   C24 2596   4.641   5.981  10.055  0.6338 -0.2617 -1.4187
   20SAPC   H4R 2597   4.557   5.916  10.023  0.1604 -1.5907  2.1088
   20SAPC   H4S 2598   4.725   5.930  10.105  1.3609  1.4351 -0.8150
   20SAPC   C25 2599   4.689   6.059   9.931 -0.0698 -0.1369  0.2468
   20SAPC   H5R 2600   4.718   6.165   9.939  0.1763 -0.2513  0.9346
   20SAPC   C26 2601   4.682   6.007   9.805 -0.2299 -0.8712  0.9985
   20SAPC   H6R 2602   4.728   6.060   9.720  3.0550 -1.5193  2.2388
   20SAPC   C27 2603   4.646   5.865   9.770  0.1703 -0.1044  0.5677
   20SAPC   H7R 2604   4.645   5.800   9.860  0.4989 -0.1793  0.5190
   20SAPC   H7S 2605   4.725   5.810   9.714 -1.4173 -1.4629 -0.4471
   20SAPC   C28 2606   4.517   5.847   9.693  0.3515  0.0936 -0.1399
   20SAPC   H8R 2607   4.422   5.864   9.746 -0.1426 -1.1426 -0.6015
   20SAPC   C29 2608   4.507   5.808   9.563  0.2411 -0.3581 -0.2021
   20SAPC   H9R 2609   4.405   5.797   9.523 -1.2509 -1.6884  3.4581
   20SAPC  C210 2610   4.621   5.773   9.475  0.5371 -0.2349 -0.5020
   20SAPC  H10R 2611   4.721   5.773   9.523  0.5378  0.7097 -0.4965
   20SAPC  H10S 2612   4.630   5.858   9.404 -0.4973  1.1914  1.0112
   20SAPC  C211 2613   4.611   5.643   9.408  0.1406  0.0717  0.0830
   20SAPC  H11R 2614   4.668   5.569   9.466 -2.1354 -1.1075  0.8946
   20SAPC  C212 2615   4.533   5.608   9.304 -0.8428 -0.1993  0.0280
   20SAPC  H12R 2616   4.534   5.507   9.262  1.2757  0.4847 -1.8164
   20SAPC  C213 2617   4.452   5.715   9.236  0.6990  0.7400  0.1010
   20SAPC  H13R 2618   4.522   5.796   9.206  0.2222  0.9708 -0.4230
   20SAPC  H13S 2619   4.388   5.763   9.313  0.1633 -0.4412  0.4084
   20SAPC  C214 2620   4.368   5.670   9.118  1.1413 -1.0270 -0.0650
   20SAPC  H14R 2621   4.325   5.571   9.136 -0.3837 -0.0441  2.1287
   20SAPC  C215 2622   4.314   5.750   9.021  0.7051  0.3085 -0.2298
   20SAPC  H15R 2623   4.247   5.700   8.950  0.9998 -1.0146  0.3852
   20SAPC  C216 2624   4.336   5.893   9.000  1.2853 -0.6208  0.0045
   20SAPC  H16R 2625   4.423   5.924   9.060  0.1381 -1.9185  2.4799
   20SAPC  H16S 2626   4.262   5.950   9.060  0.5052 -0.4563 -1.0762
   20SAPC  C217 2627   4.341   5.961   8.867  0.3002 -0.3578  0.1817
   20SAPC  H17R 2628   4.266   5.915   8.800 -1.7944  2.6111  0.2824
   20SAPC  H17S 2629   4.440   5.938   8.822  1.5413  3.9783  0.1998
   20SAPC  C218 2630   4.327   6.120   8.875 -0.6467  0.1380 -1.0346
   20SAPC  H18R 2631   4.396   6.157   8.953  1.0307 -0.9590 -1.9397
   20SAPC  H18S 2632   4.226   6.145   8.914  0.5744 -0.6302  3.0634
   20SAPC  C219 2633   4.350   6.187   8.737 -0.5192 -0.1675  0.0335
   20SAPC  H19R 2634   4.274   6.152   8.664 -0.3058 -0.1195 -0.2160
   20SAPC  H19S 2635   4.447   6.148   8.699 -0.1277  0.5953  0.2425
   20SAPC  C220 2636   4.347   6.334   8.739  0.5601 -0.3116  0.6645
   20SAPC  H20R 2637   4.369   6.373   8.637 -0.2535 -1.2647  0.1080
   20SAPC  H20S 2638   4.429   6.366   8.806  2.3839 -1.8813 -0.6938
   20SAPC  H20T 2639   4.247   6.372   8.770 -0.6233 -1.6144 -1.3661
   20SAPC   C33 2640   4.737   6.768  10.339 -0.4700  0.0217  0.1065
   20SAPC   H3X 2641   4.696   6.674  10.295 -1.3912  0.9680 -1.1710
   20SAPC   H3Y 2642   4.841   6.770  10.300 -0.6571 -1.2614 -0.5023
   20SAPC   C34 2643   4.663   6.897  10.297  0.2846 -0.2949 -0.2242
   20SAPC   H4X 2644   4.673   6.971  10.380  1.0182  2.4434 -2.5731
   20SAPC   H4Y 2645   4.556   6.873  10.284  0.6641 -1.2607 -1.8429
   20SAPC   C35 2646   4.715   6.964  10.168  0.1773 -0.0810 -0.5666
   20SAPC   H5X 2647   4.819   6.997  10.188  0.1363 -0.3944  0.2246
   20SAPC   H5Y 2648   4.645   7.046  10.142 -0.6223 -0.2258  0.9669
   20SAPC   C36 2649   4.703   6.872  10.047  0.3115 -0.2991 -0.6470
   20SAPC   H6X 2650   4.601   6.828  10.050  0.2695 -0.3231  3.5121
   20SAPC   H6Y 2651   4.764   6.780  10.063 -0.5033 -0.4476  2.0572
   20SAPC   C37 2652   4.745   6.933   9.908 -0.2552 -0.5021 -0.1290
   20SAPC   H7X 2653   4.854   6.957   9.915 -0.5439  1.3261 -1.1442
   20SAPC   H7Y 2654   4.691   7.027   9.882  1.1115  0.1192 -0.8598
   20SAPC   C38 2655   4.721   6.830   9.793  0.0293  0.2728 -0.3013
   20SAPC   H8X 2656   4.617   6.792   9.803  0.3973 -0.3896  1.4515
   20SAPC   H8Y 2657   4.792   6.745   9.800  0.4909  0.7088  0.4890
   20SAPC   C39 2658   4.726   6.905   9.658  0.4759 -0.5944  0.3121
   20SAPC   H9X 2659   4.834   6.934   9.654  0.1563  0.7801  1.1005
   20SAPC   H9Y 2660   4.674   7.003   9.657  0.0915 -0.7950  0.0782
   20SAPC  C310 2661   4.679   6.824   9.538  0.3139 -0.2287 -0.1362
   20SAPC  H10X 2662   4.576   6.787   9.556  0.8361 -1.1876  1.1514
   20SAPC  H10Y 2663   4.745   6.735   9.529 -0.8134 -1.3700  1.9198
   20SAPC  C311 2664   4.703   6.893   9.400 -0.2176 -0.4552 -0.1726
   20SAPC  H11X 2665   4.811   6.917   9.389 -0.5730  1.1740 -0.3091
   20SAPC  H11Y 2666   4.647   6.988   9.400  1.4328  0.6776 -3.3963
   20SAPC  C312 2667   4.656   6.805   9.283 -0.4357 -0.8027 -0.0471
   20SAPC  H12X 2668   4.550   6.779   9.304 -0.4060  1.2081  3.5304
   20SAPC  H12Y 2669   4.726   6.719   9.283 -0.2988 -0.8757  3.5815
   20SAPC  C313 2670   4.661   6.878   9.148 -0.0451  0.3164 -0.5013
   20SAPC  H13X 2671   4.761   6.924   9.137  0.2982 -0.5499 -1.0804
   20SAPC  H13Y 2672   4.579   6.953   9.134  0.0428  1.6197  4.1074
   20SAPC  C314 2673   4.644   6.778   9.033  0.0022 -0.6032 -0.6204
   20SAPC  H14X 2674   4.539   6.747   9.054  0.7667 -1.7419  1.9394
   20SAPC  H14Y 2675   4.713   6.692   9.043  1.9041  0.6865 -1.9174
   20SAPC  C315 2676   4.667   6.838   8.896  0.7462  0.3937  0.0130
   20SAPC  H15X 2677   4.777   6.853   8.886  0.4189  3.3092 -0.2586
   20SAPC  H15Y 2678   4.605   6.931   8.892 -2.0833 -1.3522  0.5753
   20SAPC  C316 2679   4.622   6.742   8.786  0.3219  0.3428  0.5161
   20SAPC  H16X 2680   4.512   6.750   8.774  0.4446  0.7187 -0.4167
   20SAPC  H16Y 2681   4.643   6.636   8.813 -3.6115 -0.9403 -0.8264
   20SAPC  C317 2682   4.679   6.749   8.641 -0.2852  0.6703  0.6464
   20SAPC  H17X 2683   4.785   6.717   8.634 -0.9279 -1.5851  0.4397
   20SAPC  H17Y 2684   4.663   6.856   8.615  0.2928  0.5628 -0.1885
   20SAPC  C318 2685   4.599   6.664   8.543 -0.9433  0.1803  0.4472
   20SAPC  H18X 2686   4.594   6.556   8.568 -1.2808  0.2912  0.8672
   20SAPC  H18Y 2687   4.639   6.659   8.439 -1.1350 -1.9928  0.4406
   20SAPC  H18Z 2688   4.496   6.705   8.538 -0.4968  1.8555  3.0125
   21SAPC     N 2689   4.327   5.435  10.773 -0.5435 -0.7117 -0.0225
   21SAPC   C12 2690   4.388   5.396  10.635  0.8583 -0.6161 -0.0509
   21SAPC  H12A 2691   4.453   5.477  10.607 -0.7503  0.6538 -0.2961
   21SAPC  H12B 2692   4.304   5.403  10.567  1.6963  1.1856 -0.9759
   21SAPC   C13 2693   4.428   5.434  10.884 -0.3824 -0.6326  0.6869
   21SAPC  H13A 2694   4.516   5.485  10.848  0.3163 -1.9026  0.5668
   21SAPC  H13B 2695   4.388   5.485  10.970  1.5426  0.9408  0.7050
   21SAPC  H13C 2696   4.449   5.332  10.912 -1.9806 -0.9726  0.7706
   21SAPC   C14 2697   4.262   5.574  10.761 -0.1521 -0.2633  0.2031
   21SAPC  H14A 2698   4.206   5.592  10.852  0.5133 -0.1244  0.5930
   21SAPC  H14B 2699   4.342   5.646  10.759  1.4763 -1.8978  1.9651
   21SAPC  H14C 2700   4.198   5.582  10.674  1.0126  1.8310 -0.5469
   21SAPC   C15 2701   4.222   5.341  10.806  0.3016 -0.0339 -0.7580
   21SAPC  H15A 2702   4.142   5.330  10.735 -0.8944  2.5216  0.0671
   21SAPC  H15B 2703   4.260   5.241  10.821 -0.6340 -0.6490 -2.3423
   21SAPC  H15C 2704   4.173   5.367  10.899 -0.3299  0.4304 -1.2208
   21SAPC   C11 2705   4.459   5.260  10.624  0.1131  0.9977 -0.2999
   21SAPC  H11A 2706   4.558   5.276  10.671 -0.5946  5.0723  0.1958
   21SAPC  H11B 2707   4.471   5.247  10.514 -2.1783  0.3891 -0.5170
   21SAPC     P 2708   4.295   5.057  10.605 -0.0428 -0.1739  0.1799
   21SAPC   O13 2709   4.370   4.989  10.498  0.1350  0.6467  0.1035
   21SAPC   O14 2710   4.231   4.973  10.704  0.0082 -0.3939  0.4068
   21SAPC   O12 2711   4.391   5.148  10.682  0.5436  0.2326 -0.1982
   21SAPC   O11 2712   4.203   5.164  10.545  0.0190  0.1998  0.0636
   21SAPC    C1 2713   4.174   5.180  10.408 -0.7140 -0.8297  0.9049
   21SAPC    HA 2714   4.260   5.234  10.363 -1.3935 -0.0075  0.5710
   21SAPC    HB 2715   4.153   5.081  10.361 -2.3882 -0.6150  1.1443
   21SAPC    C2 2716   4.050   5.267  10.378 -0.5454  0.0480  0.5441
   21SAPC    HS 2717   3.966   5.218  10.431  0.0308 -1.9421 -0.2940
   21SAPC   O21 2718   4.018   5.269  10.238 -0.2471  0.7908 -0.0483
   21SAPC   C21 2719   3.893   5.313  10.199  0.1653 -1.1575  0.0794
   21SAPC   O22 2720   3.811   5.359  10.272 -0.2992  0.5220  0.1752
   21SAPC   C22 2721   3.874   5.286  10.050  0.2194 -0.3611  0.7442
   21SAPC   H2R 2722   3.910   5.371   9.987  0.1293 -2.0790 -1.7899
   21SAPC   H2S 2723   3.934   5.199  10.015 -0.1323  0.4420 -2.1138
   21SAPC    C3 2724   4.065   5.408  10.432 -0.4036  0.3724  0.2104
   21SAPC    HX 2725   4.070   5.409  10.543 -0.4181 -0.1315  0.2194
   21SAPC    HY 2726   3.988   5.487  10.414 -0.1810  0.6222  0.3390
   21SAPC   O31 2727   4.197   5.454  10.386  0.1053  0.2474 -0.2937
   21SAPC   C31 2728   4.199   5.508  10.265  0.5557  0.1966 -0.4104
   21SAPC   O32 2729   4.097   5.531  10.204  0.0839 -0.7063  0.1050
   21SAPC   C32 2730   4.338   5.533  10.213 -0.0093 -0.3989  0.4037
   21SAPC   H2X 2731   4.386   5.434  10.223 -0.5011 -0.9952 -2.2721
   21SAPC   H2Y 2732   4.384   5.609  10.280 -2.3208  1.5141 -0.0330
   21SAPC   C23 2733   3.722   5.266  10.006  0.6890  0.2843 -0.1914
   21SAPC   H3R 2734   3.662   5.206  10.079  0.2868  0.6033 -0.2545
   21SAPC   H3S 2735   3.726   5.210   9.911 -2.3354 -1.5688  0.6278
   21SAPC   C24 2736   3.635   5.389   9.969 -0.4255 -0.4038  0.1215
   21SAPC   H4R 2737   3.674   5.451   9.884 -2.1471  1.2614  0.4780
   21SAPC   H4S 2738   3.645   5.451  10.061 -1.2852 -1.8316  1.1943
   21SAPC   C25 2739   3.492   5.347   9.933  0.4675 -0.4133 -0.5374
   21SAPC   H5R 2740   3.431   5.307  10.015 -0.6029  1.2910 -0.4595
   21SAPC   C26 2741   3.430   5.348   9.812 -0.2810 -1.1431 -0.0122
   21SAPC   H6R 2742   3.326   5.313   9.807 -1.2553  0.6124  4.1458
   21SAPC   C27 2743   3.492   5.406   9.684  0.2289  0.4398  0.4271
   21SAPC   H7R 2744   3.574   5.475   9.715  0.4997  0.3179  0.0009
   21SAPC   H7S 2745   3.408   5.465   9.643 -1.1671 -1.0308  1.0577
   21SAPC   C28 2746   3.549   5.308   9.583  0.1794  0.0783  0.2678
   21SAPC   H8R 2747   3.477   5.230   9.559 -1.7076  1.8773 -0.1986
   21SAPC   C29 2748   3.670   5.305   9.517 -0.5624 -0.5048 -0.1196
   21SAPC   H9R 2749   3.677   5.229   9.437  1.6045 -0.6017  0.1170
   21SAPC  C210 2750   3.777   5.406   9.516  0.6364 -0.6195  0.1179
   21SAPC  H10R 2751   3.761   5.461   9.611 -0.3758  1.7251 -1.3245
   21SAPC  H10S 2752   3.768   5.480   9.434 -0.7209  0.1267  0.9122
   21SAPC  C211 2753   3.909   5.332   9.501  0.0419 -0.2643 -0.0928
   21SAPC  H11R 2754   3.932   5.279   9.594 -2.4570 -0.5441  0.4326
   21SAPC  C212 2755   3.981   5.316   9.388  0.0840  0.1206  0.0031
   21SAPC  H12R 2756   4.064   5.244   9.394 -0.8461 -1.0747 -0.9827
   21SAPC  C213 2757   3.953   5.357   9.244  0.3474  0.1449 -0.9013
   21SAPC  H13R 2758   3.864   5.422   9.241  0.2162  0.0975  0.7979
   21SAPC  H13S 2759   3.922   5.262   9.194 -0.3322  0.2921 -0.7711
   21SAPC  C214 2760   4.059   5.423   9.165 -0.4857 -0.3905 -0.6776
   21SAPC  H14R 2761   4.146   5.454   9.225 -0.8524  0.1434 -0.4124
   21SAPC  C215 2762   4.070   5.439   9.033  0.1930  1.0146  0.0092
   21SAPC  H15R 2763   4.156   5.496   8.994  1.2263 -0.9428 -0.7118
   21SAPC  C216 2764   3.958   5.400   8.936 -0.3701  0.2022  0.0454
   21SAPC  H16R 2765   3.895   5.486   8.904 -0.1246 -0.0398 -1.1256
   21SAPC  H16S 2766   3.887   5.324   8.975  2.5756 -1.9015  1.6651
   21SAPC  C217 2767   4.016   5.323   8.821  0.4252  0.0949  0.5136
   21SAPC  H17R 2768   4.051   5.224   8.859 -0.4518 -0.0211  1.0537
   21SAPC  H17S 2769   4.097   5.382   8.774 -0.3257  0.3074 -0.5316
   21SAPC  C218 2770   3.911   5.315   8.709  0.3665  0.0547  0.1990
   21SAPC  H18R 2771   3.873   5.416   8.685 -0.4510 -0.0320  1.0617
   21SAPC  H18S 2772   3.820   5.254   8.729  0.2781 -0.5035 -1.7074
   21SAPC  C219 2773   3.965   5.260   8.574  0.4309 -0.0042  1.0415
   21SAPC  H19R 2774   4.030   5.172   8.596  1.6706  0.5484 -0.2157
   21SAPC  H19S 2775   4.033   5.337   8.531 -1.3771  0.6583 -0.7716
   21SAPC  C220 2776   3.859   5.230   8.469  0.0819 -0.2113  0.0649
   21SAPC  H20R 2777   3.803   5.142   8.506  1.2872  0.0568  2.7899
   21SAPC  H20S 2778   3.892   5.217   8.363  0.9658 -0.6376  0.3817
   21SAPC  H20T 2779   3.783   5.311   8.461  1.3773  0.8975 -1.8883
   21SAPC   C33 2780   4.358   5.573  10.065  0.2328  0.5664 -0.6537
   21SAPC   H3X 2781   4.466   5.600  10.061  0.4020  0.2301  0.8752
   21SAPC   H3Y 2782   4.301   5.663  10.035  2.3239  2.1192 -0.2153
   21SAPC   C34 2783   4.322   5.454   9.970 -0.0189 -0.0610 -0.4385
   21SAPC   H4X 2784   4.219   5.475   9.933 -0.3477 -0.1797  0.3752
   21SAPC   H4Y 2785   4.304   5.355  10.017 -1.1294  0.1436 -0.4119
   21SAPC   C35 2786   4.410   5.461   9.848 -0.0995  0.5928  0.0726
   21SAPC   H5X 2787   4.510   5.422   9.877 -0.4068 -0.7431 -0.5768
   21SAPC   H5Y 2788   4.428   5.568   9.823  1.5223  0.3264 -0.0222
   21SAPC   C36 2789   4.368   5.389   9.730  0.3194  1.0621  0.4126
   21SAPC   H6X 2790   4.437   5.390   9.644  0.2101 -2.2121  0.1662
   21SAPC   H6Y 2791   4.269   5.429   9.697 -0.2543 -0.9781 -0.4461
   21SAPC   C37 2792   4.352   5.233   9.746  0.1077  0.4783  1.4739
   21SAPC   H7X 2793   4.281   5.211   9.828 -1.3186  0.1766  0.2203
   21SAPC   H7Y 2794   4.454   5.194   9.765  0.9136  0.6490 -1.8971
   21SAPC   C38 2795   4.303   5.171   9.612  0.3712  0.3189  0.0821
   21SAPC   H8X 2796   4.200   5.203   9.586 -0.0393 -0.3268  0.8462
   21SAPC   H8Y 2797   4.284   5.062   9.628 -1.6083  0.8782  2.1886
   21SAPC   C39 2798   4.396   5.198   9.496  0.6815  0.4862  1.2455
   21SAPC   H9X 2799   4.500   5.179   9.531  1.2587 -2.7269 -1.6727
   21SAPC   H9Y 2800   4.380   5.297   9.448 -2.1673 -0.6386 -0.4045
   21SAPC  C310 2801   4.360   5.091   9.389  0.1049 -0.8321  0.2584
   21SAPC  H10X 2802   4.252   5.098   9.363  0.1755 -2.8036 -0.7463
   21SAPC  H10Y 2803   4.374   4.993   9.438 -2.2205 -1.8212 -0.9013
   21SAPC  C311 2804   4.439   5.093   9.261  0.0315  0.3904 -0.0858
   21SAPC  H11X 2805   4.443   4.995   9.209  2.3476  0.0394  0.6303
   21SAPC  H11Y 2806   4.543   5.118   9.290  0.1055 -0.3878  0.3389
   21SAPC  C312 2807   4.388   5.201   9.163  0.5069  0.3064 -0.0857
   21SAPC  H12X 2808   4.398   5.302   9.206  0.7712 -0.1359  0.9148
   21SAPC  H12Y 2809   4.279   5.192   9.143  0.4294 -1.7716  0.9898
   21SAPC  C313 2810   4.459   5.188   9.029  0.2432  0.4128 -0.0500
   21SAPC  H13X 2811   4.464   5.082   8.997 -1.2237 -0.8951  3.5515
   21SAPC  H13Y 2812   4.559   5.234   9.046  0.3199  0.0333  0.5622
   21SAPC  C314 2813   4.384   5.264   8.912  1.0414  0.0256 -0.1618
   21SAPC  H14X 2814   4.370   5.373   8.928  0.9382  0.1239 -0.9042
   21SAPC  H14Y 2815   4.280   5.227   8.927  1.4006 -0.4856  1.2465
   21SAPC  C315 2816   4.436   5.241   8.776  0.2134 -0.6114  0.0106
   21SAPC  H15X 2817   4.543   5.270   8.767  0.2372 -0.7071 -0.0149
   21SAPC  H15Y 2818   4.373   5.295   8.702 -1.0074 -1.7836  0.1312
   21SAPC  C316 2819   4.426   5.094   8.738  0.7851 -0.7531  0.4488
   21SAPC  H16X 2820   4.333   5.048   8.777 -0.4931  1.0903 -0.2603
   21SAPC  H16Y 2821   4.513   5.050   8.792  1.0449  0.0784  0.7246
   21SAPC  C317 2822   4.454   5.074   8.586  0.1794 -0.8367  0.1747
   21SAPC  H17X 2823   4.488   4.970   8.566  1.8975 -0.1088 -0.9739
   21SAPC  H17Y 2824   4.536   5.144   8.560 -0.6593 -0.3271 -1.2028
   21SAPC  C318 2825   4.330   5.100   8.498 -0.7685  0.3028 -0.6543
   21SAPC  H18X 2826   4.288   5.202   8.502 -3.4149 -0.7189  0.1547
   21SAPC  H18Y 2827   4.254   5.029   8.539 -1.4776  1.7981  0.7018
   21SAPC  H18Z 2828   4.348   5.077   8.390  0.0572 -0.6026 -0.3436
   22SAPC     N 2829   4.098   2.740  11.045  0.0224  0.0199 -0.1000
   22SAPC   C12 2830   4.027   2.633  10.975  0.4782 -0.0910 -0.4418
   22SAPC  H12A 2831   3.921   2.649  10.984  0.6443  0.7889  0.0107
   22SAPC  H12B 2832   4.045   2.538  11.023 -1.6967  0.1836  1.0546
   22SAPC   C13 2833   4.080   2.875  10.976 -0.4802  0.0456 -0.2996
   22SAPC  H13A 2834   4.161   2.944  10.997 -0.6306  0.2424 -0.3606
   22SAPC  H13B 2835   4.081   2.866  10.869  0.3359 -1.7204 -0.1705
   22SAPC  H13C 2836   3.990   2.925  11.008  0.0125  1.5269 -1.1032
   22SAPC   C14 2837   4.066   2.753  11.193  0.2247  0.5018  0.4372
   22SAPC  H14A 2838   4.121   2.676  11.245  0.4326  1.0059  0.9734
   22SAPC  H14B 2839   4.098   2.850  11.229 -0.4814  0.2552  1.8057
   22SAPC  H14C 2840   3.960   2.743  11.210  0.0681  0.6709 -0.4028
   22SAPC   C15 2841   4.248   2.714  11.035  0.3199 -0.6988  0.7850
   22SAPC  H15A 2842   4.308   2.783  11.092 -0.7472  0.5053  0.4994
   22SAPC  H15B 2843   4.263   2.614  11.075  0.0750 -0.5252  1.3227
   22SAPC  H15C 2844   4.272   2.709  10.930  0.1153 -0.1474  0.7122
   22SAPC   C11 2845   4.053   2.598  10.821 -0.7263  0.8520  0.3841
   22SAPC  H11A 2846   4.020   2.678  10.751  2.2257  0.7621 -1.2919
   22SAPC  H11B 2847   3.988   2.511  10.799 -2.0661  1.5845  1.2710
   22SAPC     P 2848   4.241   2.503  10.665 -0.5903 -0.3729 -0.3144
   22SAPC   O13 2849   4.388   2.527  10.647  1.3405  0.1177 -0.4339
   22SAPC   O14 2850   4.191   2.369  10.661  0.0394  0.7911  0.3425
   22SAPC   O12 2851   4.193   2.575  10.798 -0.8428  0.2951 -0.7654
   22SAPC   O11 2852   4.169   2.582  10.549 -0.7410  0.1251  0.4597
   22SAPC    C1 2853   4.221   2.692  10.472 -0.3350  0.1817 -0.3550
   22SAPC    HA 2854   4.332   2.684  10.472 -0.3002  0.5815  0.2901
   22SAPC    HB 2855   4.195   2.700  10.364 -1.4707 -2.0140 -0.2958
   22SAPC    C2 2856   4.196   2.837  10.541  0.9202  0.0589 -0.8818
   22SAPC    HS 2857   4.228   2.830  10.648  0.6549  1.2432 -0.7177
   22SAPC   O21 2858   4.047   2.859  10.532  0.2314  0.2020 -0.0301
   22SAPC   C21 2859   3.981   2.937  10.615 -1.2774 -0.0267 -0.4705
   22SAPC   O22 2860   4.034   3.003  10.701 -0.0239 -0.0709 -0.1429
   22SAPC   C22 2861   3.832   2.927  10.576 -0.1947  0.5082 -0.5920
   22SAPC   H2R 2862   3.794   2.829  10.613  0.1901 -0.1531 -1.8954
   22SAPC   H2S 2863   3.789   3.008  10.638 -0.5294  0.1830 -0.3946
   22SAPC    C3 2864   4.276   2.951  10.476 -0.1734 -0.3119  0.3799
   22SAPC    HX 2865   4.385   2.931  10.488  0.1408  0.6362 -0.7793
   22SAPC    HY 2866   4.258   3.043  10.535 -0.7710  1.3170 -2.2053
   22SAPC   O31 2867   4.241   2.964  10.333 -0.0531  0.2025  0.3815
   22SAPC   C31 2868   4.155   3.060  10.300 -0.1969  0.2915 -0.5625
   22SAPC   O32 2869   4.121   3.151  10.370 -0.1401 -0.4123 -0.0185
   22SAPC   C32 2870   4.114   3.041  10.154  0.0734  0.3740 -0.3645
   22SAPC   H2X 2871   4.035   2.963  10.154  0.3115  0.1249 -1.1624
   22SAPC   H2Y 2872   4.205   3.006  10.102  1.3591  0.5415  1.6533
   22SAPC   C23 2873   3.802   2.958  10.434  0.2040 -0.6225  0.6473
   22SAPC   H3R 2874   3.864   2.899  10.363  0.0861  1.1437 -0.9989
   22SAPC   H3S 2875   3.825   3.066  10.420 -0.4598 -0.5226  0.2927
   22SAPC   C24 2876   3.652   2.947  10.388 -0.7628  0.3705  0.0753
   22SAPC   H4R 2877   3.654   2.996  10.288  3.1906 -0.4655 -0.4224
   22SAPC   H4S 2878   3.591   3.013  10.453  0.6167  3.0850 -1.2230
   22SAPC   C25 2879   3.597   2.812  10.380 -0.3261  0.1285 -0.0289
   22SAPC   H5R 2880   3.542   2.781  10.470 -3.2164 -0.0013 -1.7081
   22SAPC   C26 2881   3.586   2.736  10.273  0.3395 -0.1912  0.1035
   22SAPC   H6R 2882   3.539   2.637  10.281 -0.6378  0.1679 -0.7992
   22SAPC   C27 2883   3.631   2.764  10.134 -0.4438  0.3684 -0.4444
   22SAPC   H7R 2884   3.606   2.867  10.102  0.4176  0.4535 -0.8659
   22SAPC   H7S 2885   3.575   2.706  10.057 -1.3600  1.7744 -0.8729
   22SAPC   C28 2886   3.773   2.757  10.098  0.0006 -0.3576 -0.8343
   22SAPC   H8R 2887   3.848   2.718  10.169  1.9513 -0.3215 -2.7658
   22SAPC   C29 2888   3.823   2.781   9.979  0.2671  0.0479  1.2485
   22SAPC   H9R 2889   3.926   2.749   9.956 -0.8284 -1.6604 -1.9832
   22SAPC  C210 2890   3.756   2.836   9.850  0.3884  0.0617 -0.3152
   22SAPC  H10R 2891   3.647   2.813   9.851 -0.2059  2.5628  0.3898
   22SAPC  H10S 2892   3.786   2.785   9.756 -1.2457  1.2165 -1.5375
   22SAPC  C211 2893   3.764   2.988   9.851 -0.6964 -0.6387  0.6187
   22SAPC  H11R 2894   3.779   3.031   9.951  1.6122 -1.8580  0.8510
   22SAPC  C212 2895   3.769   3.071   9.740  0.3670  0.4303 -0.5407
   22SAPC  H12R 2896   3.768   3.179   9.760  1.2869  0.5368 -0.9994
   22SAPC  C213 2897   3.771   3.023   9.597  0.7944 -0.2164 -0.3727
   22SAPC  H13R 2898   3.672   2.999   9.554  0.5014 -0.3354  0.3456
   22SAPC  H13S 2899   3.817   2.923   9.580  1.1396  0.4047 -3.6874
   22SAPC  C214 2900   3.846   3.109   9.497  0.0294  0.7761 -0.2786
   22SAPC  H14R 2901   3.870   3.210   9.535 -2.8577  1.3341  0.2737
   22SAPC  C215 2902   3.893   3.074   9.379  0.9574 -0.2843  0.0570
   22SAPC  H15R 2903   3.937   3.153   9.315  1.3353 -1.4449 -1.1505
   22SAPC  C216 2904   3.864   2.943   9.306  0.0816 -0.2513  0.2258
   22SAPC  H16R 2905   3.793   2.950   9.222 -0.2029  2.3975  0.6173
   22SAPC  H16S 2906   3.810   2.879   9.379  0.7974 -0.6439  0.4312
   22SAPC  C217 2907   3.994   2.869   9.275  0.3703 -1.4449 -0.2638
   22SAPC  H17R 2908   3.965   2.777   9.220 -1.2382  0.3549 -2.6807
   22SAPC  H17S 2909   4.042   2.838   9.370 -1.5379  0.4492  1.4239
   22SAPC  C218 2910   4.093   2.954   9.196 -0.4009  0.7442 -0.4448
   22SAPC  H18R 2911   4.183   2.895   9.169 -0.3590  0.5613  0.0786
   22SAPC  H18S 2912   4.119   3.044   9.256 -2.6382  0.9224  0.3425
   22SAPC  C219 2913   4.032   3.000   9.065  0.0911  0.0152  0.4095
   22SAPC  H19R 2914   4.117   3.048   9.012 -0.4723 -1.1646 -1.6743
   22SAPC  H19S 2915   3.950   3.074   9.072 -0.8218 -0.8675 -0.7335
   22SAPC  C220 2916   3.967   2.893   8.960 -0.8204 -0.6597  0.2802
   22SAPC  H20R 2917   4.020   2.795   8.954 -2.1019 -1.3915  0.5671
   22SAPC  H20S 2918   3.972   2.943   8.861 -0.0477 -0.8648  0.2061
   22SAPC  H20T 2919   3.861   2.875   8.986 -1.4857  0.6132 -1.4069
   22SAPC   C33 2920   4.064   3.174  10.086 -1.6069 -0.6045  0.5945
   22SAPC   H3X 2921   4.122   3.266  10.110 -1.0842  0.1930 -3.0845
   22SAPC   H3Y 2922   3.961   3.201  10.116 -0.9720  3.3501 -0.3028
   22SAPC   C34 2923   4.071   3.171   9.931  0.6956  0.7984  0.8274
   22SAPC   H4X 2924   4.022   3.256   9.879  0.0932  0.4945  0.8918
   22SAPC   H4Y 2925   3.999   3.090   9.908 -1.0845  1.8946  2.2575
   22SAPC   C35 2926   4.210   3.134   9.863 -0.0610 -0.2460 -0.6622
   22SAPC   H5X 2927   4.233   3.029   9.891  3.2667  0.6982  0.7284
   22SAPC   H5Y 2928   4.281   3.209   9.905 -0.9661  1.0587 -1.3912
   22SAPC   C36 2929   4.202   3.148   9.715 -0.0819  0.4914  0.1136
   22SAPC   H6X 2930   4.130   3.226   9.682 -0.1123 -0.5043 -2.4620
   22SAPC   H6Y 2931   4.165   3.051   9.674  0.8041 -0.3544  1.2294
   22SAPC   C37 2932   4.333   3.170   9.634 -0.1676  0.4829 -0.0965
   22SAPC   H7X 2933   4.397   3.081   9.654 -0.5915  0.4375  1.1039
   22SAPC   H7Y 2934   4.383   3.265   9.663  1.5331  0.0765 -1.4943
   22SAPC   C38 2935   4.303   3.178   9.480  0.2054  0.5094  0.2759
   22SAPC   H8X 2936   4.223   3.250   9.451 -1.1912 -1.1221 -0.0753
   22SAPC   H8Y 2937   4.259   3.082   9.445 -1.5661  0.6432  1.9970
   22SAPC   C39 2938   4.423   3.215   9.400 -0.4269  0.4528 -0.4924
   22SAPC   H9X 2939   4.488   3.126   9.416  0.6030  0.6692 -3.0040
   22SAPC   H9Y 2940   4.465   3.308   9.445 -0.8718  0.2330  0.4071
   22SAPC  C310 2941   4.388   3.217   9.253  0.8589  0.0851  0.0773
   22SAPC  H10X 2942   4.302   3.285   9.232 -0.3592 -1.4590 -0.1090
   22SAPC  H10Y 2943   4.346   3.118   9.226 -0.3320 -0.2652  2.8593
   22SAPC  C311 2944   4.517   3.252   9.170  0.0083  0.7687  0.0278
   22SAPC  H11X 2945   4.606   3.214   9.225  1.8861  0.7946 -2.7897
   22SAPC  H11Y 2946   4.540   3.360   9.173 -1.2779  1.1030 -1.1850
   22SAPC  C312 2947   4.501   3.199   9.023  0.2378  0.0561  0.2896
   22SAPC  H12X 2948   4.486   3.090   9.033 -0.2719  0.1782  0.9684
   22SAPC  H12Y 2949   4.593   3.201   8.962  0.5568 -0.0288  0.7672
   22SAPC  C313 2950   4.386   3.266   8.948  0.6475 -0.1136 -0.9698
   22SAPC  H13X 2951   4.403   3.375   8.957  1.2767 -0.1829 -1.2903
   22SAPC  H13Y 2952   4.279   3.254   8.977  0.1572  1.1848 -2.1239
   22SAPC  C314 2953   4.402   3.217   8.806 -0.3820 -0.7255  0.9313
   22SAPC  H14X 2954   4.506   3.189   8.779  0.0994  2.1261 -0.6828
   22SAPC  H14Y 2955   4.376   3.299   8.735  1.2969 -1.6549 -0.8371
   22SAPC  C315 2956   4.308   3.097   8.770  0.2842 -0.0657  0.4593
   22SAPC  H15X 2957   4.205   3.124   8.801  0.3736  0.3103  0.4404
   22SAPC  H15Y 2958   4.348   3.022   8.841  0.5872  0.3434  0.7248
   22SAPC  C316 2959   4.301   3.040   8.628 -0.0929  0.2454  0.8015
   22SAPC  H16X 2960   4.402   3.044   8.581 -0.4451 -1.3877 -0.1695
   22SAPC  H16Y 2961   4.234   3.108   8.571  0.1535  2.6509  3.1451
   22SAPC  C317 2962   4.250   2.898   8.634 -0.2790  0.2260  0.4184
   22SAPC  H17X 2963   4.214   2.867   8.534  0.8258  1.7837 -0.4993
   22SAPC  H17Y 2964   4.160   2.887   8.698 -0.4122  0.6599  0.3051
   22SAPC  C318 2965   4.341   2.787   8.679  0.4177 -0.3390 -0.0443
   22SAPC  H18X 2966   4.396   2.795   8.775  2.9589  0.0050 -1.4287
   22SAPC  H18Y 2967   4.430   2.764   8.616  0.8614 -2.4580  1.2603
   22SAPC  H18Z 2968   4.290   2.688   8.675  0.2501 -0.3082  1.0679
   23SAPC     N 2969   6.343   5.373  10.988  0.4817 -0.4541  0.5489
   23SAPC   C12 2970   6.223   5.436  10.928  0.4560 -0.5282  0.2714
   23SAPC  H12A 2971   6.216   5.537  10.966 -1.0397  0.2806 -1.9501
   23SAPC  H12B 2972   6.129   5.397  10.965  0.9384 -1.9043  0.0841
   23SAPC   C13 2973   6.381   5.249  10.914 -0.1363  0.0744  0.6083
   23SAPC  H13A 2974   6.407   5.274  10.812  1.5917 -0.3965  0.9012
   23SAPC  H13B 2975   6.461   5.192  10.960  0.6812 -0.2224 -1.0835
   23SAPC  H13C 2976   6.306   5.171  10.910  0.8290 -0.8639  0.1158
   23SAPC   C14 2977   6.457   5.468  10.970 -0.3179 -0.7010 -0.2898
   23SAPC  H14A 2978   6.553   5.428  10.996  0.6965  0.3856 -2.1481
   23SAPC  H14B 2979   6.458   5.513  10.872 -1.2455  0.7280  0.3090
   23SAPC  H14C 2980   6.451   5.548  11.043 -1.0894 -1.3370  0.3719
   23SAPC   C15 2981   6.322   5.358  11.134  0.2475 -0.2650 -0.2741
   23SAPC  H15A 2982   6.225   5.314  11.150 -0.2785  1.6007  2.2186
   23SAPC  H15B 2983   6.401   5.303  11.182 -0.5261 -1.6197 -0.5116
   23SAPC  H15C 2984   6.322   5.453  11.186  3.7175 -0.8993  1.1109
   23SAPC   C11 2985   6.210   5.460  10.775  0.3121  0.7405  0.0872
   23SAPC  H11A 2986   6.106   5.474  10.740  0.7101 -0.5825 -1.8128
   23SAPC  H11B 2987   6.229   5.361  10.726  2.3685  2.2754 -2.4897
   23SAPC     P 2988   6.235   5.704  10.684  0.0086 -0.3337  0.6404
   23SAPC   O13 2989   6.139   5.729  10.789 -0.7684 -0.6163  0.7410
   23SAPC   O14 2990   6.345   5.801  10.667 -1.0161  0.3117  0.3618
   23SAPC   O12 2991   6.291   5.562  10.709  0.3369  1.0755 -0.3746
   23SAPC   O11 2992   6.160   5.677  10.543 -0.1684 -0.4202 -0.2450
   23SAPC    C1 2993   6.255   5.640  10.439  0.5200  0.2409  0.0098
   23SAPC    HA 2994   6.334   5.718  10.434 -0.4929  1.4767  1.9017
   23SAPC    HB 2995   6.305   5.542  10.459 -1.2380 -0.2680  2.3717
   23SAPC    C2 2996   6.182   5.612  10.310  0.5665  0.5172  0.6685
   23SAPC    HS 2997   6.241   5.551  10.238 -1.5311  0.9787 -1.5703
   23SAPC   O21 2998   6.132   5.727  10.241 -0.9472 -0.2270  0.2245
   23SAPC   C21 2999   6.229   5.787  10.177 -0.3248  0.6536  0.2381
   23SAPC   O22 3000   6.344   5.744  10.176 -0.0866 -0.0038 -0.0958
   23SAPC   C22 3001   6.175   5.909  10.102 -0.1939  0.2175 -0.0618
   23SAPC   H2R 3002   6.081   5.881  10.049  0.6071 -2.1486 -0.3613
   23SAPC   H2S 3003   6.153   5.983  10.181 -1.3999 -0.4936  0.2954
   23SAPC    C3 3004   6.064   5.516  10.352 -0.3948  0.1425  0.3595
   23SAPC    HX 3005   5.988   5.564  10.417 -0.0385 -0.7454  1.4599
   23SAPC    HY 3006   6.100   5.439  10.424  0.1109  1.0552  1.0942
   23SAPC   O31 3007   6.002   5.455  10.243  0.5731  0.0770  0.0685
   23SAPC   C31 3008   5.914   5.524  10.175 -0.2418  0.5982  0.5613
   23SAPC   O32 3009   5.876   5.633  10.197  0.1908 -1.0168 -0.0207
   23SAPC   C32 3010   5.896   5.447  10.046  0.3600  0.9480  0.6285
   23SAPC   H2X 3011   5.798   5.395  10.041  1.6245 -1.4601 -1.4647
   23SAPC   H2Y 3012   5.980   5.376  10.029 -0.1584  1.0074 -3.0985
   23SAPC   C23 3013   6.282   5.970  10.000  0.4516  0.5188  0.1655
   23SAPC   H3R 3014   6.371   5.992  10.064  1.7219 -0.7304 -1.1043
   23SAPC   H3S 3015   6.247   6.064   9.953 -1.0356  0.1368  0.4577
   23SAPC   C24 3016   6.324   5.863   9.892 -0.4054  0.2197  0.6662
   23SAPC   H4R 3017   6.375   5.776   9.939  1.4192 -0.4232 -2.2533
   23SAPC   H4S 3018   6.409   5.898   9.830 -1.5913 -1.0666 -1.8438
   23SAPC   C25 3019   6.205   5.817   9.811 -0.7626  0.7313 -0.7649
   23SAPC   H5R 3020   6.153   5.734   9.861  1.1685 -0.5315 -0.7483
   23SAPC   C26 3021   6.155   5.880   9.709 -0.1023 -0.5617  1.1090
   23SAPC   H6R 3022   6.055   5.862   9.666  0.7397  1.1590 -1.8848
   23SAPC   C27 3023   6.224   6.008   9.654 -0.4125 -0.9168 -0.8507
   23SAPC   H7R 3024   6.274   6.058   9.740 -1.4306 -0.1372 -0.7017
   23SAPC   H7S 3025   6.142   6.076   9.623  1.0266  1.2324 -0.2246
   23SAPC   C28 3026   6.327   6.011   9.544 -0.3128  0.5228  0.9299
   23SAPC   H8R 3027   6.386   5.920   9.531 -0.4091  0.2318  2.3660
   23SAPC   C29 3028   6.353   6.109   9.456 -0.5851  0.3887 -0.2062
   23SAPC   H9R 3029   6.413   6.081   9.367 -3.3476 -4.4760 -0.9526
   23SAPC  C210 3030   6.283   6.242   9.453 -0.5709  0.1610 -1.3103
   23SAPC  H10R 3031   6.263   6.282   9.555 -0.2437  1.0235 -1.5759
   23SAPC  H10S 3032   6.179   6.225   9.417 -2.5862  2.2955  2.7681
   23SAPC  C211 3033   6.342   6.348   9.364  0.0244  0.0670  0.3089
   23SAPC  H11R 3034   6.419   6.411   9.410  0.5616  0.3074 -0.8844
   23SAPC  C212 3035   6.319   6.361   9.231  0.5183  0.0825  0.3193
   23SAPC  H12R 3036   6.359   6.448   9.177  0.6409 -0.5311 -0.6000
   23SAPC  C213 3037   6.233   6.281   9.133 -0.7213  0.0127  0.2966
   23SAPC  H13R 3038   6.223   6.172   9.156  0.0643 -0.0945  0.1728
   23SAPC  H13S 3039   6.295   6.283   9.041 -0.3883 -1.9649  0.4202
   23SAPC  C214 3040   6.090   6.335   9.110 -0.8082  0.4686 -0.3000
   23SAPC  H14R 3041   6.020   6.254   9.137 -0.8670 -0.1342 -2.0811
   23SAPC  C215 3042   6.039   6.445   9.052  0.4283  0.1371 -0.4706
   23SAPC  H15R 3043   5.930   6.452   9.063  0.3222 -2.2897  0.8500
   23SAPC  C216 3044   6.122   6.556   8.987  0.4895 -0.0181  0.8570
   23SAPC  H16R 3045   6.229   6.529   8.974  0.4130  0.4246 -1.0649
   23SAPC  H16S 3046   6.125   6.658   9.032 -0.0965  1.1555 -1.5608
   23SAPC  C217 3047   6.070   6.581   8.845 -0.1279  0.1138  0.1652
   23SAPC  H17R 3048   5.967   6.621   8.844 -0.2375 -0.1671 -0.2150
   23SAPC  H17S 3049   6.072   6.489   8.782 -1.0234  0.9659 -1.1444
   23SAPC  C218 3050   6.172   6.682   8.769 -0.2093 -0.2626  0.3252
   23SAPC  H18R 3051   6.145   6.676   8.662 -0.1244  1.0292  0.2202
   23SAPC  H18S 3052   6.273   6.643   8.791 -0.6787 -1.8223 -0.1656
   23SAPC  C219 3053   6.163   6.829   8.811 -0.6832 -0.1156  0.3311
   23SAPC  H19R 3054   6.206   6.839   8.913 -0.2672  2.1902 -0.0354
   23SAPC  H19S 3055   6.056   6.858   8.818 -0.2011  2.0788 -0.7765
   23SAPC  C220 3056   6.231   6.925   8.707 -0.5600 -0.4257 -0.9991
   23SAPC  H20R 3057   6.210   7.025   8.752 -4.0381 -1.2505 -0.4904
   23SAPC  H20S 3058   6.183   6.919   8.607  0.1046  1.7667 -1.4997
   23SAPC  H20T 3059   6.341   6.914   8.701 -0.4079  0.1334  0.3361
   23SAPC   C33 3060   5.901   5.542   9.920  0.3807 -0.1114  0.3896
   23SAPC   H3X 3061   6.001   5.590   9.928  0.1142  0.3467  1.0161
   23SAPC   H3Y 3062   5.828   5.624   9.934 -0.5969 -0.8249 -0.3846
   23SAPC   C34 3063   5.884   5.467   9.788 -0.7101  0.8633  0.3857
   23SAPC   H4X 3064   5.777   5.445   9.771 -0.2608  0.0345 -1.5732
   23SAPC   H4Y 3065   5.938   5.370   9.791 -2.0211  0.1275  0.5887
   23SAPC   C35 3066   5.946   5.535   9.659  0.2388  0.5397  0.0627
   23SAPC   H5X 3067   6.053   5.560   9.674  0.4659  0.5399 -1.4140
   23SAPC   H5Y 3068   5.893   5.631   9.644  0.0851  1.0388  3.1084
   23SAPC   C36 3069   5.925   5.451   9.531 -0.4001 -0.6075  0.0698
   23SAPC   H6X 3070   5.814   5.455   9.522 -0.2216 -0.4319 -2.8157
   23SAPC   H6Y 3071   5.956   5.345   9.542 -0.3951 -0.5967  0.1592
   23SAPC   C37 3072   5.990   5.521   9.410  0.1672  0.0094  0.3416
   23SAPC   H7X 3073   5.983   5.457   9.319 -0.1995 -1.9023  1.6687
   23SAPC   H7Y 3074   6.098   5.518   9.438 -0.5304  0.0970  3.3535
   23SAPC   C38 3075   5.937   5.659   9.375 -0.3098  0.1235  0.0042
   23SAPC   H8X 3076   5.922   5.728   9.461 -0.1079  1.6106 -1.1172
   23SAPC   H8Y 3077   5.833   5.650   9.338 -0.4914  2.0581 -0.0850
   23SAPC   C39 3078   6.016   5.720   9.261 -0.3850  0.1204  0.1340
   23SAPC   H9X 3079   5.948   5.791   9.210  1.3865  0.3665 -2.0390
   23SAPC   H9Y 3080   6.054   5.649   9.185  2.0255 -0.4352  1.7431
   23SAPC  C310 3081   6.132   5.811   9.307  0.7611  0.3505  0.4603
   23SAPC  H10X 3082   6.200   5.751   9.371 -0.7401 -1.7425  0.1966
   23SAPC  H10Y 3083   6.082   5.897   9.358 -1.4059  0.0974 -1.1169
   23SAPC  C311 3084   6.202   5.860   9.183  0.7460  0.2197 -0.1048
   23SAPC  H11X 3085   6.263   5.949   9.209 -0.5125  1.2212 -0.4856
   23SAPC  H11Y 3086   6.139   5.898   9.100  1.3882  1.1124 -0.2015
   23SAPC  C312 3087   6.285   5.759   9.107  0.0576 -1.4228 -0.0795
   23SAPC  H12X 3088   6.220   5.685   9.055  1.7629 -2.5587 -0.6849
   23SAPC  H12Y 3089   6.355   5.704   9.173 -0.3982 -0.0958  1.5672
   23SAPC  C313 3090   6.368   5.832   9.001  0.2579  0.4635 -0.1432
   23SAPC  H13X 3091   6.461   5.864   9.054 -1.2572  1.2135  2.2043
   23SAPC  H13Y 3092   6.312   5.925   8.979  0.5516  0.4716 -0.8716
   23SAPC  C314 3093   6.404   5.740   8.884  0.0016 -0.1896 -0.2040
   23SAPC  H14X 3094   6.318   5.732   8.813 -0.0473  0.2367 -0.1964
   23SAPC  H14Y 3095   6.410   5.634   8.917 -2.1235 -0.1978  0.3548
   23SAPC  C315 3096   6.513   5.794   8.797  0.1149  0.1724 -0.5857
   23SAPC  H15X 3097   6.600   5.786   8.865 -1.2150  1.7364  1.3872
   23SAPC  H15Y 3098   6.484   5.901   8.801 -2.0429 -0.3527 -0.7560
   23SAPC  C316 3099   6.547   5.745   8.659 -0.0640 -0.2541 -0.1212
   23SAPC  H16X 3100   6.459   5.740   8.592  0.0924 -1.9947 -0.2409
   23SAPC  H16Y 3101   6.580   5.641   8.681  0.3890  0.2615  1.8655
   23SAPC  C317 3102   6.665   5.832   8.602  0.4289  0.6063  0.6011
   23SAPC  H17X 3103   6.720   5.768   8.530  1.6378 -0.4453  2.3712
   23SAPC  H17Y 3104   6.734   5.874   8.679 -1.5695  3.5842  0.9497
   23SAPC  C318 3105   6.627   5.951   8.522  0.2903 -0.6333  0.0693
   23SAPC  H18X 3106   6.576   5.921   8.428 -0.7120  1.6220 -0.1716
   23SAPC  H18Y 3107   6.724   5.998   8.493 -0.1811 -0.6090 -1.5505
   23SAPC  H18Z 3108   6.567   6.028   8.574  0.9988  0.2410 -0.3713
   24SAPC     N 3109   1.563   3.566  11.104  0.3487 -0.5011  0.0153
   24SAPC   C12 3110   1.659   3.468  11.171  0.6727  0.4513 -0.2406
   24SAPC  H12A 3111   1.640   3.369  11.131 -0.2463 -0.5871  2.5126
   24SAPC  H12B 3112   1.649   3.470  11.279 -0.8364 -1.1989 -0.3057
   24SAPC   C13 3113   1.570   3.706  11.170 -0.0864  0.5332 -0.2130
   24SAPC  H13A 3114   1.670   3.746  11.164  0.4092 -0.6813 -0.3339
   24SAPC  H13B 3115   1.511   3.772  11.109 -0.0943 -1.4768 -2.4987
   24SAPC  H13C 3116   1.528   3.691  11.269 -1.3238 -2.1089 -1.0544
   24SAPC   C14 3117   1.596   3.576  10.963  0.2319 -0.3995  0.5052
   24SAPC  H14A 3118   1.544   3.650  10.905  0.6832 -1.6855 -1.6388
   24SAPC  H14B 3119   1.695   3.618  10.948 -0.9014  3.2111  2.0432
   24SAPC  H14C 3120   1.579   3.487  10.905  0.7582  1.1962 -2.2598
   24SAPC   C15 3121   1.426   3.514  11.111  0.0200 -0.5209  0.3925
   24SAPC  H15A 3122   1.366   3.591  11.067 -0.2732 -1.7592 -1.4869
   24SAPC  H15B 3123   1.396   3.428  11.053 -0.8279 -0.7167  1.1021
   24SAPC  H15C 3124   1.393   3.507  11.214 -2.1021 -1.1295 -0.2903
   24SAPC   C11 3125   1.813   3.490  11.148 -0.7050  0.3461 -0.4890
   24SAPC  H11A 3126   1.865   3.408  11.203 -1.2207  0.3688  0.0434
   24SAPC  H11B 3127   1.836   3.588  11.193  0.3691  0.2819 -0.8861
   24SAPC     P 3128   1.992   3.565  10.982 -0.1701 -0.0752 -0.0711
   24SAPC   O13 3129   1.966   3.713  11.000 -0.4849  0.1757  0.1035
   24SAPC   O14 3130   2.105   3.511  11.059  0.3114  0.1837 -0.7442
   24SAPC   O12 3131   1.855   3.494  11.011 -0.6704 -0.3663  0.0090
   24SAPC   O11 3132   2.007   3.537  10.826  0.7561  0.2664 -0.5880
   24SAPC    C1 3133   2.098   3.604  10.746  0.4141 -0.1746  0.3997
   24SAPC    HA 3134   2.095   3.713  10.767 -0.5476 -0.0267 -0.3734
   24SAPC    HB 3135   2.202   3.572  10.766 -0.1163 -2.6738 -0.4164
   24SAPC    C2 3136   2.063   3.575  10.600  0.6781 -1.0430  0.2427
   24SAPC    HS 3137   2.145   3.604  10.531 -1.7054 -0.7975 -2.7283
   24SAPC   O21 3138   1.933   3.638  10.559 -0.1602  0.2515  0.1186
   24SAPC   C21 3139   1.942   3.767  10.553 -0.3430 -0.4955 -0.9595
   24SAPC   O22 3140   2.041   3.837  10.569  0.4973  0.2020 -0.1261
   24SAPC   C22 3141   1.810   3.818  10.507 -0.5062  0.7907 -0.9868
   24SAPC   H2R 3142   1.753   3.757  10.433 -1.7263  0.9980 -0.2480
   24SAPC   H2S 3143   1.732   3.827  10.586 -1.3152 -0.3980 -1.6083
   24SAPC    C3 3144   2.059   3.422  10.564 -0.6447 -0.3109 -0.6978
   24SAPC    HX 3145   1.992   3.376  10.641  0.3003 -0.5425  0.0117
   24SAPC    HY 3146   2.164   3.387  10.576 -0.8392 -0.3260  1.5138
   24SAPC   O31 3147   2.015   3.402  10.425  0.3927  0.3423  0.1801
   24SAPC   C31 3148   2.002   3.276  10.391 -0.2665 -0.4721 -0.4774
   24SAPC   O32 3149   2.007   3.176  10.467  0.0307 -0.8216  0.0921
   24SAPC   C32 3150   1.970   3.280  10.242  0.3464 -0.3583 -0.1728
   24SAPC   H2X 3151   2.026   3.358  10.186 -1.2233 -0.6026 -2.1916
   24SAPC   H2Y 3152   1.865   3.313  10.228  0.5912 -0.4840 -2.7016
   24SAPC   C23 3153   1.832   3.958  10.443  0.1969 -0.6053 -0.9078
   24SAPC   H3R 3154   1.918   3.966  10.374  2.1222 -1.2844  1.2898
   24SAPC   H3S 3155   1.853   4.026  10.529 -2.2603 -2.2113  1.1324
   24SAPC   C24 3156   1.702   4.009  10.383 -0.0858  0.4316 -0.0487
   24SAPC   H4R 3157   1.702   3.958  10.284  0.0639  0.1611  0.0891
   24SAPC   H4S 3158   1.708   4.115  10.349  0.8852  0.1689 -0.7325
   24SAPC   C25 3159   1.566   4.006  10.456 -0.3432 -0.1560  0.0153
   24SAPC   H5R 3160   1.566   4.050  10.556  1.9371 -0.3428  0.1568
   24SAPC   C26 3161   1.456   3.950  10.407  0.1524  0.1904  0.4323
   24SAPC   H6R 3162   1.368   3.961  10.472 -0.4276  1.3952 -0.5219
   24SAPC   C27 3163   1.448   3.873  10.279  1.1890 -0.2595  0.6392
   24SAPC   H7R 3164   1.361   3.804  10.288  2.0467 -1.3060  1.2519
   24SAPC   H7S 3165   1.539   3.809  10.273  1.5210 -0.0460  2.6217
   24SAPC   C28 3166   1.434   3.956  10.151  0.3884  0.2371  0.7186
   24SAPC   H8R 3167   1.454   4.062  10.171  0.0216  0.6016 -0.7313
   24SAPC   C29 3168   1.410   3.908  10.029  0.9796 -0.0669  0.5998
   24SAPC   H9R 3169   1.397   3.979   9.945 -1.0495 -1.6607 -0.5399
   24SAPC  C210 3170   1.393   3.758   9.983 -1.1738 -0.6438  0.5179
   24SAPC  H10R 3171   1.370   3.701  10.075  0.3803  0.0521  1.3690
   24SAPC  H10S 3172   1.498   3.738   9.953 -0.7205  2.1457 -0.0219
   24SAPC  C211 3173   1.304   3.749   9.858  0.0516  0.1649 -0.0544
   24SAPC  H11R 3174   1.197   3.738   9.882 -0.1956 -2.1048 -1.8450
   24SAPC  C212 3175   1.342   3.730   9.735 -0.0060  0.1738 -0.0389
   24SAPC  H12R 3176   1.271   3.729   9.651  0.7238  2.4697 -0.7664
   24SAPC  C213 3177   1.486   3.732   9.683  0.2234  0.8051 -0.0137
   24SAPC  H13R 3178   1.542   3.665   9.752  1.3703  2.1873  0.4534
   24SAPC  H13S 3179   1.516   3.839   9.688  0.3749  0.7268  0.9518
   24SAPC  C214 3180   1.490   3.675   9.540 -0.2035 -0.3640  0.3633
   24SAPC  H14R 3181   1.407   3.642   9.475  0.2879  0.3668 -0.6612
   24SAPC  C215 3182   1.613   3.658   9.482 -0.0942  0.5631  0.9628
   24SAPC  H15R 3183   1.617   3.619   9.379  3.0799 -1.3476  1.6618
   24SAPC  C216 3184   1.748   3.690   9.528 -0.5890 -1.2730 -0.2997
   24SAPC  H16R 3185   1.749   3.751   9.621  0.7293  1.0076 -1.6912
   24SAPC  H16S 3186   1.806   3.750   9.454  1.1350 -0.4316  1.6194
   24SAPC  C217 3187   1.832   3.557   9.543 -0.2428  0.3158 -0.2185
   24SAPC  H17R 3188   1.823   3.496   9.451  1.1410 -0.8591  0.3742
   24SAPC  H17S 3189   1.789   3.507   9.633 -1.4197  3.7360  1.2928
   24SAPC  C218 3190   1.978   3.587   9.565 -0.1911  0.4279 -0.1076
   24SAPC  H18R 3191   1.987   3.632   9.667 -2.7131 -1.3372  0.9907
   24SAPC  H18S 3192   2.019   3.664   9.495  2.1707  1.1459  1.9067
   24SAPC  C219 3193   2.065   3.464   9.546 -0.1926  0.1230  0.6840
   24SAPC  H19R 3194   2.160   3.498   9.499 -0.8680 -0.2011 -0.9577
   24SAPC  H19S 3195   2.024   3.399   9.466 -2.3314 -0.0343  1.8390
   24SAPC  C220 3196   2.081   3.370   9.670  0.0496 -0.3155 -0.3531
   24SAPC  H20R 3197   2.000   3.294   9.676 -0.8476  0.5652 -0.9475
   24SAPC  H20S 3198   2.090   3.430   9.763 -1.7188  1.1427 -1.0628
   24SAPC  H20T 3199   2.176   3.312   9.665 -0.4120 -1.0874 -0.2866
   24SAPC   C33 3200   2.004   3.136  10.175  0.2534 -0.3109 -0.5140
   24SAPC   H3X 3201   1.918   3.068  10.191  0.2480 -0.3160 -0.5650
   24SAPC   H3Y 3202   2.096   3.110  10.232  0.0025 -0.8382 -0.3429
   24SAPC   C34 3203   2.019   3.141  10.022 -0.3127 -0.4254  0.0866
   24SAPC   H4X 3204   2.044   3.246   9.997  0.4507  0.1640  2.9808
   24SAPC   H4Y 3205   1.920   3.118   9.978 -1.4011  0.3821  1.9971
   24SAPC   C35 3206   2.123   3.050   9.968 -0.3344  0.4228 -0.2499
   24SAPC   H5X 3207   2.094   2.952  10.012 -2.1033  1.2434  0.4968
   24SAPC   H5Y 3208   2.224   3.074  10.007 -0.7194  0.4702  0.7355
   24SAPC   C36 3209   2.127   3.045   9.814 -0.0805 -0.4188 -0.8512
   24SAPC   H6X 3210   2.191   3.131   9.785  1.7167 -1.1008  0.8703
   24SAPC   H6Y 3211   2.023   3.069   9.785 -0.4287 -0.6077  0.2015
   24SAPC   C37 3212   2.172   2.915   9.745 -1.0760 -0.1356  0.2593
   24SAPC   H7X 3213   2.127   2.838   9.811 -3.8024 -0.2140 -1.5183
   24SAPC   H7Y 3214   2.280   2.923   9.769 -0.9467 -0.2769 -0.2574
   24SAPC   C38 3215   2.134   2.906   9.606 -0.4580 -0.4673  1.0473
   24SAPC   H8X 3216   2.023   2.917   9.599 -0.5580 -2.2430 -0.7083
   24SAPC   H8Y 3217   2.158   2.807   9.562 -3.2057 -0.3025 -1.1239
   24SAPC   C39 3218   2.223   3.015   9.531  0.5415 -0.3445  0.1069
   24SAPC   H9X 3219   2.329   2.991   9.554  1.3642  2.5390 -0.2979
   24SAPC   H9Y 3220   2.200   3.118   9.565  0.3904 -1.4532  3.7570
   24SAPC  C310 3221   2.197   3.010   9.380 -0.2249 -0.7865  0.2942
   24SAPC  H10X 3222   2.207   2.912   9.329 -1.0788 -1.6616  1.7598
   24SAPC  H10Y 3223   2.277   3.072   9.335  0.4728 -0.9989  1.2146
   24SAPC  C311 3224   2.060   3.058   9.340 -0.3649  0.0293 -0.3556
   24SAPC  H11X 3225   2.016   3.124   9.418  2.4986 -1.3419  2.6204
   24SAPC  H11Y 3226   1.996   2.968   9.332 -0.0097 -0.0836 -2.3731
   24SAPC  C312 3227   2.063   3.126   9.204 -0.0449 -0.4518 -0.0732
   24SAPC  H12X 3228   1.973   3.088   9.152  0.6391 -3.7702  0.9035
   24SAPC  H12Y 3229   2.155   3.097   9.148  0.2126 -2.6028  1.3201
   24SAPC  C313 3230   2.055   3.281   9.200  1.3952  0.1657  0.3501
   24SAPC  H13X 3231   2.137   3.333   9.255  1.0848  1.3970 -0.3042
   24SAPC  H13Y 3232   1.968   3.306   9.264 -0.3978 -1.6525 -1.2596
   24SAPC  C314 3233   2.038   3.352   9.066 -0.2950 -0.4558  0.5338
   24SAPC  H14X 3234   1.943   3.304   9.036 -0.2819 -1.8379  2.5295
   24SAPC  H14Y 3235   2.125   3.318   9.005 -0.5516  0.3320 -0.2967
   24SAPC  C315 3236   2.022   3.507   9.063  0.2980  0.8516  0.4176
   24SAPC  H15X 3237   2.020   3.521   8.953  1.5773  0.9358  0.3977
   24SAPC  H15Y 3238   2.109   3.566   9.100  1.5469  1.2312 -2.8577
   24SAPC  C316 3239   1.901   3.563   9.139  0.3854 -0.2713  0.5700
   24SAPC  H16X 3240   1.891   3.672   9.120  1.9689 -0.2715 -0.5105
   24SAPC  H16Y 3241   1.936   3.558   9.244 -0.4182 -0.0223  0.8571
   24SAPC  C317 3242   1.769   3.491   9.121  0.2015 -0.5956 -0.0741
   24SAPC  H17X 3243   1.684   3.542   9.171 -0.7118 -1.7103 -0.4266
   24SAPC  H17Y 3244   1.768   3.385   9.155 -0.7595 -0.0441  1.7509
   24SAPC  C318 3245   1.729   3.507   8.969 -0.3382 -0.2082  0.5443
   24SAPC  H18X 3246   1.756   3.613   8.947  0.4946 -0.2698  1.2435
   24SAPC  H18Y 3247   1.635   3.468   8.923 -0.4238 -2.6103  2.5449
   24SAPC  H18Z 3248   1.806   3.455   8.909  0.8531  1.1292  0.8649
   25SAPC     N 3249   3.559   5.831   6.002  0.6138 -0.0007 -0.2337
   25SAPC   C12 3250   3.635   5.859   6.134 -0.6110 -0.8493 -0.7816
   25SAPC  H12A 3251   3.677   5.768   6.173 -1.1718 -0.8151 -0.0587
   25SAPC  H12B 3252   3.571   5.905   6.209  1.7657  0.5473  0.5079
   25SAPC   C13 3253   3.450   5.733   6.032 -0.0991  0.3412  0.0835
   25SAPC  H13A 3254   3.413   5.748   6.133 -0.4695  0.7467 -0.1073
   25SAPC  H13B 3255   3.376   5.734   5.953  1.7215 -2.5792 -1.8439
   25SAPC  H13C 3256   3.490   5.633   6.027 -0.1743  0.3324 -0.4433
   25SAPC   C14 3257   3.499   5.966   5.956 -0.6378  0.0213  1.3632
   25SAPC  H14A 3258   3.448   5.949   5.862  0.9753 -0.1113  0.4642
   25SAPC  H14B 3259   3.433   6.011   6.029  0.9224 -0.2680  3.0113
   25SAPC  H14C 3260   3.574   6.041   5.935 -0.7468  1.0140  4.1537
   25SAPC   C15 3261   3.647   5.784   5.894 -0.2031  0.1379 -0.3888
   25SAPC  H15A 3262   3.724   5.857   5.871 -0.6748  0.5114 -0.8174
   25SAPC  H15B 3263   3.700   5.693   5.919 -3.0766 -2.1878 -2.0976
   25SAPC  H15C 3264   3.587   5.765   5.806 -1.5267  0.5506  0.3932
   25SAPC   C11 3265   3.765   5.945   6.126  0.7883 -0.1840  0.3657
   25SAPC  H11A 3266   3.787   5.981   6.229  0.4479  1.2510 -0.0404
   25SAPC  H11B 3267   3.736   6.033   6.064 -0.8652 -1.2769 -0.4822
   25SAPC     P 3268   3.974   5.768   6.124  0.3271  0.1119  0.2721
   25SAPC   O13 3269   3.896   5.649   6.170 -0.3502 -0.1991 -0.1282
   25SAPC   O14 3270   4.085   5.745   6.028  0.2580 -0.4396  0.2807
   25SAPC   O12 3271   3.877   5.878   6.062  0.5513 -0.2094  0.1637
   25SAPC   O11 3272   4.035   5.835   6.256 -0.0384 -0.2476  0.5157
   25SAPC    C1 3273   4.090   5.970   6.265  0.0889 -0.3917  0.0160
   25SAPC    HA 3274   4.063   6.040   6.183  1.1234 -0.5922 -0.5137
   25SAPC    HB 3275   4.057   6.017   6.360  3.5365 -0.0135  1.1568
   25SAPC    C2 3276   4.240   5.958   6.261 -0.5755 -0.2795 -0.1538
   25SAPC    HS 3277   4.270   5.884   6.185  2.5322 -0.3639  1.0271
   25SAPC   O21 3278   4.284   5.916   6.387 -0.1435  0.2900  0.0485
   25SAPC   C21 3279   4.413   5.868   6.384 -0.1978  0.8675  0.6471
   25SAPC   O22 3280   4.479   5.867   6.283 -0.8699 -0.0205  0.1817
   25SAPC   C22 3281   4.446   5.809   6.512 -0.8684 -0.3303  0.5548
   25SAPC   H2R 3282   4.395   5.711   6.517  0.7136 -1.1946  0.3256
   25SAPC   H2S 3283   4.554   5.791   6.531 -0.3258  0.2777 -1.6197
   25SAPC    C3 3284   4.309   6.094   6.228 -1.1296  0.0599  0.4747
   25SAPC    HX 3285   4.270   6.113   6.126 -1.6299  2.2998  1.0254
   25SAPC    HY 3286   4.416   6.087   6.202 -1.5108 -1.3925 -0.8846
   25SAPC   O31 3287   4.274   6.203   6.314 -0.2321 -0.3304  0.2233
   25SAPC   C31 3288   4.360   6.213   6.414 -0.2439  0.2291 -0.8569
   25SAPC   O32 3289   4.468   6.158   6.426  0.2702 -0.1675 -0.5008
   25SAPC   C32 3290   4.302   6.317   6.512 -0.5220  0.2346 -0.4191
   25SAPC   H2X 3291   4.194   6.304   6.536 -0.6098  1.7179  0.0633
   25SAPC   H2Y 3292   4.300   6.418   6.466  1.6560  0.6001  0.1828
   25SAPC   C23 3293   4.406   5.887   6.639 -0.0697 -0.1836 -0.2256
   25SAPC   H3R 3294   4.305   5.933   6.631 -0.0555 -0.0454  0.3594
   25SAPC   H3S 3295   4.470   5.977   6.650  1.9113 -1.4858 -0.6901
   25SAPC   C24 3296   4.432   5.799   6.766 -0.6591  0.2876  0.4498
   25SAPC   H4R 3297   4.535   5.760   6.780 -0.7919  0.5322  2.2657
   25SAPC   H4S 3298   4.361   5.714   6.760 -0.4707  0.1795 -0.3764
   25SAPC   C25 3299   4.402   5.882   6.886  0.9733 -0.3431  0.6148
   25SAPC   H5R 3300   4.399   5.992   6.884 -1.4881 -0.3595 -0.6036
   25SAPC   C26 3301   4.392   5.822   7.005 -0.4022  0.0363  0.0088
   25SAPC   H6R 3302   4.393   5.878   7.100 -0.5237  0.2610 -0.1220
   25SAPC   C27 3303   4.402   5.671   7.029  0.5398 -0.4022  0.2624
   25SAPC   H7R 3304   4.488   5.637   7.091  0.9642 -0.3173 -0.2798
   25SAPC   H7S 3305   4.418   5.610   6.938  2.5162  3.0840 -1.9257
   25SAPC   C28 3306   4.270   5.624   7.094 -0.0780  0.8063 -0.2994
   25SAPC   H8R 3307   4.204   5.568   7.026  0.6168  0.3758 -0.6334
   25SAPC   C29 3308   4.242   5.637   7.230 -0.0549  0.0272  1.1805
   25SAPC   H9R 3309   4.147   5.594   7.263 -0.4693  0.1914  0.2505
   25SAPC  C210 3310   4.325   5.703   7.337 -0.1591 -0.4324 -0.1124
   25SAPC  H10R 3311   4.421   5.724   7.286 -0.4245 -0.2217 -0.5300
   25SAPC  H10S 3312   4.348   5.622   7.409  1.9037  1.3181  1.3228
   25SAPC  C211 3313   4.264   5.827   7.403  0.0557 -0.3320 -0.2623
   25SAPC  H11R 3314   4.234   5.907   7.333 -2.4288  0.7190  1.8524
   25SAPC  C212 3315   4.232   5.850   7.529 -0.4176 -0.3878 -0.1057
   25SAPC  H12R 3316   4.189   5.950   7.548  0.1260  0.3031 -2.2278
   25SAPC  C213 3317   4.251   5.761   7.653  0.4818  0.5946 -0.4204
   25SAPC  H13R 3318   4.355   5.771   7.691 -0.1312  0.8427  1.2909
   25SAPC  H13S 3319   4.234   5.653   7.634 -1.3309  0.3886  1.9169
   25SAPC  C214 3320   4.160   5.796   7.765  0.0876  0.2926 -0.1524
   25SAPC  H14R 3321   4.058   5.760   7.745 -0.8714  3.1160 -0.8225
   25SAPC  C215 3322   4.192   5.862   7.883  0.2835  0.4152 -0.1250
   25SAPC  H15R 3323   4.108   5.886   7.950 -0.1103 -1.4095  0.1060
   25SAPC  C216 3324   4.326   5.913   7.924 -0.4325  0.2194  0.8041
   25SAPC  H16R 3325   4.332   6.016   7.880  1.2309 -0.8415 -1.6874
   25SAPC  H16S 3326   4.406   5.858   7.871 -2.8951 -1.6675 -1.2425
   25SAPC  C217 3327   4.347   5.922   8.079 -0.2532 -0.3047  0.5123
   25SAPC  H17R 3328   4.456   5.934   8.093  0.0268 -1.2459 -0.7532
   25SAPC  H17S 3329   4.323   5.833   8.141  1.3300 -0.0836  1.5001
   25SAPC  C218 3330   4.265   6.033   8.147 -0.3778  0.6084 -0.1109
   25SAPC  H18R 3331   4.161   5.998   8.167  0.2984 -2.6702 -1.5542
   25SAPC  H18S 3332   4.264   6.122   8.080 -1.3163 -0.6231 -1.8182
   25SAPC  C219 3333   4.336   6.070   8.286 -0.2604  0.0252  0.1988
   25SAPC  H19R 3334   4.273   6.154   8.324 -0.5784 -0.1730  0.1113
   25SAPC  H19S 3335   4.432   6.113   8.251 -0.5111  0.6205  0.2200
   25SAPC  C220 3336   4.335   5.953   8.391 -0.6263 -0.3732  0.0060
   25SAPC  H20R 3337   4.408   5.875   8.362 -2.2836 -1.7702 -0.6092
   25SAPC  H20S 3338   4.232   5.913   8.379 -1.4816  1.6412  0.1454
   25SAPC  H20T 3339   4.336   5.995   8.494 -1.4497  0.4349 -0.2975
   25SAPC   C33 3340   4.389   6.303   6.641 -0.3282  0.3168 -0.1727
   25SAPC   H3X 3341   4.489   6.349   6.627 -0.8024  2.0640  1.6692
   25SAPC   H3Y 3342   4.400   6.195   6.665  0.5137  0.2767 -0.6941
   25SAPC   C34 3343   4.330   6.363   6.773  0.8450  0.0642 -0.6561
   25SAPC   H4X 3344   4.239   6.301   6.782  2.2624 -2.2157 -1.2204
   25SAPC   H4Y 3345   4.294   6.465   6.749 -2.4024 -1.4976 -3.1904
   25SAPC   C35 3346   4.428   6.354   6.885 -0.1502 -0.0125 -0.8678
   25SAPC   H5X 3347   4.523   6.403   6.855 -0.4088  0.6703 -0.5726
   25SAPC   H5Y 3348   4.454   6.248   6.909  1.1877  1.0560  3.2130
   25SAPC   C36 3349   4.381   6.430   7.014  0.3137  0.3186 -0.0144
   25SAPC   H6X 3350   4.369   6.539   6.994 -1.6227  0.1152 -0.1885
   25SAPC   H6Y 3351   4.453   6.421   7.098  1.0217 -2.8172 -0.8136
   25SAPC   C37 3352   4.246   6.358   7.060 -0.5509 -0.3061 -0.4549
   25SAPC   H7X 3353   4.166   6.382   6.987 -0.8471  0.2831  0.0546
   25SAPC   H7Y 3354   4.211   6.391   7.160  3.4447  0.0804  0.9840
   25SAPC   C38 3355   4.254   6.214   7.107 -0.5580  0.1130 -0.1838
   25SAPC   H8X 3356   4.279   6.142   7.026 -0.5775 -1.1501  0.9116
   25SAPC   H8Y 3357   4.157   6.183   7.151 -0.2307  0.8693  1.1211
   25SAPC   C39 3358   4.349   6.182   7.231 -0.2825  0.8018 -0.2837
   25SAPC   H9X 3359   4.448   6.232   7.218  0.2524 -0.0281  0.4313
   25SAPC   H9Y 3360   4.356   6.071   7.235  1.2964  0.8208 -1.2169
   25SAPC  C310 3361   4.273   6.233   7.356 -0.0810  0.6645  0.5815
   25SAPC  H10X 3362   4.188   6.162   7.350  1.3389 -1.0275 -0.6320
   25SAPC  H10Y 3363   4.229   6.334   7.341  1.9791  1.8488  1.9784
   25SAPC  C311 3364   4.346   6.225   7.485  0.0446 -0.2508 -0.1266
   25SAPC  H11X 3365   4.442   6.281   7.479  0.7601 -1.4507 -0.2435
   25SAPC  H11Y 3366   4.378   6.122   7.513  0.6226 -0.0687 -0.1099
   25SAPC  C312 3367   4.255   6.270   7.604  0.4418  0.1011  0.0979
   25SAPC  H12X 3368   4.182   6.190   7.631 -0.7131  0.8653 -0.7012
   25SAPC  H12Y 3369   4.194   6.359   7.578  0.6027  1.1117  2.8387
   25SAPC  C313 3370   4.346   6.293   7.715  0.3651  0.0273  0.7578
   25SAPC  H13X 3371   4.428   6.361   7.683 -0.1226  0.5319  0.5626
   25SAPC  H13Y 3372   4.395   6.196   7.740  1.8113  0.5390  0.0092
   25SAPC  C314 3373   4.273   6.356   7.836 -0.2598  0.4032 -0.0041
   25SAPC  H14X 3374   4.192   6.286   7.864 -1.3019  2.0631  1.3637
   25SAPC  H14Y 3375   4.227   6.455   7.817  0.7523  1.0370  0.7411
   25SAPC  C315 3376   4.362   6.365   7.965  0.3581 -0.3317 -0.1277
   25SAPC  H15X 3377   4.443   6.437   7.941  0.7825 -0.0323  1.9955
   25SAPC  H15Y 3378   4.395   6.262   7.989 -1.8152 -1.0905 -0.1381
   25SAPC  C316 3379   4.281   6.419   8.077  0.2305 -0.6700 -0.1063
   25SAPC  H16X 3380   4.195   6.358   8.113 -1.6962  1.2728 -1.1256
   25SAPC  H16Y 3381   4.244   6.517   8.040  1.6170  0.0289  0.2830
   25SAPC  C317 3382   4.356   6.455   8.203 -0.1422  0.5729  0.4058
   25SAPC  H17X 3383   4.451   6.510   8.187 -0.6971  1.4827  0.1933
   25SAPC  H17Y 3384   4.384   6.358   8.251 -0.1087  0.3148 -0.1292
   25SAPC  C318 3385   4.269   6.524   8.309  0.0060 -0.4252 -0.1630
   25SAPC  H18X 3386   4.179   6.464   8.335 -0.2459  0.6305  1.5918
   25SAPC  H18Y 3387   4.236   6.624   8.274  0.2312 -0.3199 -0.0711
   25SAPC  H18Z 3388   4.325   6.550   8.401 -0.2075 -0.2603 -0.0791
   26SAPC     N 3389   4.017   3.591   5.873 -0.5309 -0.5006  0.2204
   26SAPC   C12 3390   3.922   3.664   5.965 -0.3705 -0.0595  0.6698
   26SAPC  H12A 3391   3.851   3.586   5.989  0.8438 -1.7331 -0.8643
   26SAPC  H12B 3392   3.877   3.740   5.902 -0.8866 -0.3083  0.7292
   26SAPC   C13 3393   4.076   3.472   5.943  0.6205  0.0431 -0.2143
   26SAPC  H13A 3394   4.137   3.513   6.022  0.8948 -0.4591 -0.1596
   26SAPC  H13B 3395   4.002   3.417   6.001 -0.1038 -0.0438 -1.2016
   26SAPC  H13C 3396   4.154   3.419   5.890  1.5858  0.7005  0.5203
   26SAPC   C14 3397   3.936   3.551   5.747 -0.5527  0.2036  0.2238
   26SAPC  H14A 3398   3.896   3.638   5.696  0.2848 -0.4600 -1.6906
   26SAPC  H14B 3399   4.007   3.506   5.679 -1.4048  1.3451 -1.4985
   26SAPC  H14C 3400   3.858   3.480   5.769 -0.6099 -0.3724 -1.6016
   26SAPC   C15 3401   4.124   3.694   5.824 -0.3136 -0.0523  0.2234
   26SAPC  H15A 3402   4.079   3.785   5.788  0.4543 -0.9534 -3.3742
   26SAPC  H15B 3403   4.193   3.713   5.905 -1.9441  2.3727  1.1522
   26SAPC  H15C 3404   4.181   3.651   5.744  1.4960  0.9909  0.9055
   26SAPC   C11 3405   3.982   3.734   6.092  0.1815  0.7090  0.0578
   26SAPC  H11A 3406   3.901   3.795   6.137 -0.4898  0.2175 -0.4700
   26SAPC  H11B 3407   4.053   3.816   6.063 -0.2629  1.1074  0.0878
   26SAPC     P 3408   4.164   3.638   6.247 -0.5068 -0.2608 -0.1527
   26SAPC   O13 3409   4.206   3.506   6.292  0.1432  0.2155 -0.1802
   26SAPC   O14 3410   4.254   3.712   6.154 -0.2722 -0.2915 -0.2748
   26SAPC   O12 3411   4.018   3.638   6.192  0.1938  0.8937  0.0051
   26SAPC   O11 3412   4.136   3.730   6.375 -0.3815 -0.7110  0.2707
   26SAPC    C1 3413   4.025   3.719   6.469 -0.3753  0.8589  0.5942
   26SAPC    HA 3414   3.946   3.789   6.436  0.0778  0.6083 -1.0902
   26SAPC    HB 3415   3.981   3.618   6.483 -3.7578  2.1223 -0.1125
   26SAPC    C2 3416   4.075   3.761   6.605  0.4198 -0.0564  0.2104
   26SAPC    HS 3417   4.098   3.870   6.603 -0.6334  0.1741 -1.2076
   26SAPC   O21 3418   4.179   3.671   6.642 -0.2102 -0.4304  0.7838
   26SAPC   C21 3419   4.302   3.721   6.641 -0.2136 -0.2542  0.1002
   26SAPC   O22 3420   4.337   3.838   6.617 -0.3108 -0.7343  0.1661
   26SAPC   C22 3421   4.402   3.606   6.683  0.9797 -0.3332  0.5481
   26SAPC   H2R 3422   4.356   3.508   6.705 -1.6526  0.1142 -2.3431
   26SAPC   H2S 3423   4.470   3.597   6.596  1.9416  1.1217  1.1018
   26SAPC    C3 3424   3.965   3.751   6.707  0.3725  0.7576 -0.0528
   26SAPC    HX 3425   3.928   3.647   6.706  2.8746 -0.1993  0.2990
   26SAPC    HY 3426   3.883   3.819   6.676  0.9540  1.3973 -0.2206
   26SAPC   O31 3427   4.015   3.788   6.839 -0.0189 -0.2867 -0.6726
   26SAPC   C31 3428   3.946   3.738   6.939 -0.6610 -0.5745  1.1573
   26SAPC   O32 3429   3.849   3.665   6.930 -0.5368  0.5557  0.5188
   26SAPC   C32 3430   4.006   3.790   7.070 -0.1763 -0.0762  0.8945
   26SAPC   H2X 3431   4.045   3.892   7.052 -0.2768  0.1901  2.0774
   26SAPC   H2Y 3432   4.094   3.722   7.081  1.2724  1.5408 -0.2156
   26SAPC   C23 3433   4.478   3.652   6.812  0.0336  0.6784  0.4506
   26SAPC   H3R 3434   4.530   3.747   6.786 -0.1994  0.4363 -0.9879
   26SAPC   H3S 3435   4.567   3.588   6.829  1.6125  1.7651 -2.7798
   26SAPC   C24 3436   4.378   3.670   6.936  0.4003 -0.1596 -0.7324
   26SAPC   H4R 3437   4.318   3.762   6.914 -1.7729 -0.9404  1.4001
   26SAPC   H4S 3438   4.437   3.704   7.024  2.4821  2.9106 -3.1146
   26SAPC   C25 3439   4.271   3.561   6.968  0.5693  0.2002 -0.2625
   26SAPC   H5R 3440   4.196   3.534   6.893 -0.2808  1.0413  0.2595
   26SAPC   C26 3441   4.282   3.487   7.081 -1.7542 -0.1333  0.1108
   26SAPC   H6R 3442   4.209   3.405   7.090 -2.0939  0.0727 -0.6610
   26SAPC   C27 3443   4.382   3.494   7.193 -0.2762  0.3443  0.5134
   26SAPC   H7R 3444   4.483   3.492   7.148 -0.6352 -1.8996 -0.3339
   26SAPC   H7S 3445   4.370   3.402   7.255  0.9322  0.7202  1.3298
   26SAPC   C28 3446   4.361   3.621   7.273  0.0251  0.4542 -0.1750
   26SAPC   H8R 3447   4.364   3.723   7.232  2.0388  0.7507  0.5636
   26SAPC   C29 3448   4.323   3.629   7.398  0.4271  0.7139  0.1104
   26SAPC   H9R 3449   4.326   3.724   7.453 -0.9205  0.6226  0.3772
   26SAPC  C210 3450   4.287   3.512   7.491 -0.1767 -0.6311  0.3088
   26SAPC  H10R 3451   4.372   3.504   7.563  2.5739  0.2023 -2.6413
   26SAPC  H10S 3452   4.285   3.414   7.438  1.9707  0.1630 -1.3911
   26SAPC  C211 3453   4.156   3.528   7.573 -0.1430 -0.4889 -0.6457
   26SAPC  H11R 3454   4.066   3.495   7.519 -0.7516 -0.9778  0.6308
   26SAPC  C212 3455   4.135   3.573   7.699 -0.1475  0.1164  0.3609
   26SAPC  H12R 3456   4.032   3.563   7.735 -0.0126 -1.2822  0.3889
   26SAPC  C213 3457   4.232   3.624   7.801 -0.0701 -0.0142  0.4585
   26SAPC  H13R 3458   4.234   3.734   7.788 -1.1714  0.0708  0.9043
   26SAPC  H13S 3459   4.334   3.584   7.782  0.7647  0.0370  4.1523
   26SAPC  C214 3460   4.184   3.585   7.941 -0.1478  0.3793  0.0869
   26SAPC  H14R 3461   4.075   3.569   7.937  0.2005 -2.1470 -1.4510
   26SAPC  C215 3462   4.252   3.576   8.059  0.3097 -0.1763  0.4344
   26SAPC  H15R 3463   4.203   3.534   8.149 -0.2426  0.2560  0.3360
   26SAPC  C216 3464   4.399   3.607   8.071  0.3455 -0.0254 -0.2282
   26SAPC  H16R 3465   4.461   3.588   7.980 -1.2363 -0.9787 -1.1494
   26SAPC  H16S 3466   4.422   3.535   8.152 -1.7290 -0.5132 -0.0164
   26SAPC  C217 3467   4.437   3.755   8.119 -0.1165 -0.0109  0.2462
   26SAPC  H17R 3468   4.379   3.832   8.063 -1.4272 -0.3331  1.1181
   26SAPC  H17S 3469   4.544   3.768   8.090  0.4421 -0.5021  1.9752
   26SAPC  C218 3470   4.436   3.782   8.269 -0.0269  0.3267 -1.0825
   26SAPC  H18R 3471   4.501   3.705   8.317  1.5723  3.3726  2.0710
   26SAPC  H18S 3472   4.335   3.765   8.312  0.9456 -0.6973  0.9537
   26SAPC  C219 3473   4.476   3.922   8.320 -0.2864  0.5484  0.9581
   26SAPC  H19R 3474   4.560   3.961   8.259 -1.2987  2.1588  0.5450
   26SAPC  H19S 3475   4.516   3.903   8.422 -1.2004  1.1256  1.4397
   26SAPC  C220 3476   4.363   4.025   8.317 -0.1088 -0.5961 -0.3913
   26SAPC  H20R 3477   4.323   4.030   8.213 -1.2240 -1.6282 -0.0378
   26SAPC  H20S 3478   4.399   4.115   8.371 -1.4897 -0.3463  0.1683
   26SAPC  H20T 3479   4.274   3.987   8.371 -0.6223  1.7700  0.5501
   26SAPC   C33 3480   3.908   3.776   7.186 -0.2183  0.4336 -0.5473
   26SAPC   H3X 3481   3.847   3.683   7.177 -2.7193  1.9720 -0.4624
   26SAPC   H3Y 3482   3.838   3.861   7.194 -0.6779  0.1242 -1.2613
   26SAPC   C34 3483   3.978   3.754   7.319 -0.3654  0.4060 -0.5364
   26SAPC   H4X 3484   4.067   3.821   7.314  0.5136 -0.8343 -2.4272
   26SAPC   H4Y 3485   4.021   3.652   7.328 -2.9415 -0.7705 -0.7779
   26SAPC   C35 3486   3.890   3.771   7.447  0.4007 -0.5361  0.3849
   26SAPC   H5X 3487   3.807   3.844   7.437  0.2678 -0.7746 -0.2874
   26SAPC   H5Y 3488   3.952   3.798   7.535 -2.2182  0.3011  2.0990
   26SAPC   C36 3489   3.818   3.640   7.486 -0.0128  0.3227  0.5260
   26SAPC   H6X 3490   3.877   3.562   7.539 -1.3269 -0.3890  1.0009
   26SAPC   H6Y 3491   3.786   3.595   7.390 -0.5878  0.7118  0.5332
   26SAPC   C37 3492   3.689   3.655   7.552  0.2095  0.1973 -0.0501
   26SAPC   H7X 3493   3.658   3.552   7.578  1.1033 -0.5054 -1.6587
   26SAPC   H7Y 3494   3.618   3.707   7.484 -0.3239 -0.5628 -0.0852
   26SAPC   C38 3495   3.698   3.740   7.680 -1.0300  0.1110  0.3168
   26SAPC   H8X 3496   3.746   3.838   7.654 -1.5795  0.0323 -1.0864
   26SAPC   H8Y 3497   3.771   3.693   7.749 -0.6031 -1.4495 -1.1368
   26SAPC   C39 3498   3.565   3.771   7.753  0.2523  0.4097  0.2010
   26SAPC   H9X 3499   3.486   3.695   7.733 -1.0270  1.5879  0.6597
   26SAPC   H9Y 3500   3.538   3.866   7.702  3.8337  2.0252  1.0376
   26SAPC  C310 3501   3.585   3.795   7.903 -0.0672 -0.1025 -0.6153
   26SAPC  H10X 3502   3.683   3.846   7.915 -0.3995  0.3733  0.1388
   26SAPC  H10Y 3503   3.599   3.695   7.949  1.2913  1.0952  1.7998
   26SAPC  C311 3504   3.478   3.882   7.962  0.2785  0.2149  0.1309
   26SAPC  H11X 3505   3.380   3.834   7.941  0.0503  0.5774  0.3631
   26SAPC  H11Y 3506   3.486   3.983   7.916  0.7311  0.2720  0.3249
   26SAPC  C312 3507   3.489   3.903   8.113  0.1023 -0.2212 -0.0565
   26SAPC  H12X 3508   3.533   3.811   8.156 -1.3650 -0.8806  0.0991
   26SAPC  H12Y 3509   3.386   3.913   8.152  1.6973  2.2681  4.2267
   26SAPC  C313 3510   3.572   4.035   8.137 -0.8436  0.0004  0.3327
   26SAPC  H13X 3511   3.545   4.122   8.074  0.8729  1.1832  1.1421
   26SAPC  H13Y 3512   3.676   4.003   8.114 -0.7579 -0.5844  1.4798
   26SAPC  C314 3513   3.563   4.096   8.278 -0.5754 -0.3199 -0.1034
   26SAPC  H14X 3514   3.626   4.037   8.348  0.4141  1.1035  0.2624
   26SAPC  H14Y 3515   3.458   4.089   8.313  0.2729 -1.0987  2.5359
   26SAPC  C315 3516   3.598   4.249   8.275  0.0558  0.3539  0.2088
   26SAPC  H15X 3517   3.515   4.303   8.223 -0.4151  0.5442  1.1394
   26SAPC  H15Y 3518   3.692   4.274   8.222  0.6592  0.5388  1.3394
   26SAPC  C316 3519   3.628   4.313   8.417 -0.1714 -0.1788 -0.4379
   26SAPC  H16X 3520   3.698   4.241   8.465 -1.8507 -0.3586  1.9150
   26SAPC  H16Y 3521   3.531   4.302   8.471  0.2802  0.9322  0.6408
   26SAPC  C317 3522   3.681   4.458   8.413  0.6636  0.5247 -0.4901
   26SAPC  H17X 3523   3.606   4.529   8.373 -0.5700 -1.7795 -2.4549
   26SAPC  H17Y 3524   3.751   4.443   8.328 -0.3547 -0.1795 -1.2269
   26SAPC  C318 3525   3.740   4.511   8.548  0.1489 -0.5999  0.3516
   26SAPC  H18X 3526   3.781   4.428   8.610 -1.1293 -1.1394  0.4944
   26SAPC  H18Y 3527   3.660   4.555   8.611  0.5805  0.4141  0.2049
   26SAPC  H18Z 3528   3.806   4.598   8.530  1.3061 -1.7499 -1.2779
   27SAPC     N 3529   2.558   2.885   6.486  0.5100 -0.7724  0.9969
   27SAPC   C12 3530   2.478   2.790   6.579  0.8375  0.1294  0.2529
   27SAPC  H12A 3531   2.548   2.722   6.625 -0.6413 -0.6046  1.4978
   27SAPC  H12B 3532   2.415   2.721   6.525  0.3423  0.1346  0.8211
   27SAPC   C13 3533   2.461   2.970   6.402  0.1362  0.3512  0.7374
   27SAPC  H13A 3534   2.502   2.989   6.304 -3.6079 -1.0029 -1.3296
   27SAPC  H13B 3535   2.372   2.915   6.375 -0.6621  1.6324  0.6786
   27SAPC  H13C 3536   2.432   3.059   6.455 -0.5133  0.0596  0.8864
   27SAPC   C14 3537   2.643   2.973   6.564 -1.4024  0.4873  0.2223
   27SAPC  H14A 3538   2.586   3.035   6.631 -0.5248  0.3368  1.1195
   27SAPC  H14B 3539   2.711   2.916   6.626 -3.3017  0.3348  2.2721
   27SAPC  H14C 3540   2.693   3.045   6.500 -1.7926  1.2212  0.7279
   27SAPC   C15 3541   2.636   2.805   6.391  1.7738 -0.9307  0.3168
   27SAPC  H15A 3542   2.693   2.864   6.321 -0.6632  0.1387 -0.9178
   27SAPC  H15B 3543   2.700   2.740   6.448  3.0724 -1.7973 -2.0186
   27SAPC  H15C 3544   2.574   2.739   6.332  1.5974 -0.6770  0.2107
   27SAPC   C11 3545   2.390   2.857   6.685 -0.8988 -0.7918  0.4644
   27SAPC  H11A 3546   2.433   2.932   6.755 -0.8672  0.1184 -0.5051
   27SAPC  H11B 3547   2.357   2.787   6.765 -0.1375 -0.6489  0.9084
   27SAPC     P 3548   2.146   2.862   6.585  0.0964  0.0503 -0.2481
   27SAPC   O13 3549   2.092   2.948   6.474 -0.8139  0.5440  0.1282
   27SAPC   O14 3550   2.160   2.717   6.555 -0.3349 -0.3173  0.0806
   27SAPC   O12 3551   2.281   2.923   6.628 -0.0003  0.6539  0.3479
   27SAPC   O11 3552   2.055   2.885   6.714  0.0956 -0.2181 -0.4177
   27SAPC    C1 3553   1.993   3.017   6.732  0.0864 -0.0614 -0.6414
   27SAPC    HA 3554   1.949   3.054   6.637  0.1366 -1.4330 -1.2268
   27SAPC    HB 3555   1.912   3.010   6.807  0.8272 -2.2323  0.0487
   27SAPC    C2 3556   2.099   3.122   6.787 -0.4248  0.0123  0.7536
   27SAPC    HS 3557   2.182   3.119   6.713 -0.5029  0.6310  0.6377
   27SAPC   O21 3558   2.135   3.076   6.917  0.7718 -0.0292 -0.5324
   27SAPC   C21 3559   2.257   3.108   6.960 -0.5165 -0.9202 -0.2262
   27SAPC   O22 3560   2.339   3.164   6.886  0.6731  0.0467  1.0679
   27SAPC   C22 3561   2.272   3.078   7.110  0.4159 -0.0119 -0.4735
   27SAPC   H2R 3562   2.229   3.163   7.168  1.0083 -0.4550  0.6548
   27SAPC   H2S 3563   2.210   2.994   7.148  0.1680  0.8467  1.1491
   27SAPC    C3 3564   2.038   3.263   6.795 -0.0317  0.4297  0.2629
   27SAPC    HX 3565   2.016   3.283   6.688  3.0542 -0.4869 -0.6623
   27SAPC    HY 3566   2.120   3.333   6.821  1.0788 -1.4284  2.0321
   27SAPC   O31 3567   1.926   3.270   6.884 -0.2087  0.4400 -0.6297
   27SAPC   C31 3568   1.958   3.300   7.004  1.0502 -0.3436  0.2579
   27SAPC   O32 3569   2.066   3.328   7.055  0.3238  0.3643 -0.1885
   27SAPC   C32 3570   1.821   3.293   7.082 -0.3944  0.5634 -0.0620
   27SAPC   H2X 3571   1.749   3.228   7.027  0.4146 -1.1950  0.8849
   27SAPC   H2Y 3572   1.781   3.397   7.091 -4.2658 -0.6802 -0.7338
   27SAPC   C23 3573   2.417   3.062   7.174  0.7987 -0.4880  0.9235
   27SAPC   H3R 3574   2.477   3.136   7.116 -0.7301  0.5952  0.6839
   27SAPC   H3S 3575   2.456   2.962   7.144 -1.3993 -0.9030 -0.8076
   27SAPC   C24 3576   2.433   3.079   7.323 -0.1335 -0.7416  0.4488
   27SAPC   H4R 3577   2.376   3.170   7.352  1.9743  0.9622 -0.4683
   27SAPC   H4S 3578   2.541   3.103   7.323 -0.2337 -0.1738 -1.1554
   27SAPC   C25 3579   2.398   2.948   7.397  0.6893  0.3109 -0.1550
   27SAPC   H5R 3580   2.303   2.904   7.363  0.3374  0.3762  0.7243
   27SAPC   C26 3581   2.472   2.878   7.487  0.0390 -1.1113 -0.2608
   27SAPC   H6R 3582   2.424   2.786   7.524 -1.6866 -0.3454 -0.4604
   27SAPC   C27 3583   2.604   2.919   7.549 -0.5033 -0.0323  0.5591
   27SAPC   H7R 3584   2.685   2.941   7.475 -1.8613  1.9605 -0.4156
   27SAPC   H7S 3585   2.648   2.831   7.602  2.5741 -1.8138 -4.2041
   27SAPC   C28 3586   2.593   3.042   7.631  0.0914 -0.0901  0.4679
   27SAPC   H8R 3587   2.623   3.131   7.573 -1.7034  0.7774  0.7975
   27SAPC   C29 3588   2.560   3.048   7.759  0.3421  0.4111 -0.6033
   27SAPC   H9R 3589   2.540   3.147   7.803 -0.7448  0.7763 -1.8560
   27SAPC  C210 3590   2.521   2.929   7.846 -0.3137 -0.0770 -0.2220
   27SAPC  H10R 3591   2.500   2.842   7.780 -0.5166 -0.2891  0.1227
   27SAPC  H10S 3592   2.426   2.947   7.901 -0.1875 -0.6919  0.2135
   27SAPC  C211 3593   2.616   2.893   7.957 -0.1898 -0.5417 -0.2397
   27SAPC  H11R 3594   2.713   2.880   7.907  0.1984  0.2796  0.2814
   27SAPC  C212 3595   2.609   2.868   8.091 -0.3833 -0.0873 -0.2020
   27SAPC  H12R 3596   2.696   2.822   8.140 -0.3877 -0.3925 -0.4867
   27SAPC  C213 3597   2.483   2.880   8.166  0.1577 -0.4732  0.0134
   27SAPC  H13R 3598   2.425   2.786   8.155  0.6023 -0.7885  0.3282
   27SAPC  H13S 3599   2.432   2.961   8.109  0.3434  1.3150  2.2400
   27SAPC  C214 3600   2.493   2.915   8.310 -0.3427 -0.4531 -1.0820
   27SAPC  H14R 3601   2.406   2.978   8.331  0.2777 -0.3764  1.5663
   27SAPC  C215 3602   2.553   2.850   8.413  0.3270 -0.2400  0.5680
   27SAPC  H15R 3603   2.545   2.894   8.514  1.4353  0.1637  0.4974
   27SAPC  C216 3604   2.648   2.732   8.407 -0.1132 -0.3735 -0.4092
   27SAPC  H16R 3605   2.673   2.706   8.302 -1.6535 -1.0473 -0.6460
   27SAPC  H16S 3606   2.600   2.646   8.459  0.4896 -1.3070 -1.3516
   27SAPC  C217 3607   2.784   2.745   8.474  0.0018 -0.8590 -0.5299
   27SAPC  H17R 3608   2.770   2.752   8.584 -2.1478  1.0124 -0.8495
   27SAPC  H17S 3609   2.830   2.841   8.440  0.1218 -1.2070 -1.3833
   27SAPC  C218 3610   2.875   2.628   8.440  0.3194 -0.2327  0.4129
   27SAPC  H18R 3611   2.903   2.645   8.334 -1.5634  0.8614  0.0452
   27SAPC  H18S 3612   2.816   2.535   8.454  1.1637 -0.4846  2.6222
   27SAPC  C219 3613   3.003   2.622   8.529 -0.5513  0.4330  0.7123
   27SAPC  H19R 3614   3.055   2.717   8.506  0.4969 -0.4782 -0.8825
   27SAPC  H19S 3615   3.083   2.551   8.497  0.4305  1.4840  0.7979
   27SAPC  C220 3616   2.989   2.598   8.672  0.5171  0.1349 -1.2035
   27SAPC  H20R 3617   3.088   2.600   8.723  0.3936  0.3550 -0.9694
   27SAPC  H20S 3618   2.950   2.495   8.687  0.6438  0.2270 -0.2225
   27SAPC  H20T 3619   2.919   2.660   8.732  2.1624  0.7963  0.1046
   27SAPC   C33 3620   1.833   3.225   7.224  0.3706  0.4700 -0.0889
   27SAPC   H3X 3621   1.733   3.227   7.273 -0.4054 -3.2734 -1.2086
   27SAPC   H3Y 3622   1.899   3.292   7.283  1.8887 -0.7694 -0.2980
   27SAPC   C34 3623   1.877   3.080   7.214  0.2964  0.7534 -1.2748
   27SAPC   H4X 3624   1.987   3.083   7.199  0.5689 -0.6854  0.1237
   27SAPC   H4Y 3625   1.814   3.033   7.134 -1.2181 -0.5540  0.5906
   27SAPC   C35 3626   1.850   2.995   7.340 -0.2968  0.1413  0.2239
   27SAPC   H5X 3627   1.876   2.888   7.325  4.0735  1.0083  0.2599
   27SAPC   H5Y 3628   1.744   3.010   7.372  0.0713  2.4258  0.5173
   27SAPC   C36 3629   1.936   3.052   7.462  0.9006  0.0876 -1.2452
   27SAPC   H6X 3630   1.890   3.150   7.486 -1.9214 -1.6942  1.4876
   27SAPC   H6Y 3631   2.042   3.057   7.431  0.8323  0.5272 -1.4104
   27SAPC   C37 3632   1.913   2.971   7.592 -0.0315  0.6035 -0.1954
   27SAPC   H7X 3633   1.959   2.870   7.588  1.1758  1.0550  1.2209
   27SAPC   H7Y 3634   1.802   2.964   7.602  0.1012  0.5480  1.4920
   27SAPC   C38 3635   1.969   3.018   7.729  0.7213  0.1372  0.1191
   27SAPC   H8X 3636   1.922   3.115   7.753  2.3907  1.1061 -0.3677
   27SAPC   H8Y 3637   2.079   3.035   7.732  0.6541  0.4467  2.8373
   27SAPC   C39 3638   1.927   2.924   7.847 -0.7505 -0.8243 -0.1027
   27SAPC   H9X 3639   1.954   2.818   7.829 -1.9744 -1.1576 -0.0299
   27SAPC   H9Y 3640   1.818   2.929   7.864 -0.7850  0.5216 -0.5724
   27SAPC  C310 3641   1.989   2.967   7.983 -0.1285  0.1470  0.1002
   27SAPC  H10X 3642   1.956   3.067   8.018  1.7311  0.4029  1.2315
   27SAPC  H10Y 3643   2.096   2.971   7.956  0.3345 -3.0570  1.0490
   27SAPC  C311 3644   1.975   2.866   8.102 -0.5270 -0.0752 -0.2314
   27SAPC  H11X 3645   2.002   2.762   8.072 -0.0579  0.2237 -0.8845
   27SAPC  H11Y 3646   1.871   2.875   8.140 -1.0767 -0.4313 -1.5845
   27SAPC  C312 3647   2.059   2.907   8.226 -0.0276 -0.1093 -1.1632
   27SAPC  H12X 3648   2.045   3.017   8.238 -1.5876 -0.4343  0.4059
   27SAPC  H12Y 3649   2.164   2.874   8.210  0.0618 -0.8851  0.7662
   27SAPC  C313 3650   2.018   2.822   8.352 -0.0593  0.2483 -0.2462
   27SAPC  H13X 3651   2.028   2.714   8.328 -1.7899  0.4695 -2.1706
   27SAPC  H13Y 3652   1.915   2.836   8.391  1.0469  0.8818  2.7005
   27SAPC  C314 3653   2.104   2.861   8.473  0.4803 -0.5788 -0.0694
   27SAPC  H14X 3654   2.117   2.971   8.479  0.3699 -0.6141  1.0743
   27SAPC  H14Y 3655   2.198   2.806   8.448 -0.3390 -1.4832 -1.2861
   27SAPC  C315 3656   2.049   2.834   8.615  0.2062  0.5462  0.2131
   27SAPC  H15X 3657   2.063   2.728   8.645 -1.8363 -0.3820 -1.7734
   27SAPC  H15Y 3658   1.941   2.857   8.607  0.1072  0.4783  1.2378
   27SAPC  C316 3659   2.107   2.931   8.718 -0.0055 -0.0636  0.4708
   27SAPC  H16X 3660   2.077   3.035   8.695  2.6003  0.2640 -1.9242
   27SAPC  H16Y 3661   2.217   2.937   8.707 -0.2232  1.5631 -1.3243
   27SAPC  C317 3662   2.052   2.891   8.853 -0.1457 -0.7898 -0.1703
   27SAPC  H17X 3663   2.110   2.945   8.931  1.9891  0.0124 -2.2113
   27SAPC  H17Y 3664   2.062   2.782   8.867  0.3213 -0.4192  3.4002
   27SAPC  C318 3665   1.907   2.934   8.874  0.2965  0.3013  0.1596
   27SAPC  H18X 3666   1.877   2.909   8.979 -0.0143  0.5727  0.1367
   27SAPC  H18Y 3667   1.832   2.889   8.806 -0.9852  0.1685  1.5926
   27SAPC  H18Z 3668   1.903   3.044   8.861 -1.5107  0.4781  1.7462
   28SAPC     N 3669   1.564   6.058   6.218  0.2080 -0.4563 -0.0397
   28SAPC   C12 3670   1.467   6.023   6.332 -0.1733 -0.2054 -0.9726
   28SAPC  H12A 3671   1.522   5.950   6.390  3.3757  1.6869 -1.6638
   28SAPC  H12B 3672   1.374   5.979   6.297 -1.8227  2.5748 -0.3903
   28SAPC   C13 3673   1.594   5.932   6.148 -0.5607 -0.3479 -0.4861
   28SAPC  H13A 3674   1.650   5.862   6.208 -0.1995  1.0648  0.9039
   28SAPC  H13B 3675   1.502   5.879   6.126 -0.6756 -0.0345 -0.7722
   28SAPC  H13C 3676   1.657   5.950   6.063  2.8944 -0.1065  1.8981
   28SAPC   C14 3677   1.502   6.154   6.130  0.0500 -0.1034  0.3736
   28SAPC  H14A 3678   1.416   6.107   6.084  1.4366 -2.4470  0.0132
   28SAPC  H14B 3679   1.461   6.240   6.179  1.0795  1.6797 -1.7154
   28SAPC  H14C 3680   1.562   6.189   6.047 -3.9029 -0.9596 -3.1964
   28SAPC   C15 3681   1.691   6.122   6.273  0.5095  0.0299  0.6286
   28SAPC  H15A 3682   1.746   6.165   6.190 -0.8784  1.9415  0.6336
   28SAPC  H15B 3683   1.669   6.205   6.338 -0.5407  0.7653 -0.6312
   28SAPC  H15C 3684   1.754   6.051   6.326 -1.4911 -0.6279  2.2645
   28SAPC   C11 3685   1.440   6.139   6.434 -0.9242  0.6249  0.3487
   28SAPC  H11A 3686   1.542   6.158   6.474 -0.5466 -2.5389  1.1219
   28SAPC  H11B 3687   1.382   6.090   6.515  1.8837 -0.1215  2.0476
   28SAPC     P 3688   1.233   6.276   6.374 -0.5006 -0.5274  0.0593
   28SAPC   O13 3689   1.203   6.352   6.246 -0.2451  0.1254 -0.5308
   28SAPC   O14 3690   1.163   6.152   6.395 -0.1544  0.3523  0.2409
   28SAPC   O12 3691   1.396   6.261   6.380 -0.0833 -0.3037 -0.5001
   28SAPC   O11 3692   1.203   6.367   6.494  0.4209 -0.0719  0.1312
   28SAPC    C1 3693   1.294   6.464   6.537 -0.4047  0.6324 -0.4161
   28SAPC    HA 3694   1.368   6.489   6.459 -0.0406 -1.1236 -0.6758
   28SAPC    HB 3695   1.237   6.553   6.573 -0.9325  0.4529 -0.8030
   28SAPC    C2 3696   1.359   6.402   6.671 -0.1202 -0.4104 -0.5619
   28SAPC    HS 3697   1.418   6.313   6.643  1.0639  0.0530  0.3824
   28SAPC   O21 3698   1.256   6.366   6.763  0.2743 -0.5483 -0.3625
   28SAPC   C21 3699   1.237   6.250   6.791 -0.1799  0.0388  0.2493
   28SAPC   O22 3700   1.311   6.155   6.759  0.7223 -0.5870 -0.7476
   28SAPC   C22 3701   1.107   6.247   6.869  0.3184  0.9047 -0.1032
   28SAPC   H2R 3702   1.117   6.331   6.942  0.9437 -0.0761  0.9743
   28SAPC   H2S 3703   1.028   6.277   6.796  1.3742 -0.0988 -1.7082
   28SAPC    C3 3704   1.457   6.491   6.736  0.1495  0.8145 -0.0241
   28SAPC    HX 3705   1.414   6.594   6.740 -0.4643  0.5997 -0.6419
   28SAPC    HY 3706   1.536   6.490   6.658 -1.1380 -4.2243 -1.6590
   28SAPC   O31 3707   1.499   6.440   6.860  0.0758 -0.3407  0.3191
   28SAPC   C31 3708   1.606   6.492   6.905  0.1623  0.2791  0.2445
   28SAPC   O32 3709   1.681   6.566   6.842  0.0872  0.0786 -0.4670
   28SAPC   C32 3710   1.649   6.419   7.031 -0.0817 -0.2191 -0.1984
   28SAPC   H2X 3711   1.735   6.476   7.071 -0.2735 -0.4981  0.6287
   28SAPC   H2Y 3712   1.687   6.317   7.006 -1.3259 -1.4970  2.7203
   28SAPC   C23 3713   1.084   6.110   6.945  0.8986  0.0934 -0.3445
   28SAPC   H3R 3714   1.157   6.106   7.029  2.5978  1.7010 -1.6762
   28SAPC   H3S 3715   1.096   6.023   6.877 -1.9262 -1.3039  0.8049
   28SAPC   C24 3716   0.942   6.107   7.011  0.5150  0.8074  0.3832
   28SAPC   H4R 3717   0.869   6.136   6.934 -1.1402 -0.2075  1.5157
   28SAPC   H4S 3718   0.920   6.001   7.035  2.8980 -0.2862 -1.7745
   28SAPC   C25 3719   0.929   6.190   7.137 -0.0585 -0.1961  0.1555
   28SAPC   H5R 3720   0.971   6.148   7.229 -0.6605  0.1852  0.6124
   28SAPC   C26 3721   0.879   6.314   7.151 -0.0091  0.4656 -0.1580
   28SAPC   H6R 3722   0.883   6.361   7.250 -0.1101  1.7558 -0.7549
   28SAPC   C27 3723   0.822   6.402   7.049  0.7309 -0.1993  0.9851
   28SAPC   H7R 3724   0.896   6.391   6.967  0.7518  0.1273  0.9601
   28SAPC   H7S 3725   0.831   6.511   7.068 -0.5967  0.5710 -2.2599
   28SAPC   C28 3726   0.689   6.365   6.990 -0.2140 -0.3067  0.6069
   28SAPC   H8R 3727   0.694   6.265   6.945  3.2193 -0.2607  0.6084
   28SAPC   C29 3728   0.577   6.443   6.975 -0.3073  0.6823 -0.3965
   28SAPC   H9R 3729   0.487   6.397   6.932  0.7289 -0.8059 -1.0649
   28SAPC  C210 3730   0.570   6.589   7.016  1.0238 -0.6270 -0.0292
   28SAPC  H10R 3731   0.671   6.636   7.015  0.6044  0.3012  0.8265
   28SAPC  H10S 3732   0.525   6.599   7.117  0.6650 -0.7085 -0.1799
   28SAPC  C211 3733   0.467   6.652   6.928 -0.5095  0.1218  0.7218
   28SAPC  H11R 3734   0.424   6.590   6.848  2.2772  0.5695 -1.2523
   28SAPC  C212 3735   0.403   6.771   6.952 -0.1713 -0.9218 -0.0366
   28SAPC  H12R 3736   0.320   6.795   6.884 -0.4099  2.9867  1.4027
   28SAPC  C213 3737   0.421   6.865   7.066 -0.4216  0.1031  0.5609
   28SAPC  H13R 3738   0.475   6.955   7.029 -1.7439  0.5854 -0.2958
   28SAPC  H13S 3739   0.488   6.819   7.141 -0.5516  1.9188  1.8512
   28SAPC  C214 3740   0.287   6.917   7.116  0.3515 -0.7571 -0.8366
   28SAPC  H14R 3741   0.230   6.979   7.046 -0.8411 -0.0686  0.6837
   28SAPC  C215 3742   0.225   6.883   7.231 -0.1964  0.2371 -0.1635
   28SAPC  H15R 3743   0.136   6.938   7.266 -0.2363  0.0750 -0.0057
   28SAPC  C216 3744   0.287   6.782   7.326  0.3603  0.5136 -0.9439
   28SAPC  H16R 3745   0.391   6.752   7.300 -0.0797 -2.1311  0.0445
   28SAPC  H16S 3746   0.229   6.688   7.334 -0.3510  1.0810  1.6698
   28SAPC  C217 3747   0.299   6.837   7.469  0.5706 -0.5901  0.0035
   28SAPC  H17R 3748   0.210   6.898   7.497  2.4615  2.5469 -0.2959
   28SAPC  H17S 3749   0.387   6.904   7.470  0.3098 -0.2458  0.9694
   28SAPC  C218 3750   0.318   6.725   7.572  0.1896  0.4619 -0.2141
   28SAPC  H18R 3751   0.381   6.645   7.527 -1.8671  1.0594 -4.7052
   28SAPC  H18S 3752   0.217   6.679   7.577  0.4225 -0.0063  0.3050
   28SAPC  C219 3753   0.360   6.772   7.710  0.1540 -0.8204  0.1601
   28SAPC  H19R 3754   0.278   6.841   7.737  0.6000 -0.6400  1.0760
   28SAPC  H19S 3755   0.452   6.835   7.705 -0.2909 -0.0957  0.9702
   28SAPC  C220 3756   0.376   6.661   7.818  0.2131 -0.2315  0.9990
   28SAPC  H20R 3757   0.275   6.634   7.854  0.2460 -0.8548  0.6443
   28SAPC  H20S 3758   0.451   6.684   7.897  0.6518  0.5464  0.3771
   28SAPC  H20T 3759   0.424   6.573   7.770  0.5195 -0.8677  2.4310
   28SAPC   C33 3760   1.543   6.396   7.137  0.1256  0.6623 -0.2121
   28SAPC   H3X 3761   1.457   6.343   7.090 -1.3899  2.6785  0.1426
   28SAPC   H3Y 3762   1.501   6.494   7.168  1.8859  1.6847 -0.8718
   28SAPC   C34 3763   1.590   6.311   7.256  0.2195  0.2567  0.1025
   28SAPC   H4X 3764   1.681   6.363   7.294  1.1004  0.5894 -2.3043
   28SAPC   H4Y 3765   1.611   6.208   7.223 -0.3411  0.3632 -0.6006
   28SAPC   C35 3766   1.475   6.308   7.358 -0.6339 -0.4869 -0.2332
   28SAPC   H5X 3767   1.380   6.301   7.302  0.2032 -1.4976 -1.5809
   28SAPC   H5Y 3768   1.478   6.408   7.408  1.6213 -0.8901  0.5663
   28SAPC   C36 3769   1.480   6.197   7.454 -0.2111  0.1923 -0.7523
   28SAPC   H6X 3770   1.453   6.105   7.398 -1.8931  1.2354 -1.7217
   28SAPC   H6Y 3771   1.414   6.223   7.539  1.6306  0.6295  0.6172
   28SAPC   C37 3772   1.613   6.183   7.523  0.4904 -0.7742 -0.4728
   28SAPC   H7X 3773   1.659   6.282   7.544  1.3388 -0.8716 -1.7491
   28SAPC   H7Y 3774   1.686   6.128   7.460 -0.1670 -0.6693 -1.3311
   28SAPC   C38 3775   1.616   6.107   7.655  0.6588  0.1078  0.9006
   28SAPC   H8X 3776   1.722   6.078   7.667  1.6227  2.3119 -1.4128
   28SAPC   H8Y 3777   1.549   6.018   7.653  2.6901 -1.5144  1.2159
   28SAPC   C39 3778   1.581   6.192   7.775  0.0650  0.0643  0.0047
   28SAPC   H9X 3779   1.485   6.242   7.749 -0.3138 -1.3087 -1.3417
   28SAPC   H9Y 3780   1.644   6.284   7.771  0.5602 -0.2528  0.5045
   28SAPC  C310 3781   1.582   6.119   7.907 -0.2838 -0.7268  0.5022
   28SAPC  H10X 3782   1.687   6.092   7.930  0.5234  0.3923 -1.6366
   28SAPC  H10Y 3783   1.524   6.025   7.899  0.6450 -1.1400 -2.5467
   28SAPC  C311 3784   1.519   6.200   8.023 -0.3648 -0.2662  0.6960
   28SAPC  H11X 3785   1.410   6.187   8.006 -0.5569  0.4022  1.3629
   28SAPC  H11Y 3786   1.549   6.306   8.005 -2.9185  0.2499 -0.9440
   28SAPC  C312 3787   1.558   6.148   8.157 -0.0569  0.0340 -0.5187
   28SAPC  H12X 3788   1.668   6.134   8.163  0.0560  0.8216 -0.7408
   28SAPC  H12Y 3789   1.527   6.045   8.186  2.0786 -0.1750  1.3483
   28SAPC  C313 3790   1.518   6.241   8.276 -0.9391 -0.5523 -0.2266
   28SAPC  H13X 3791   1.415   6.212   8.307  0.0663 -0.6719  3.5507
   28SAPC  H13Y 3792   1.530   6.349   8.254 -0.9820  0.0090  2.1411
   28SAPC  C314 3793   1.603   6.203   8.396  0.0993 -0.0138 -0.6216
   28SAPC  H14X 3794   1.710   6.234   8.390 -0.4294  1.7957 -1.6310
   28SAPC  H14Y 3795   1.613   6.094   8.416  1.9895 -0.2511 -2.4948
   28SAPC  C315 3796   1.532   6.285   8.503 -0.5363 -0.5428 -0.2660
   28SAPC  H15X 3797   1.422   6.279   8.493 -0.9173  3.2013  0.4503
   28SAPC  H15Y 3798   1.555   6.393   8.490  1.1839 -0.5674  1.8785
   28SAPC  C316 3799   1.576   6.251   8.652 -0.1313  0.8232 -0.4316
   28SAPC  H16X 3800   1.583   6.143   8.675  0.2560  0.9454  0.0600
   28SAPC  H16Y 3801   1.482   6.277   8.705 -1.0440 -1.9863 -0.5379
   28SAPC  C317 3802   1.686   6.346   8.707  0.3790  0.1712 -0.5692
   28SAPC  H17X 3803   1.671   6.444   8.657  0.2183 -0.0662 -0.9847
   28SAPC  H17Y 3804   1.782   6.310   8.665  0.9188 -3.2128  2.9979
   28SAPC  C318 3805   1.702   6.344   8.855  0.3433 -0.1468 -0.7363
   28SAPC  H18X 3806   1.603   6.346   8.906  0.2387 -2.3527 -0.7375
   28SAPC  H18Y 3807   1.776   6.418   8.893 -0.5545  2.4300 -3.6266
   28SAPC  H18Z 3808   1.743   6.244   8.883 -0.8656 -0.6135 -0.5554
   29SAPC     N 3809   5.507   5.106   5.961  0.1853  0.1449 -0.4935
   29SAPC   C12 3810   5.570   5.120   6.101 -0.1998  0.4837 -0.4074
   29SAPC  H12A 3811   5.596   5.221   6.129  0.0332 -0.1786  1.9491
   29SAPC  H12B 3812   5.665   5.070   6.090 -0.2366  0.4334 -0.4931
   29SAPC   C13 3813   5.463   4.966   5.933 -0.1690 -0.2235 -0.2479
   29SAPC  H13A 3814   5.416   4.919   6.018  0.2575 -1.4146 -0.6496
   29SAPC  H13B 3815   5.399   4.963   5.846  1.1707 -1.8094 -1.2464
   29SAPC  H13C 3816   5.551   4.916   5.896  1.6721  1.8717  1.0965
   29SAPC   C14 3817   5.389   5.197   5.945 -0.3510 -0.3682 -0.1453
   29SAPC  H14A 3818   5.400   5.293   5.993  0.3530  0.6219 -2.1503
   29SAPC  H14B 3819   5.372   5.207   5.839 -1.3499 -0.6850 -0.0253
   29SAPC  H14C 3820   5.302   5.152   5.991 -0.3409  2.1814  2.6515
   29SAPC   C15 3821   5.604   5.137   5.857  0.3318  0.9924 -0.2295
   29SAPC  H15A 3822   5.559   5.126   5.759 -1.3964 -3.5034  0.8331
   29SAPC  H15B 3823   5.653   5.231   5.876  1.0076  0.5439  0.2707
   29SAPC  H15C 3824   5.683   5.063   5.860  1.0834  1.7656 -0.4011
   29SAPC   C11 3825   5.492   5.055   6.219 -0.3406  0.6507  0.2238
   29SAPC  H11A 3826   5.389   5.094   6.234 -1.1421 -1.6250  1.2419
   29SAPC  H11B 3827   5.548   5.075   6.313 -1.6937  0.2728  1.1484
   29SAPC     P 3828   5.623   4.816   6.233  0.1862 -0.1898 -0.4245
   29SAPC   O13 3829   5.627   4.694   6.148 -0.1992 -0.0751  0.1006
   29SAPC   O14 3830   5.749   4.887   6.236 -0.6221 -0.0829 -0.0348
   29SAPC   O12 3831   5.498   4.910   6.202  0.0534 -0.2231 -0.1232
   29SAPC   O11 3832   5.582   4.763   6.377 -0.2062 -0.0453 -0.0508
   29SAPC    C1 3833   5.530   4.641   6.416  0.1125  0.1637 -0.2747
   29SAPC    HA 3834   5.469   4.605   6.330 -0.2764  1.1246 -0.4204
   29SAPC    HB 3835   5.610   4.568   6.439 -1.3630 -0.9823  1.5163
   29SAPC    C2 3836   5.437   4.667   6.540  0.0638  0.3778  0.7020
   29SAPC    HS 3837   5.352   4.731   6.506  0.8190  0.5900 -0.8851
   29SAPC   O21 3838   5.507   4.727   6.645 -0.7068  0.0814  0.0980
   29SAPC   C21 3839   5.438   4.757   6.748 -0.0206  0.1212 -0.1533
   29SAPC   O22 3840   5.319   4.740   6.757  0.0059  0.7914 -0.4399
   29SAPC   C22 3841   5.522   4.824   6.858 -0.1051 -0.1710  0.5006
   29SAPC   H2R 3842   5.599   4.747   6.881 -0.6618 -1.0559 -0.5227
   29SAPC   H2S 3843   5.573   4.915   6.820 -1.3766  1.0262  1.5234
   29SAPC    C3 3844   5.375   4.531   6.580 -0.2653  0.4922 -0.5895
   29SAPC    HX 3845   5.332   4.475   6.494 -2.2386 -0.9281  1.2112
   29SAPC    HY 3846   5.285   4.548   6.643 -0.4531 -0.3603 -0.6090
   29SAPC   O31 3847   5.483   4.442   6.626 -0.0993 -0.1279  0.1923
   29SAPC   C31 3848   5.488   4.438   6.757  0.2529  0.4406 -0.0382
   29SAPC   O32 3849   5.418   4.498   6.836 -0.7213  0.4580 -0.1550
   29SAPC   C32 3850   5.578   4.320   6.798 -0.1456  0.5207  0.2791
   29SAPC   H2X 3851   5.666   4.316   6.731 -0.6159 -0.8412 -0.3004
   29SAPC   H2Y 3852   5.522   4.227   6.773  1.2034 -0.2205 -0.0722
   29SAPC   C23 3853   5.450   4.873   6.991  0.2630 -0.3748 -0.1168
   29SAPC   H3R 3854   5.401   4.782   7.032  0.5990 -1.8698 -2.8039
   29SAPC   H3S 3855   5.379   4.955   6.967  0.4815  0.1854  1.0747
   29SAPC   C24 3856   5.536   4.933   7.102 -0.4057  0.0539  0.4161
   29SAPC   H4R 3857   5.475   4.964   7.190 -1.3746 -2.0748  0.5625
   29SAPC   H4S 3858   5.578   5.023   7.052  1.7722 -0.9290  0.3819
   29SAPC   C25 3859   5.652   4.852   7.145  0.0351  0.5384 -0.1245
   29SAPC   H5R 3860   5.720   4.817   7.066 -0.6081 -0.3105 -0.3275
   29SAPC   C26 3861   5.684   4.826   7.276  0.3577 -1.1236 -0.4285
   29SAPC   H6R 3862   5.775   4.769   7.298  0.3157 -1.5837 -1.4243
   29SAPC   C27 3863   5.613   4.898   7.394  0.1829  0.8894  0.3000
   29SAPC   H7R 3864   5.583   5.002   7.366  0.2292  1.2985  1.7095
   29SAPC   H7S 3865   5.688   4.901   7.475  0.8584 -2.4343 -0.0416
   29SAPC   C28 3866   5.487   4.824   7.431  0.4193  0.4099  0.0924
   29SAPC   H8R 3867   5.424   4.785   7.350  0.1953  0.7085  0.1185
   29SAPC   C29 3868   5.438   4.797   7.552  0.1390  0.0722  0.1102
   29SAPC   H9R 3869   5.335   4.759   7.554  0.5939 -1.3357 -1.3320
   29SAPC  C210 3870   5.500   4.824   7.687  0.5323 -0.5225  0.4864
   29SAPC  H10R 3871   5.570   4.909   7.679  1.5875 -1.2544  1.5775
   29SAPC  H10S 3872   5.551   4.736   7.731  1.9813 -0.0832 -0.2505
   29SAPC  C211 3873   5.393   4.864   7.787  0.1015 -0.6549  0.3391
   29SAPC  H11R 3874   5.297   4.810   7.790 -1.4967  1.8338 -1.9305
   29SAPC  C212 3875   5.414   4.950   7.887  0.1665  0.3157 -0.1799
   29SAPC  H12R 3876   5.335   4.978   7.958  1.0954  1.8248  0.3216
   29SAPC  C213 3877   5.551   5.011   7.916 -0.3003 -0.6015 -0.0215
   29SAPC  H13R 3878   5.628   4.988   7.840  0.2892  3.2855 -0.8166
   29SAPC  H13S 3879   5.590   4.974   8.014  0.4344 -0.9884 -0.4516
   29SAPC  C214 3880   5.532   5.156   7.928  0.2967 -0.3134  0.2323
   29SAPC  H14R 3881   5.440   5.198   7.885 -0.2200  0.3175  1.8813
   29SAPC  C215 3882   5.624   5.238   7.990  0.1217 -0.1017  0.0470
   29SAPC  H15R 3883   5.612   5.348   7.989  0.5614 -0.0556 -0.7258
   29SAPC  C216 3884   5.757   5.195   8.057 -0.5061  0.4362  0.6087
   29SAPC  H16R 3885   5.843   5.258   8.024 -2.2424  2.7631  0.2798
   29SAPC  H16S 3886   5.781   5.092   8.026 -1.7294 -0.1497  1.5210
   29SAPC  C217 3887   5.738   5.207   8.208  0.4639  0.1789 -0.3329
   29SAPC  H17R 3888   5.663   5.137   8.251 -0.8426  0.8505 -1.4674
   29SAPC  H17S 3889   5.712   5.311   8.237  3.5519  0.4697  1.9567
   29SAPC  C218 3890   5.875   5.172   8.275  1.1205 -0.0510  0.2433
   29SAPC  H18R 3891   5.953   5.239   8.232  0.3765  0.8033  0.1965
   29SAPC  H18S 3892   5.887   5.069   8.237  0.3745 -0.0432 -0.0402
   29SAPC  C219 3893   5.876   5.171   8.431 -0.5816  0.0905 -0.2263
   29SAPC  H19R 3894   5.786   5.127   8.480 -1.9949  1.6751 -1.3316
   29SAPC  H19S 3895   5.877   5.272   8.477  3.2520 -0.6346  1.7160
   29SAPC  C220 3896   6.008   5.116   8.485  0.0506  0.2104  0.0523
   29SAPC  H20R 3897   6.035   5.013   8.455  0.3032  0.8009 -1.9346
   29SAPC  H20S 3898   6.006   5.125   8.596  2.1661 -1.8295  0.3350
   29SAPC  H20T 3899   6.101   5.173   8.463 -0.4142  0.9677 -0.0033
   29SAPC   C33 3900   5.625   4.338   6.941  0.1200  0.5578  0.5564
   29SAPC   H3X 3901   5.681   4.246   6.967  0.1873  0.4567  0.0669
   29SAPC   H3Y 3902   5.547   4.355   7.018  0.3273  1.7852  0.5297
   29SAPC   C34 3903   5.720   4.454   6.958  0.0413  0.0152 -0.4104
   29SAPC   H4X 3904   5.662   4.546   6.977  0.9540  0.3019  1.1746
   29SAPC   H4Y 3905   5.789   4.465   6.871  0.4902  0.0775 -0.0541
   29SAPC   C35 3906   5.813   4.440   7.078 -0.8225  0.1153  0.0417
   29SAPC   H5X 3907   5.876   4.530   7.092 -0.2512 -0.4830  1.5067
   29SAPC   H5Y 3908   5.888   4.361   7.054 -1.0855 -0.8078  2.0492
   29SAPC   C36 3909   5.729   4.415   7.205  0.4597 -0.2166  0.5999
   29SAPC   H6X 3910   5.689   4.311   7.212 -1.0913  0.3050 -0.1758
   29SAPC   H6Y 3911   5.637   4.477   7.198  1.2326  0.7772 -1.1315
   29SAPC   C37 3912   5.805   4.430   7.338 -0.0679 -0.0149 -0.0348
   29SAPC   H7X 3913   5.863   4.525   7.337 -1.7523  1.1177  2.1556
   29SAPC   H7Y 3914   5.885   4.353   7.345  2.5434  2.6727  3.5106
   29SAPC   C38 3915   5.717   4.446   7.460 -0.6131 -0.1556 -0.2548
   29SAPC   H8X 3916   5.646   4.528   7.436  1.9482  2.8285  1.5744
   29SAPC   H8Y 3917   5.772   4.490   7.546 -1.2883  2.2039 -0.9589
   29SAPC   C39 3918   5.656   4.318   7.507 -0.1588 -0.5928  0.9251
   29SAPC   H9X 3919   5.725   4.243   7.551  0.4964 -1.7478 -1.8772
   29SAPC   H9Y 3920   5.603   4.264   7.426  1.0296  0.7674 -0.8226
   29SAPC  C310 3921   5.551   4.347   7.615 -0.1548 -0.0499  0.0151
   29SAPC  H10X 3922   5.496   4.258   7.652 -0.4256  0.8519  1.9396
   29SAPC  H10Y 3923   5.468   4.403   7.568 -3.0199 -1.8979  2.4702
   29SAPC  C311 3924   5.614   4.419   7.744  0.6989 -0.2708  0.4770
   29SAPC  H11X 3925   5.533   4.424   7.820  0.9045 -0.6714  0.7239
   29SAPC  H11Y 3926   5.629   4.526   7.715 -0.2565 -0.4855 -0.9273
   29SAPC  C312 3927   5.727   4.360   7.821  0.2210  0.6898  0.3146
   29SAPC  H12X 3928   5.771   4.441   7.883 -0.3638  1.9274 -0.8274
   29SAPC  H12Y 3929   5.812   4.346   7.750  0.2669  1.2503  0.2529
   29SAPC  C313 3930   5.701   4.235   7.912 -0.0223 -0.2099 -0.4276
   29SAPC  H13X 3931   5.695   4.143   7.850 -3.1566 -2.4926  2.8769
   29SAPC  H13Y 3932   5.602   4.249   7.960 -0.2520  0.5617 -1.1002
   29SAPC  C314 3933   5.806   4.214   8.029 -0.1621 -0.0844 -0.1278
   29SAPC  H14X 3934   5.810   4.306   8.092  0.2122 -0.0401 -0.2139
   29SAPC  H14Y 3935   5.902   4.198   7.976 -1.2643 -0.8101 -1.9780
   29SAPC  C315 3936   5.773   4.099   8.121  0.7821  0.7059  0.1850
   29SAPC  H15X 3937   5.783   4.002   8.067  0.3751 -1.3302  3.4328
   29SAPC  H15Y 3938   5.665   4.100   8.147  0.1551 -1.3598 -1.9418
   29SAPC  C316 3939   5.848   4.106   8.258 -0.1537 -0.3389 -0.6228
   29SAPC  H16X 3940   5.834   4.206   8.304 -0.2470 -0.3689 -0.5870
   29SAPC  H16Y 3941   5.956   4.095   8.234  0.0333 -2.4138  0.9379
   29SAPC  C317 3942   5.793   4.002   8.345 -1.4939  0.0767 -0.6925
   29SAPC  H17X 3943   5.783   3.909   8.286  1.7950 -1.2578  0.5959
   29SAPC  H17Y 3944   5.698   4.012   8.401 -1.3706 -0.9931 -0.2674
   29SAPC  C318 3945   5.905   3.960   8.450 -0.1618  0.5902 -0.0539
   29SAPC  H18X 3946   5.962   3.870   8.417 -0.4387  0.5878 -0.5374
   29SAPC  H18Y 3947   5.857   3.941   8.548  0.8520 -3.1306 -0.1155
   29SAPC  H18Z 3948   5.972   4.047   8.461 -0.4225  0.8813 -0.6756
   30SAPC     N 3949   5.350   4.140   5.722  0.1501 -0.2535  0.2584
   30SAPC   C12 3950   5.376   4.266   5.792 -0.7878 -0.1501  0.3959
   30SAPC  H12A 3951   5.288   4.328   5.797  0.6872  1.9970  0.7660
   30SAPC  H12B 3952   5.446   4.325   5.735  2.2519 -3.0763  0.8038
   30SAPC   C13 3953   5.268   4.043   5.802  0.0284  0.2975 -0.0089
   30SAPC  H13A 3954   5.162   4.064   5.803 -0.0074  0.4887 -2.3367
   30SAPC  H13B 3955   5.281   3.942   5.766  0.6735  0.4373 -0.1701
   30SAPC  H13C 3956   5.309   4.046   5.902 -2.3104  0.2792  1.0281
   30SAPC   C14 3957   5.282   4.171   5.593 -0.4624  0.1258  0.5525
   30SAPC  H14A 3958   5.174   4.171   5.594 -0.5312  0.5287 -1.7917
   30SAPC  H14B 3959   5.317   4.263   5.548  0.8033 -1.4783 -1.9163
   30SAPC  H14C 3960   5.319   4.093   5.529  0.7526  0.5417  0.7222
   30SAPC   C15 3961   5.480   4.066   5.693 -0.1333  0.0607 -0.1247
   30SAPC  H15A 3962   5.469   3.985   5.624 -0.7058  0.1750 -0.1748
   30SAPC  H15B 3963   5.538   4.143   5.644 -2.3850  1.1586 -1.2286
   30SAPC  H15C 3964   5.533   4.019   5.775  0.1294  1.6325  0.6702
   30SAPC   C11 3965   5.415   4.264   5.941 -0.4453  0.1749 -0.0381
   30SAPC  H11A 3966   5.335   4.218   6.002  0.7271 -2.0203 -0.0431
   30SAPC  H11B 3967   5.427   4.369   5.974 -0.1510  0.2140 -0.2599
   30SAPC     P 3968   5.565   4.068   6.036 -0.0686 -0.2354  0.2181
   30SAPC   O13 3969   5.438   4.004   6.063  0.2958  0.7551 -0.0880
   30SAPC   O14 3970   5.668   3.984   5.965 -0.0659  0.1179  0.0109
   30SAPC   O12 3971   5.541   4.203   5.963 -0.1777 -0.2038  0.1795
   30SAPC   O11 3972   5.636   4.108   6.171 -0.2751 -0.1909 -0.3881
   30SAPC    C1 3973   5.599   4.225   6.250  0.3838 -0.6951  0.4716
   30SAPC    HA 3974   5.686   4.253   6.314 -1.1697 -1.0247  2.8328
   30SAPC    HB 3975   5.588   4.323   6.199  1.1175 -1.4777 -1.2817
   30SAPC    C2 3976   5.484   4.198   6.351 -0.5889  1.1884 -0.2066
   30SAPC    HS 3977   5.483   4.263   6.441  1.3931  1.2153 -0.1554
   30SAPC   O21 3978   5.499   4.058   6.391 -0.1591  0.1008  0.0228
   30SAPC   C21 3979   5.590   4.043   6.487  0.0487 -0.2002 -0.0016
   30SAPC   O22 3980   5.663   4.132   6.527  0.8337 -0.4809 -0.6066
   30SAPC   C22 3981   5.615   3.888   6.502 -0.0786  0.3057  0.0906
   30SAPC   H2R 3982   5.515   3.838   6.504  0.3694 -0.6075  0.1084
   30SAPC   H2S 3983   5.648   3.857   6.401  0.0611 -0.4352  0.3530
   30SAPC    C3 3984   5.344   4.227   6.288 -0.3773  0.2866 -0.2191
   30SAPC    HX 3985   5.317   4.143   6.220  1.6783 -0.9237  0.3691
   30SAPC    HY 3986   5.354   4.320   6.229  0.3382 -1.3254 -2.8523
   30SAPC   O31 3987   5.248   4.251   6.390  0.1189 -0.9927 -0.1193
   30SAPC   C31 3988   5.195   4.139   6.443  0.7466  0.3627  0.4485
   30SAPC   O32 3989   5.215   4.025   6.410  0.0036 -0.0549  0.5917
   30SAPC   C32 3990   5.094   4.178   6.548  0.0087  0.2065 -0.2672
   30SAPC   H2X 3991   4.988   4.185   6.515 -0.1622  1.0376  0.4208
   30SAPC   H2Y 3992   5.126   4.276   6.589 -2.3219  1.0854 -0.3762
   30SAPC   C23 3993   5.711   3.860   6.625 -0.5294  0.5524 -0.0385
   30SAPC   H3R 3994   5.802   3.913   6.591 -0.7891  2.1158  1.5641
   30SAPC   H3S 3995   5.720   3.749   6.624  0.4515  0.6185 -1.8167
   30SAPC   C24 3996   5.660   3.904   6.762 -0.3134 -0.4256 -0.3864
   30SAPC   H4R 3997   5.577   3.837   6.793  0.2675 -0.3281  1.4777
   30SAPC   H4S 3998   5.616   4.007   6.759  0.3439 -0.0644  1.2437
   30SAPC   C25 3999   5.781   3.919   6.844 -0.4301  0.3139 -0.6606
   30SAPC   H5R 4000   5.841   4.008   6.819 -1.2552  0.8033 -0.9227
   30SAPC   C26 4001   5.821   3.838   6.947  0.3041 -0.2437 -0.0074
   30SAPC   H6R 4002   5.920   3.865   6.986  0.0361  2.0048 -0.7620
   30SAPC   C27 4003   5.747   3.718   6.990  0.1563  0.2318 -0.2439
   30SAPC   H7R 4004   5.643   3.708   6.952  1.1572 -1.6781 -2.7946
   30SAPC   H7S 4005   5.742   3.721   7.101  1.8565  1.5488 -0.1607
   30SAPC   C28 4006   5.809   3.591   6.936 -0.1232  0.5280 -0.2385
   30SAPC   H8R 4007   5.794   3.566   6.830  0.9034  0.3205 -0.3445
   30SAPC   C29 4008   5.888   3.515   7.018 -0.0271  0.0439 -0.1900
   30SAPC   H9R 4009   5.944   3.426   6.987  1.9409  0.8545  0.8815
   30SAPC  C210 4010   5.926   3.540   7.163 -0.7940  0.2707 -0.4978
   30SAPC  H10R 4011   5.893   3.456   7.227 -1.0793  0.4167 -0.4522
   30SAPC  H10S 4012   5.866   3.623   7.207  1.2787  0.8940  1.2943
   30SAPC  C211 4013   6.074   3.576   7.169  0.0934  0.4915  0.2321
   30SAPC  H11R 4014   6.119   3.621   7.079  2.9808 -1.6783  0.4458
   30SAPC  C212 4015   6.151   3.542   7.275 -0.5437  0.0487 -0.2011
   30SAPC  H12R 4016   6.252   3.585   7.283 -0.6990  0.3364  0.2986
   30SAPC  C213 4017   6.115   3.462   7.401 -0.1012 -0.1867  0.0153
   30SAPC  H13R 4018   6.160   3.361   7.399 -0.0062 -0.1684  0.9267
   30SAPC  H13S 4019   6.005   3.450   7.401 -0.1816  0.4558  0.6312
   30SAPC  C214 4020   6.160   3.525   7.528  0.4921 -0.3742  0.7571
   30SAPC  H14R 4021   6.223   3.615   7.525  0.2105 -0.2083 -1.1014
   30SAPC  C215 4022   6.146   3.475   7.648  0.0603 -0.8218  0.5818
   30SAPC  H15R 4023   6.199   3.521   7.733  0.7684 -1.4236  0.4789
   30SAPC  C216 4024   6.078   3.344   7.687 -1.0469 -0.3228 -0.0346
   30SAPC  H16R 4025   6.155   3.268   7.709  0.2478  1.0401  0.2921
   30SAPC  H16S 4026   6.038   3.284   7.602 -0.5891  0.5283 -0.8748
   30SAPC  C217 4027   5.992   3.346   7.813  0.0242  0.2984  0.5532
   30SAPC  H17R 4028   5.900   3.406   7.802  0.9788  1.9830  1.3875
   30SAPC  H17S 4029   6.048   3.395   7.896 -0.8485 -0.0397  1.3647
   30SAPC  C218 4030   5.949   3.204   7.852  0.0222 -0.1324  0.6621
   30SAPC  H18R 4031   6.029   3.130   7.872  0.2301 -0.2810 -0.6205
   30SAPC  H18S 4032   5.890   3.162   7.768 -3.3046 -0.9981  3.2384
   30SAPC  C219 4033   5.856   3.218   7.977 -0.7650 -0.0709 -0.9499
   30SAPC  H19R 4034   5.761   3.255   7.934 -2.6599 -0.7360  2.2811
   30SAPC  H19S 4035   5.886   3.299   8.047  0.2390 -0.9485 -0.3379
   30SAPC  C220 4036   5.826   3.075   8.024  0.7905 -0.2898  0.1121
   30SAPC  H20R 4037   5.783   3.015   7.941 -1.1744  2.3995 -0.9869
   30SAPC  H20S 4038   5.770   3.075   8.120 -1.6025  0.3579 -1.2106
   30SAPC  H20T 4039   5.928   3.034   8.040  0.9518 -0.7499 -1.8920
   30SAPC   C33 4040   5.097   4.079   6.662 -0.1469  0.2887  0.1013
   30SAPC   H3X 4041   5.073   3.973   6.638  1.4286  0.0224 -0.4618
   30SAPC   H3Y 4042   5.014   4.105   6.731  1.2041 -0.6148  2.1883
   30SAPC   C34 4043   5.227   4.079   6.742  0.1885 -0.2910  0.2376
   30SAPC   H4X 4044   5.238   4.175   6.796  3.2154  0.0732 -0.8654
   30SAPC   H4Y 4045   5.314   4.068   6.674 -0.4001  0.9910 -0.7628
   30SAPC   C35 4046   5.238   3.981   6.859 -0.2584 -0.1069 -0.4793
   30SAPC   H5X 4047   5.241   3.872   6.835  0.9861 -0.3745  0.7427
   30SAPC   H5Y 4048   5.154   4.004   6.927  0.1032  0.8142 -0.3386
   30SAPC   C36 4049   5.360   4.003   6.946 -0.3643  0.1288 -0.1371
   30SAPC   H6X 4050   5.345   4.094   7.008 -1.1448 -2.1157  3.2226
   30SAPC   H6Y 4051   5.455   4.010   6.888  0.0994 -3.2616  0.0073
   30SAPC   C37 4052   5.385   3.885   7.035 -0.2303  0.2790 -0.2787
   30SAPC   H7X 4053   5.423   3.804   6.969  0.1785 -1.6416  2.1523
   30SAPC   H7Y 4054   5.292   3.848   7.083 -0.5238  1.4277  0.0842
   30SAPC   C38 4055   5.479   3.916   7.152  0.1766 -0.0406  0.0003
   30SAPC   H8X 4056   5.428   3.999   7.205  3.8700  2.3264  0.2217
   30SAPC   H8Y 4057   5.573   3.970   7.129  0.1396 -0.0503 -0.1849
   30SAPC   C39 4058   5.493   3.791   7.252 -0.3875 -0.3992  0.7356
   30SAPC   H9X 4059   5.540   3.706   7.197  1.2920  0.0663  1.3872
   30SAPC   H9Y 4060   5.386   3.767   7.272 -0.5262  2.6344  5.1302
   30SAPC  C310 4061   5.564   3.828   7.382 -0.3591  0.1059  0.1498
   30SAPC  H10X 4062   5.669   3.864   7.377 -0.2717  0.0413  1.1956
   30SAPC  H10Y 4063   5.572   3.737   7.445 -1.2070  0.5403  0.8931
   30SAPC  C311 4064   5.495   3.927   7.473  0.3218  0.6003 -0.6692
   30SAPC  H11X 4065   5.479   4.025   7.423 -3.4088  0.5566  0.1425
   30SAPC  H11Y 4066   5.574   3.943   7.549  0.8761 -0.5552 -0.9773
   30SAPC  C312 4067   5.365   3.882   7.549 -0.7948 -0.5082  0.5042
   30SAPC  H12X 4068   5.388   3.791   7.609 -0.5049  0.5310  2.0279
   30SAPC  H12Y 4069   5.289   3.865   7.470 -0.7630  0.4457  0.2551
   30SAPC  C313 4070   5.319   3.995   7.648  0.5335  0.2096 -0.3416
   30SAPC  H13X 4071   5.208   3.993   7.654  0.4737  0.0930 -1.2374
   30SAPC  H13Y 4072   5.335   4.095   7.602 -0.2782  0.2526 -0.5621
   30SAPC  C314 4073   5.376   3.963   7.790  0.2191  0.0658 -0.3887
   30SAPC  H14X 4074   5.485   3.985   7.794  0.1035  0.6568 -0.3815
   30SAPC  H14Y 4075   5.356   3.856   7.812 -1.1696 -0.3169 -3.1251
   30SAPC  C315 4076   5.302   4.038   7.900 -0.1269  0.6632 -0.7747
   30SAPC  H15X 4077   5.195   4.018   7.881  0.6727 -1.4730 -3.6472
   30SAPC  H15Y 4078   5.324   4.147   7.904 -0.9771  0.8396 -0.8182
   30SAPC  C316 4079   5.323   3.980   8.036 -0.0265 -0.1426 -0.6273
   30SAPC  H16X 4080   5.434   3.970   8.046  0.3578 -0.4609 -4.0873
   30SAPC  H16Y 4081   5.276   3.880   8.035  0.6701 -0.4889 -2.0392
   30SAPC  C317 4082   5.269   4.064   8.151 -1.2470  0.0041 -0.0002
   30SAPC  H17X 4083   5.159   4.080   8.139 -1.0035  1.5561 -0.4732
   30SAPC  H17Y 4084   5.328   4.158   8.145  0.4574 -1.1449 -2.7350
   30SAPC  C318 4085   5.287   3.998   8.290 -0.4207 -0.5903  0.2905
   30SAPC  H18X 4086   5.260   4.063   8.375  1.6454  0.0612  0.5191
   30SAPC  H18Y 4087   5.397   3.980   8.292 -0.7694 -4.7541 -2.6735
   30SAPC  H18Z 4088   5.247   3.895   8.306  0.5140 -0.9787  0.2186
   31SAPC     N 4089   6.734   4.080   6.347  0.3149  0.1093 -0.5188
   31SAPC   C12 4090   6.881   4.057   6.379 -0.0380 -0.7198 -0.0504
   31SAPC  H12A 4091   6.904   3.954   6.403 -0.5236 -0.9712 -0.6358
   31SAPC  H12B 4092   6.900   4.117   6.467 -1.2559  0.3166 -0.4606
   31SAPC   C13 4093   6.640   4.042   6.454 -0.5249  0.3620 -0.4500
   31SAPC  H13A 4094   6.666   4.108   6.535  1.2342 -0.1050 -0.6032
   31SAPC  H13B 4095   6.539   4.057   6.418 -1.3608 -1.8109  0.8123
   31SAPC  H13C 4096   6.657   3.938   6.477 -3.0349 -0.2493 -0.9835
   31SAPC   C14 4097   6.703   4.223   6.324 -0.4841 -0.0587  0.8280
   31SAPC  H14A 4098   6.702   4.279   6.416  0.1883 -0.0501  0.8363
   31SAPC  H14B 4099   6.783   4.265   6.266 -0.2812 -1.1590  0.2729
   31SAPC  H14C 4100   6.615   4.252   6.270 -1.4894  1.2270  3.0146
   31SAPC   C15 4101   6.692   4.004   6.228  0.1075 -0.2900 -0.2342
   31SAPC  H15A 4102   6.753   4.024   6.142 -0.3045  1.3232 -0.1806
   31SAPC  H15B 4103   6.707   3.898   6.245 -0.7120 -0.2903  0.5762
   31SAPC  H15C 4104   6.591   4.028   6.198  0.0084 -1.4069 -0.8429
   31SAPC   C11 4105   6.987   4.106   6.284 -0.4587  0.0969  0.5528
   31SAPC  H11A 4106   6.961   4.070   6.182 -2.0973  1.6399  0.3753
   31SAPC  H11B 4107   7.084   4.053   6.296 -0.6304  0.1435  2.5100
   31SAPC     P 4108   7.120   4.321   6.311 -0.2906 -0.2530  0.1541
   31SAPC   O13 4109   7.226   4.247   6.242  0.7067 -0.0003  0.3397
   31SAPC   O14 4110   7.112   4.467   6.277 -0.2812  0.1953 -0.1207
   31SAPC   O12 4111   6.986   4.247   6.276  0.5326 -0.4036  0.4400
   31SAPC   O11 4112   7.133   4.289   6.466 -0.4946 -0.2570  0.3101
   31SAPC    C1 4113   7.067   4.368   6.556 -0.3677 -0.0573 -0.8975
   31SAPC    HA 4114   7.145   4.442   6.584 -0.9898  0.2367  0.1065
   31SAPC    HB 4115   6.977   4.420   6.517 -1.3246 -1.3301 -0.4439
   31SAPC    C2 4116   7.021   4.290   6.683  0.2015  0.7640  0.1388
   31SAPC    HS 4117   6.982   4.191   6.651  0.7610  1.2202 -2.0624
   31SAPC   O21 4118   6.928   4.369   6.758  0.2122  0.1292 -0.4404
   31SAPC   C21 4119   6.805   4.328   6.751 -0.5802  0.1978 -0.1057
   31SAPC   O22 4120   6.769   4.221   6.697 -0.0147 -0.3756  0.2505
   31SAPC   C22 4121   6.717   4.423   6.822  0.6952  0.1202  0.4515
   31SAPC   H2R 4122   6.771   4.498   6.883  2.3317  0.5263 -1.3702
   31SAPC   H2S 4123   6.664   4.490   6.750  0.6410 -0.1267  0.2580
   31SAPC    C3 4124   7.143   4.264   6.780 -0.9399  0.1691 -0.1340
   31SAPC    HX 4125   7.180   4.358   6.824 -1.0730 -0.2327  0.8729
   31SAPC    HY 4126   7.233   4.235   6.722 -0.8962  0.5365 -0.2511
   31SAPC   O31 4127   7.109   4.160   6.877  0.0384  0.7001 -0.0045
   31SAPC   C31 4128   7.100   4.197   7.004 -0.9109  0.5922 -1.0030
   31SAPC   O32 4129   7.136   4.307   7.049  0.5549  0.1086 -0.5001
   31SAPC   C32 4130   7.053   4.073   7.081  0.6305  0.5383 -0.4422
   31SAPC   H2X 4131   7.146   4.012   7.087 -0.2310 -0.7213  0.9559
   31SAPC   H2Y 4132   6.982   4.012   7.022 -0.8449  1.0955  0.6937
   31SAPC   C23 4133   6.603   4.350   6.900 -0.4278  0.1746 -0.3780
   31SAPC   H3R 4134   6.554   4.272   6.837 -1.4379  0.5251 -0.0434
   31SAPC   H3S 4135   6.519   4.421   6.916 -1.2326 -0.8605  0.1613
   31SAPC   C24 4136   6.644   4.276   7.031 -0.8500  0.2642  0.1737
   31SAPC   H4R 4137   6.706   4.190   6.997 -0.8926 -0.1746  1.1633
   31SAPC   H4S 4138   6.546   4.238   7.068 -0.8721 -0.1570 -0.3169
   31SAPC   C25 4139   6.727   4.359   7.125  0.1347 -0.4168  0.2217
   31SAPC   H5R 4140   6.836   4.366   7.109  0.5686  0.4111  3.0087
   31SAPC   C26 4141   6.686   4.413   7.243  1.5099 -0.8219  0.1049
   31SAPC   H6R 4142   6.758   4.458   7.312  1.6786 -0.8410 -0.0591
   31SAPC   C27 4143   6.546   4.411   7.301  0.6274  1.1263 -0.0102
   31SAPC   H7R 4144   6.478   4.393   7.215 -0.6285 -0.3731  1.2307
   31SAPC   H7S 4145   6.527   4.518   7.325 -1.4191  1.3128 -2.1557
   31SAPC   C28 4146   6.518   4.306   7.406 -0.2524 -0.8414  0.4207
   31SAPC   H8R 4147   6.573   4.212   7.391  0.3032 -0.8304  2.1391
   31SAPC   C29 4148   6.434   4.308   7.505 -0.6868 -1.0267 -0.4867
   31SAPC   H9R 4149   6.430   4.219   7.568  1.6075 -1.1273 -0.4193
   31SAPC  C210 4150   6.335   4.418   7.520 -0.5007 -0.2465  0.6704
   31SAPC  H10R 4151   6.275   4.441   7.429 -2.0485 -1.4890  1.3366
   31SAPC  H10S 4152   6.386   4.515   7.541 -0.9093  0.0315  0.3974
   31SAPC  C211 4153   6.226   4.388   7.621  0.6039 -0.2635  1.0554
   31SAPC  H11R 4154   6.133   4.350   7.578  1.1766 -0.7518  0.2001
   31SAPC  C212 4155   6.234   4.388   7.757 -0.0824  0.8951  0.1365
   31SAPC  H12R 4156   6.140   4.366   7.809  0.5085  0.3583  1.0085
   31SAPC  C213 4157   6.360   4.414   7.841 -0.3382  0.6822  0.2085
   31SAPC  H13R 4158   6.444   4.408   7.769 -1.4084  1.4441 -1.1668
   31SAPC  H13S 4159   6.378   4.345   7.926 -1.1529  1.9263  1.4455
   31SAPC  C214 4160   6.374   4.559   7.884 -0.9110  0.4058  0.4174
   31SAPC  H14R 4161   6.353   4.627   7.800  1.0319  2.0592  1.2036
   31SAPC  C215 4162   6.418   4.605   8.004 -0.0857 -0.6456  0.3905
   31SAPC  H15R 4163   6.421   4.715   8.010 -0.6035 -0.5109 -1.3227
   31SAPC  C216 4164   6.475   4.531   8.124  0.2730 -0.0410 -0.0257
   31SAPC  H16R 4165   6.584   4.551   8.137  0.0084  0.0325  2.6239
   31SAPC  H16S 4166   6.455   4.421   8.120 -0.4829  0.1166 -0.9869
   31SAPC  C217 4167   6.423   4.591   8.262 -0.2632  0.0399  0.2269
   31SAPC  H17R 4168   6.320   4.561   8.290 -0.3466  0.7404  0.7059
   31SAPC  H17S 4169   6.410   4.701   8.252  1.8533  0.3185  0.0955
   31SAPC  C218 4170   6.517   4.566   8.387  0.7495  0.8396  0.2582
   31SAPC  H18R 4171   6.482   4.637   8.465 -0.0270  2.0698 -1.1534
   31SAPC  H18S 4172   6.620   4.599   8.359  0.4092  1.1759 -0.6485
   31SAPC  C219 4173   6.532   4.424   8.435  0.5561  0.1711 -0.3911
   31SAPC  H19R 4174   6.564   4.358   8.351 -0.1782  1.7448 -1.9779
   31SAPC  H19S 4175   6.429   4.392   8.458 -0.0037  1.8492 -0.4300
   31SAPC  C220 4176   6.617   4.407   8.557 -0.4308  0.2692 -0.0838
   31SAPC  H20R 4177   6.624   4.299   8.583 -0.8808  0.6509  1.7263
   31SAPC  H20S 4178   6.559   4.441   8.645 -3.4413 -0.4647 -1.6586
   31SAPC  H20T 4179   6.714   4.458   8.539 -0.6245  1.4283  1.9676
   31SAPC   C33 4180   7.019   4.117   7.227 -0.3978  0.2266  0.0851
   31SAPC   H3X 4181   6.994   4.225   7.232 -0.8276  0.1024  0.7725
   31SAPC   H3Y 4182   7.115   4.119   7.284 -0.6117  2.7517  0.4652
   31SAPC   C34 4183   6.915   4.035   7.299  0.0636  0.2614  0.7491
   31SAPC   H4X 4184   6.940   3.928   7.284  0.7975 -0.3071  4.9289
   31SAPC   H4Y 4185   6.816   4.052   7.253  0.3835 -2.1743 -1.0035
   31SAPC   C35 4186   6.908   4.061   7.452 -0.2744 -0.0602  0.8023
   31SAPC   H5X 4187   6.836   3.987   7.491 -1.5344 -0.0518 -1.3549
   31SAPC   H5Y 4188   6.872   4.161   7.486 -0.5349 -0.0072  0.3849
   31SAPC   C36 4189   7.038   4.046   7.533  0.6964  0.4523  0.6727
   31SAPC   H6X 4190   7.113   4.121   7.499 -0.6552  1.8659  0.6842
   31SAPC   H6Y 4191   7.082   3.947   7.509 -1.4237 -0.7376  1.3956
   31SAPC   C37 4192   7.010   4.073   7.674 -0.8358  0.4038 -0.4025
   31SAPC   H7X 4193   6.956   3.986   7.716 -0.1669 -0.1754 -0.7237
   31SAPC   H7Y 4194   6.950   4.167   7.682 -0.7246  0.6039 -1.8014
   31SAPC   C38 4195   7.139   4.096   7.759 -0.1148  0.3789  0.4181
   31SAPC   H8X 4196   7.216   4.167   7.723 -0.2008  0.8215  1.0835
   31SAPC   H8Y 4197   7.191   3.999   7.771 -1.9117 -0.5243  1.3917
   31SAPC   C39 4198   7.105   4.139   7.912  0.0279 -0.0860  0.2386
   31SAPC   H9X 4199   7.191   4.093   7.966  1.2098 -1.0935 -2.3351
   31SAPC   H9Y 4200   7.013   4.089   7.950 -1.2502  1.1431 -1.1284
   31SAPC  C310 4201   7.099   4.288   7.941 -0.5151 -0.2228 -0.6405
   31SAPC  H10X 4202   7.009   4.335   7.897 -0.5589 -1.4142 -1.8929
   31SAPC  H10Y 4203   7.183   4.335   7.886  0.5025 -1.1317  0.0722
   31SAPC  C311 4204   7.106   4.324   8.092 -0.0583  0.1896  0.7867
   31SAPC  H11X 4205   7.186   4.260   8.137 -2.4737 -2.9894  0.9041
   31SAPC  H11Y 4206   7.016   4.297   8.151  0.6047  1.4551  2.4716
   31SAPC  C312 4207   7.133   4.475   8.108 -0.7515  0.5589 -0.0111
   31SAPC  H12X 4208   7.045   4.541   8.090 -0.8684  1.1449  2.3712
   31SAPC  H12Y 4209   7.204   4.497   8.026  1.5947  0.0506  1.7753
   31SAPC  C313 4210   7.208   4.523   8.232  0.3355  0.7191 -0.0401
   31SAPC  H13X 4211   7.238   4.628   8.210 -1.4758  1.4726  0.9402
   31SAPC  H13Y 4212   7.301   4.462   8.236 -0.4301 -0.5101 -0.3860
   31SAPC  C314 4213   7.143   4.529   8.371 -0.4111  0.3650 -0.3994
   31SAPC  H14X 4214   7.225   4.545   8.444  0.2869 -0.0897 -1.0684
   31SAPC  H14Y 4215   7.103   4.427   8.389  1.9112 -0.6371 -0.6142
   31SAPC  C315 4216   7.042   4.639   8.385 -0.1394 -0.2469 -0.2312
   31SAPC  H15X 4217   6.957   4.608   8.320 -0.8657  1.4856 -0.1495
   31SAPC  H15Y 4218   7.091   4.734   8.355  0.5041 -0.3250  0.5295
   31SAPC  C316 4219   6.984   4.652   8.526  0.3327  0.6402 -0.7756
   31SAPC  H16X 4220   7.062   4.682   8.599  0.0072 -0.9698  0.2663
   31SAPC  H16Y 4221   6.940   4.554   8.551  1.6884 -0.0182 -0.9065
   31SAPC  C317 4222   6.864   4.750   8.527 -0.0964  0.3404 -0.0051
   31SAPC  H17X 4223   6.795   4.729   8.442  0.2602  0.9986 -0.4708
   31SAPC  H17Y 4224   6.903   4.853   8.511  2.3143 -0.7837 -2.3251
   31SAPC  C318 4225   6.787   4.740   8.660 -0.8869  0.9183  0.1400
   31SAPC  H18X 4226   6.855   4.771   8.742 -1.0001  0.9763  0.2116
   31SAPC  H18Y 4227   6.765   4.632   8.675  3.4088 -0.1950 -0.2874
   31SAPC  H18Z 4228   6.710   4.819   8.667  1.5838  3.4307  0.5402
   32SAPC     N 4229   0.365   5.422   6.204  1.0657 -0.1001  0.0641
   32SAPC   C12 4230   0.313   5.552   6.145  0.0010  0.1299 -0.0305
   32SAPC  H12A 4231   0.311   5.547   6.037  2.0868 -2.1738 -0.0566
   32SAPC  H12B 4232   0.395   5.617   6.173 -1.1157  1.7021 -0.2675
   32SAPC   C13 4233   0.508   5.402   6.160 -0.2624 -0.3729 -0.0718
   32SAPC  H13A 4234   0.537   5.300   6.177  1.5769  0.4587  2.3815
   32SAPC  H13B 4235   0.513   5.427   6.055 -2.3032  0.7161  0.0445
   32SAPC  H13C 4236   0.573   5.463   6.220  1.7148 -1.5040 -0.9786
   32SAPC   C14 4237   0.367   5.427   6.358 -0.4502  0.7224 -0.5371
   32SAPC  H14A 4238   0.266   5.437   6.394 -0.5929  0.2250 -0.7977
   32SAPC  H14B 4239   0.434   5.353   6.399  2.9488  3.6770 -0.1951
   32SAPC  H14C 4240   0.414   5.520   6.386  2.8192 -0.4764 -1.5942
   32SAPC   C15 4241   0.283   5.305   6.156  0.3404 -0.1216  0.0174
   32SAPC  H15A 4242   0.269   5.311   6.049 -0.8373  0.2727  0.1761
   32SAPC  H15B 4243   0.332   5.210   6.172 -0.7343 -0.7612 -0.4013
   32SAPC  H15C 4244   0.187   5.301   6.206  1.1091 -2.1001  1.5005
   32SAPC   C11 4245   0.179   5.607   6.193 -0.7025 -0.5265  0.9633
   32SAPC  H11A 4246   0.183   5.716   6.172  1.5368 -0.8307 -0.5422
   32SAPC  H11B 4247   0.171   5.605   6.304  3.6921 -1.1991  1.4577
   32SAPC     P 4248  -0.048   5.480   6.196 -0.1666  0.2815 -0.1053
   32SAPC   O13 4249  -0.116   5.591   6.268  0.3500  0.1517 -0.2245
   32SAPC   O14 4250  -0.124   5.398   6.105  0.5326 -0.0456  0.2434
   32SAPC   O12 4251   0.075   5.547   6.116 -1.1002  0.8736  0.0313
   32SAPC   O11 4252   0.031   5.386   6.305  0.2052 -0.3295  0.2545
   32SAPC    C1 4253  -0.012   5.247   6.323  0.4915 -0.3236 -0.2938
   32SAPC    HA 4254  -0.118   5.255   6.355  1.2612  2.0946  2.0932
   32SAPC    HB 4255   0.018   5.177   6.242  0.7932 -0.1456 -0.3376
   32SAPC    C2 4256   0.052   5.192   6.451  0.1088  1.0075  0.3569
   32SAPC    HS 4257   0.163   5.203   6.449  0.1077  2.1432  2.7629
   32SAPC   O21 4258   0.013   5.053   6.454  0.5949 -0.0578  0.0531
   32SAPC   C21 4259   0.100   4.977   6.505 -1.0928  0.2885  0.0694
   32SAPC   O22 4260   0.212   5.016   6.548  0.2097  0.3326  0.4330
   32SAPC   C22 4261   0.034   4.846   6.524 -0.4127  0.8054 -0.0665
   32SAPC   H2R 4262  -0.067   4.845   6.571  0.0832 -3.0287  1.2569
   32SAPC   H2S 4263   0.029   4.802   6.421 -1.0869 -0.3348  0.4315
   32SAPC    C3 4264  -0.009   5.270   6.575 -0.4837 -0.4095  0.5649
   32SAPC    HX 4265  -0.120   5.270   6.561 -0.6415 -0.1237  1.6934
   32SAPC    HY 4266   0.020   5.377   6.583 -1.2932  0.1118 -2.2327
   32SAPC   O31 4267   0.014   5.191   6.697 -0.1900 -0.3510  0.0629
   32SAPC   C31 4268   0.125   5.235   6.758 -0.2924 -0.3702 -0.8040
   32SAPC   O32 4269   0.195   5.331   6.715  0.4002  0.2655 -0.4252
   32SAPC   C32 4270   0.138   5.158   6.891 -0.3883  0.0509 -0.0322
   32SAPC   H2X 4271   0.213   5.076   6.883  1.6831  1.9600 -1.4114
   32SAPC   H2Y 4272   0.040   5.111   6.917 -0.4801 -0.6709 -1.5589
   32SAPC   C23 4273   0.101   4.734   6.612  0.8805 -0.2760 -0.1233
   32SAPC   H3R 4274   0.187   4.698   6.551  0.6490 -1.5003  0.2329
   32SAPC   H3S 4275   0.036   4.644   6.621 -0.0028  0.5008  2.1609
   32SAPC   C24 4276   0.134   4.784   6.753  0.4070  0.4980  0.7389
   32SAPC   H4R 4277   0.202   4.871   6.745  1.1445 -0.0829  0.5392
   32SAPC   H4S 4278   0.189   4.705   6.809 -1.8780 -1.6696  0.1027
   32SAPC   C25 4279   0.012   4.820   6.834  0.3670  0.0134  0.1896
   32SAPC   H5R 4280  -0.066   4.885   6.793 -0.3475 -0.3997  0.8603
   32SAPC   C26 4281  -0.010   4.776   6.957  0.2935 -0.7399 -0.3071
   32SAPC   H6R 4282  -0.099   4.819   7.006 -1.4881  0.2018 -4.0202
   32SAPC   C27 4283   0.067   4.681   7.046  0.2150  0.0825 -0.4195
   32SAPC   H7R 4284   0.115   4.609   6.977  0.4933  0.3021 -0.4567
   32SAPC   H7S 4285   0.006   4.631   7.124  0.5626  0.3488  0.0254
   32SAPC   C28 4286   0.181   4.760   7.104  0.0146  0.2722  0.8358
   32SAPC   H8R 4287   0.240   4.821   7.034 -1.1499 -1.5771 -1.9228
   32SAPC   C29 4288   0.229   4.744   7.226  0.0143 -0.1336 -0.2028
   32SAPC   H9R 4289   0.319   4.803   7.250  0.5520 -1.3037  0.7707
   32SAPC  C210 4290   0.178   4.658   7.342 -0.2433  0.3285  0.0208
   32SAPC  H10R 4291   0.068   4.657   7.333 -0.1250 -1.5789 -2.3423
   32SAPC  H10S 4292   0.200   4.722   7.430  1.5342  0.5454 -0.5277
   32SAPC  C211 4293   0.224   4.519   7.351  0.5002  0.5130  0.3201
   32SAPC  H11R 4294   0.275   4.474   7.264  0.3872 -0.5939  0.8095
   32SAPC  C212 4295   0.225   4.449   7.463 -0.9232 -0.8631 -0.9752
   32SAPC  H12R 4296   0.244   4.340   7.465 -2.4594 -1.1864 -2.0605
   32SAPC  C213 4297   0.172   4.497   7.597 -0.2010 -0.9633  0.3803
   32SAPC  H13R 4298   0.195   4.605   7.605 -1.0456 -0.3963 -3.1978
   32SAPC  H13S 4299   0.225   4.454   7.685  1.1714 -2.0625 -0.9241
   32SAPC  C214 4300   0.023   4.459   7.609 -0.0405  0.0305 -0.9437
   32SAPC  H14R 4301  -0.019   4.389   7.535 -1.5237  1.9548 -2.0019
   32SAPC  C215 4302  -0.061   4.498   7.709 -0.6401 -0.4263  0.7216
   32SAPC  H15R 4303  -0.168   4.472   7.701 -0.6585 -1.2325  2.9190
   32SAPC  C216 4304  -0.021   4.589   7.827 -1.3069  0.1092  0.2498
   32SAPC  H16R 4305   0.087   4.615   7.829 -1.0598 -0.8002 -0.5965
   32SAPC  H16S 4306  -0.040   4.537   7.923 -2.2485  0.7960  0.4537
   32SAPC  C217 4307  -0.086   4.731   7.844  0.0802 -0.3098 -0.4688
   32SAPC  H17R 4308  -0.195   4.709   7.839 -0.0744  0.5101 -0.8848
   32SAPC  H17S 4309  -0.050   4.797   7.763  2.9234  2.0026  2.4343
   32SAPC  C218 4310  -0.063   4.786   7.991 -0.3620  0.5557  0.0409
   32SAPC  H18R 4311   0.045   4.805   8.004 -0.7231  2.7630  0.1811
   32SAPC  H18S 4312  -0.099   4.712   8.066  1.6052  0.1625  0.6441
   32SAPC  C219 4313  -0.139   4.919   8.003 -0.0105  0.3197  0.6136
   32SAPC  H19R 4314  -0.198   4.926   8.097 -0.2391 -0.1454  0.5088
   32SAPC  H19S 4315  -0.218   4.901   7.927  1.0777  1.3151 -0.8114
   32SAPC  C220 4316  -0.061   5.050   7.988  0.0339 -0.3571  0.6030
   32SAPC  H20R 4317   0.021   5.043   7.913 -0.0076  0.8157  0.4168
   32SAPC  H20S 4318  -0.003   5.075   8.080  1.1161 -0.0144 -0.1390
   32SAPC  H20T 4319  -0.126   5.137   7.963 -0.1874 -0.8306 -0.5079
   32SAPC   C33 4320   0.178   5.260   7.003 -0.4012 -0.6574 -0.1910
   32SAPC   H3X 4321   0.096   5.332   7.024 -0.4972 -0.4571 -1.2320
   32SAPC   H3Y 4322   0.269   5.317   6.979  0.3540 -1.1371  1.3784
   32SAPC   C34 4323   0.203   5.190   7.138  0.1014 -0.1710  0.1880
   32SAPC   H4X 4324   0.247   5.268   7.203  0.9645  1.5506 -2.3147
   32SAPC   H4Y 4325   0.279   5.111   7.120  0.3685 -0.2662  1.6263
   32SAPC   C35 4326   0.073   5.136   7.207  0.2816  0.4436 -0.0125
   32SAPC   H5X 4327   0.016   5.065   7.143 -0.9973  1.7522 -0.4065
   32SAPC   H5Y 4328   0.012   5.230   7.210  3.9737  3.0249  1.5416
   32SAPC   C36 4329   0.105   5.073   7.346  0.2711  0.3930 -0.4986
   32SAPC   H6X 4330   0.179   4.992   7.330  1.2736  1.3471 -0.7545
   32SAPC   H6Y 4331   0.018   5.011   7.376 -0.3666 -0.3161 -3.5626
   32SAPC   C37 4332   0.141   5.179   7.442 -0.9162  0.1381 -0.8892
   32SAPC   H7X 4333   0.046   5.227   7.471  0.4706  1.8095  1.1266
   32SAPC   H7Y 4334   0.205   5.255   7.393  2.7075 -1.4128  1.0791
   32SAPC   C38 4335   0.200   5.126   7.575 -0.0407  0.0624  0.2922
   32SAPC   H8X 4336   0.126   5.068   7.633 -1.7402 -0.7195 -2.4354
   32SAPC   H8Y 4337   0.223   5.214   7.639  0.3602 -0.9801  1.6061
   32SAPC   C39 4338   0.330   5.044   7.556 -0.8635 -0.4432  0.3938
   32SAPC   H9X 4339   0.399   5.106   7.495 -0.5814  1.7416  2.7230
   32SAPC   H9Y 4340   0.310   4.954   7.494 -0.7797 -1.0588  1.2424
   32SAPC  C310 4341   0.401   4.993   7.681 -0.5341  0.4416 -0.4487
   32SAPC  H10X 4342   0.465   4.906   7.656 -2.3223 -1.3227  0.8071
   32SAPC  H10Y 4343   0.328   4.954   7.755  0.8726 -1.6790 -0.0928
   32SAPC  C311 4344   0.487   5.104   7.749 -0.2921 -0.3803 -0.7386
   32SAPC  H11X 4345   0.463   5.208   7.716 -2.6100 -0.4405  0.5062
   32SAPC  H11Y 4346   0.593   5.085   7.724  0.0186  0.4100 -0.0930
   32SAPC  C312 4347   0.479   5.090   7.902 -0.3229 -0.5488  0.3491
   32SAPC  H12X 4348   0.486   4.986   7.940 -0.0471 -0.2377  1.1672
   32SAPC  H12Y 4349   0.377   5.111   7.939  0.5988  0.4782  2.4176
   32SAPC  C313 4350   0.574   5.181   7.979 -0.8942  0.7974  0.2515
   32SAPC  H13X 4351   0.542   5.285   7.959 -1.9540  0.2825 -0.8330
   32SAPC  H13Y 4352   0.672   5.180   7.927 -1.0928  0.9861 -0.1311
   32SAPC  C314 4353   0.566   5.158   8.130  0.1900 -0.0206 -0.1974
   32SAPC  H14X 4354   0.646   5.088   8.162  1.2628  2.1553  2.2689
   32SAPC  H14Y 4355   0.469   5.110   8.159 -0.6520  0.7898 -1.6061
   32SAPC  C315 4356   0.576   5.285   8.213  0.2465  0.4113  0.4772
   32SAPC  H15X 4357   0.528   5.356   8.142  1.3864 -1.8297 -2.7614
   32SAPC  H15Y 4358   0.681   5.317   8.230  0.2696 -0.0789  1.2920
   32SAPC  C316 4359   0.485   5.300   8.343  0.3037 -0.3063  0.5326
   32SAPC  H16X 4360   0.380   5.290   8.306  1.1330  0.7416 -2.3981
   32SAPC  H16Y 4361   0.500   5.407   8.371 -0.6419 -0.1217  0.3807
   32SAPC  C317 4362   0.529   5.211   8.447  0.1003  0.7920 -0.0929
   32SAPC  H17X 4363   0.504   5.254   8.547  1.8196  0.4173  0.5412
   32SAPC  H17Y 4364   0.637   5.187   8.444 -0.2344 -0.7898 -0.4843
   32SAPC  C318 4365   0.465   5.071   8.441  0.3310  0.5165  0.6136
   32SAPC  H18X 4366   0.487   5.010   8.532 -0.9154 -1.0104 -0.0762
   32SAPC  H18Y 4367   0.515   5.012   8.361  1.7420  2.3010  0.0948
   32SAPC  H18Z 4368   0.358   5.082   8.415 -0.2384 -1.4318  1.8888
   33POPC     N 4369   3.719   1.082  10.878  0.2951 -0.2385 -0.3674
   33POPC   C12 4370   3.742   1.030  10.738  0.9231 -0.2928  0.4650
   33POPC  H12A 4371   3.795   0.936  10.741 -1.3667 -1.8618 -2.3297
   33POPC  H12B 4372   3.813   1.091  10.684 -1.6001  1.9442 -0.6067
   33POPC   C13 4373   3.842   1.062  10.962 -1.3181 -0.2758 -1.0162
   33POPC  H13A 4374   3.925   1.127  10.942 -0.3828 -0.4994  1.6712
   33POPC  H13B 4375   3.816   1.077  11.066 -0.5599 -0.9672 -0.7113
   33POPC  H13C 4376   3.864   0.956  10.954 -0.9155 -0.3017  0.1484
   33POPC   C14 4377   3.694   1.233  10.867  0.8751 -0.1224 -0.2119
   33POPC  H14A 4378   3.684   1.270  10.968  0.3270 -0.5872 -0.0891
   33POPC  H14B 4379   3.784   1.273  10.823  1.5063  0.4526  1.5433
   33POPC  H14C 4380   3.609   1.257  10.805  0.6561 -1.4538 -0.4718
   33POPC   C15 4381   3.608   1.016  10.947 -0.1537 -0.9561  0.4157
   33POPC  H15A 4382   3.591   1.057  11.046  3.4364  3.4618 -0.4696
   33POPC  H15B 4383   3.609   0.908  10.958 -0.0292 -1.0683 -0.6371
   33POPC  H15C 4384   3.527   1.034  10.877  1.1607 -0.6382 -1.0644
   33POPC   C11 4385   3.624   0.996  10.640  0.1027 -0.2556  0.1873
   33POPC  H11A 4386   3.668   0.995  10.538  1.6489  0.1642  0.8306
   33POPC  H11B 4387   3.552   1.080  10.650  0.7085  0.5759 -1.9230
   33POPC     P 4388   3.614   0.742  10.662  0.1018  0.4246  0.1636
   33POPC   O13 4389   3.525   0.639  10.714 -0.7043 -0.5256 -0.2639
   33POPC   O14 4390   3.757   0.753  10.708 -0.1527  0.0971  0.1370
   33POPC   O12 4391   3.554   0.883  10.680  0.5871 -0.1869 -0.6194
   33POPC   O11 4392   3.612   0.738  10.509  0.2549  0.6217 -0.1370
   33POPC    C1 4393   3.495   0.726  10.430 -0.2884 -0.8048  0.5644
   33POPC    HA 4394   3.409   0.773  10.483  1.0021  2.2983  0.1422
   33POPC    HB 4395   3.502   0.801  10.349  0.0390 -1.9254 -0.4734
   33POPC    C2 4396   3.465   0.584  10.380 -0.5926  0.5220 -0.3874
   33POPC    HS 4397   3.446   0.527  10.473  1.1089 -0.4279 -0.5861
   33POPC   O21 4398   3.584   0.542  10.310 -0.1717 -0.2148  0.6817
   33POPC   C21 4399   3.608   0.420  10.279  0.3259 -0.2016 -0.4911
   33POPC   O22 4400   3.531   0.331  10.306  0.6423 -0.1017  0.5017
   33POPC   C22 4401   3.744   0.404  10.215  0.3899  0.5606  0.2505
   33POPC   H2R 4402   3.807   0.351  10.289  0.0951  0.0611  0.1524
   33POPC   H2S 4403   3.783   0.505  10.191  0.6913  0.3998  0.0566
   33POPC    C3 4404   3.333   0.576  10.302  0.2334  0.1829  0.1439
   33POPC    HX 4405   3.256   0.598  10.379  1.3046 -1.3083  1.6935
   33POPC    HY 4406   3.313   0.471  10.271 -0.0788  0.2240  0.2023
   33POPC   O31 4407   3.328   0.671  10.189 -0.2137  0.2926  0.6128
   33POPC   C31 4408   3.260   0.778  10.210  0.5431 -0.3752  0.1049
   33POPC   O32 4409   3.190   0.805  10.312  0.0694  0.5693  0.2968
   33POPC   C32 4410   3.266   0.862  10.082 -0.3270 -0.5629 -0.1722
   33POPC   H2X 4411   3.342   0.824  10.011  0.2574 -0.1202  0.2032
   33POPC   H2Y 4412   3.309   0.961  10.106 -0.9202  0.1230 -1.8249
   33POPC   C23 4413   3.729   0.321  10.086  0.3813 -1.0675 -0.9104
   33POPC   H3R 4414   3.672   0.227  10.097  0.9781 -1.1149  2.7564
   33POPC   H3S 4415   3.829   0.296  10.046  0.8790  0.3612 -0.6326
   33POPC   C24 4416   3.651   0.397   9.977  0.1443  0.0825  0.6174
   33POPC   H4R 4417   3.552   0.436  10.008 -0.0568  1.4346 -1.5250
   33POPC   H4S 4418   3.621   0.320   9.902  0.3225  1.0710 -0.4996
   33POPC   C25 4419   3.738   0.493   9.901 -0.5814  0.3954  0.6699
   33POPC   H5R 4420   3.832   0.444   9.870  0.1696  1.0936  1.7841
   33POPC   H5S 4421   3.770   0.572   9.972  2.1837 -0.0476 -0.0011
   33POPC   C26 4422   3.677   0.561   9.780 -0.3622  0.0430 -0.5982
   33POPC   H6R 4423   3.745   0.643   9.749 -1.5895  1.2419 -0.1682
   33POPC   H6S 4424   3.587   0.615   9.816  0.2303  1.0855 -0.6509
   33POPC   C27 4425   3.655   0.477   9.650 -0.4955 -0.2637  0.0950
   33POPC   H7R 4426   3.591   0.389   9.675 -0.3909  0.3395  2.7041
   33POPC   H7S 4427   3.755   0.437   9.624 -1.4409 -1.7321 -1.5132
   33POPC   C28 4428   3.600   0.566   9.538  0.3356  0.2861  0.1184
   33POPC   H8R 4429   3.671   0.652   9.527  0.8554 -0.4086 -2.4123
   33POPC   H8S 4430   3.501   0.602   9.573  0.3333  1.3571 -0.9397
   33POPC   C29 4431   3.586   0.492   9.404  0.9005  0.1077  0.8689
   33POPC   H91 4432   3.508   0.414   9.400  2.3551 -1.3451 -1.8756
   33POPC  C210 4433   3.653   0.519   9.297 -0.6840  0.2416  0.1804
   33POPC  H101 4434   3.640   0.467   9.201  1.0645  0.5632 -0.2750
   33POPC  C211 4435   3.744   0.636   9.288 -0.0554 -0.4246  0.2763
   33POPC  H11R 4436   3.839   0.602   9.334  0.4216 -2.0888 -1.7388
   33POPC  H11S 4437   3.700   0.718   9.347 -3.0055 -3.0811  2.0765
   33POPC  C212 4438   3.758   0.701   9.151 -0.2376 -0.2925 -0.4117
   33POPC  H12R 4439   3.804   0.630   9.079  0.5687 -0.5017  0.2935
   33POPC  H12S 4440   3.835   0.780   9.163 -0.9146  0.2804  0.2669
   33POPC  C213 4441   3.631   0.753   9.084  0.4416  0.2903  0.0313
   33POPC  H13R 4442   3.568   0.822   9.144  0.8150  0.4772  0.2135
   33POPC  H13S 4443   3.568   0.666   9.055 -0.6548  0.8571  0.6342
   33POPC  C214 4444   3.659   0.833   8.955  0.1107  0.0965  0.5091
   33POPC  H14R 4445   3.758   0.884   8.964 -0.1992  0.9263 -0.5298
   33POPC  H14S 4446   3.576   0.902   8.925 -2.1476 -2.2298  1.0839
   33POPC  C215 4447   3.668   0.747   8.823 -0.4881  0.3609 -0.1871
   33POPC  H15R 4448   3.581   0.678   8.814  0.0227 -0.1757 -1.0772
   33POPC  H15S 4449   3.762   0.688   8.817 -0.1543  1.0358 -3.4931
   33POPC  C216 4450   3.689   0.841   8.705  0.0957  0.5264 -0.2116
   33POPC  H16R 4451   3.780   0.901   8.729  0.0653  0.6524 -0.3971
   33POPC  H16S 4452   3.598   0.904   8.697  0.4201  0.9494 -0.7588
   33POPC  C217 4453   3.701   0.758   8.576  0.1280  0.4431  0.1748
   33POPC  H17R 4454   3.607   0.702   8.555  0.2743  0.7819 -1.5600
   33POPC  H17S 4455   3.785   0.689   8.596 -0.4575  0.3872  2.8624
   33POPC  C218 4456   3.734   0.847   8.458 -1.2478 -0.4672  0.4767
   33POPC  H18R 4457   3.786   0.799   8.373 -0.3840  0.8859  0.2064
   33POPC  H18S 4458   3.808   0.925   8.486  2.2892 -3.7058  0.9436
   33POPC  H18T 4459   3.645   0.902   8.421 -0.7448  0.3047  0.3868
   33POPC   C33 4460   3.127   0.881  10.009  0.0717 -0.3587  0.5995
   33POPC   H3X 4461   3.132   0.969   9.941 -1.4681  0.7272  1.8163
   33POPC   H3Y 4462   3.050   0.919  10.079 -0.9358  0.3719 -0.8573
   33POPC   C34 4463   3.085   0.761   9.922  0.3717 -0.5519 -0.1482
   33POPC   H4X 4464   2.981   0.788   9.894 -0.0439  0.1369  1.9214
   33POPC   H4Y 4465   3.094   0.674   9.990  0.8263 -0.9010 -0.6367
   33POPC   C35 4466   3.162   0.741   9.797 -0.2719  0.5473  0.3913
   33POPC   H5X 4467   3.127   0.643   9.757  1.4270 -0.1993  0.6604
   33POPC   H5Y 4468   3.271   0.720   9.808 -0.8464 -1.9271  2.1027
   33POPC   C36 4469   3.135   0.839   9.685  0.0920  0.1668 -0.3875
   33POPC   H6X 4470   3.156   0.942   9.718  2.2389  0.2718 -1.9158
   33POPC   H6Y 4471   3.026   0.836   9.661  0.4416 -2.4749 -2.0544
   33POPC   C37 4472   3.207   0.797   9.553  0.4750 -0.1451  0.8297
   33POPC   H7X 4473   3.170   0.693   9.544 -0.2128 -0.0207  1.9339
   33POPC   H7Y 4474   3.317   0.800   9.564  0.4509  0.5422  0.9658
   33POPC   C38 4475   3.171   0.891   9.432  0.3876  0.2132 -0.2851
   33POPC   H8X 4476   3.199   0.997   9.451 -0.5855  0.6804 -1.3745
   33POPC   H8Y 4477   3.060   0.891   9.433  0.3364  0.4491  2.5949
   33POPC   C39 4478   3.239   0.839   9.302 -0.9975 -0.5526 -0.6290
   33POPC   H9X 4479   3.200   0.740   9.270  1.2301 -2.7615  2.7322
   33POPC   H9Y 4480   3.349   0.822   9.307 -0.1764  2.8060 -3.6923
   33POPC  C310 4481   3.211   0.946   9.189  0.5237 -0.5215 -0.4780
   33POPC  H10X 4482   3.242   1.053   9.196 -0.0613 -0.2990 -1.1525
   33POPC  H10Y 4483   3.100   0.947   9.177  0.0011 -2.3262  2.9800
   33POPC  C311 4484   3.261   0.899   9.052 -0.1787  0.3328  0.3282
   33POPC  H11X 4485   3.240   0.790   9.042  0.4321  0.4088 -3.1190
   33POPC  H11Y 4486   3.371   0.911   9.040  0.0897 -1.4059  0.7713
   33POPC  C312 4487   3.198   0.969   8.926  0.1217 -0.0885  0.0353
   33POPC  H12X 4488   3.245   1.070   8.921 -0.8786  0.3650 -0.4002
   33POPC  H12Y 4489   3.089   0.977   8.944  0.1040 -1.9176  0.9790
   33POPC  C313 4490   3.213   0.885   8.796  0.1242 -0.2084  0.0464
   33POPC  H13X 4491   3.179   0.779   8.804 -0.0268 -0.2287 -0.8115
   33POPC  H13Y 4492   3.324   0.877   8.794  0.0673 -1.0366 -1.4730
   33POPC  C314 4493   3.177   0.953   8.663  0.0399 -0.4939 -0.0629
   33POPC  H14X 4494   3.087   1.017   8.676 -1.3883 -2.4859  0.2491
   33POPC  H14Y 4495   3.144   0.865   8.604  1.0391 -0.6868 -0.3530
   33POPC  C315 4496   3.290   1.017   8.591 -0.1558  0.7687  0.2086
   33POPC  H15X 4497   3.367   0.942   8.568  0.8612  2.0420 -0.6612
   33POPC  H15Y 4498   3.344   1.094   8.651 -2.9506  1.9792  1.3617
   33POPC  C316 4499   3.254   1.080   8.453  0.4551  1.1058 -0.2674
   33POPC  H16X 4500   3.346   1.100   8.394  1.0101  0.7384  0.4453
   33POPC  H16Y 4501   3.205   1.177   8.478  0.7405  1.2387 -0.2206
   33POPC  H16Z 4502   3.177   1.028   8.393 -1.0847  1.3970  1.3698
   34POPC     N 4503   2.395   1.126  10.664  1.0630  0.5127  0.0077
   34POPC   C12 4504   2.296   1.226  10.613 -0.0538 -1.1279 -0.2835
   34POPC  H12A 4505   2.238   1.260  10.697 -0.4397  0.5675 -1.1801
   34POPC  H12B 4506   2.236   1.177  10.538  0.5364 -0.7349 -1.0324
   34POPC   C13 4507   2.492   1.112  10.553  0.4256 -0.3027  0.0424
   34POPC  H13A 4508   2.555   1.200  10.561 -0.0379 -0.1524  2.7796
   34POPC  H13B 4509   2.566   1.035  10.569  2.2962  1.0010 -1.7340
   34POPC  H13C 4510   2.436   1.094  10.462 -0.2077 -0.0197  0.3717
   34POPC   C14 4511   2.465   1.161  10.790  0.1495  0.4951 -0.2655
   34POPC  H14A 4512   2.540   1.084  10.800 -1.0600 -1.0494 -2.2199
   34POPC  H14B 4513   2.529   1.246  10.775  0.0631  0.5545 -0.2973
   34POPC  H14C 4514   2.400   1.164  10.876 -2.0712 -2.5641 -1.6599
   34POPC   C15 4515   2.314   1.000  10.684 -0.0908 -0.0499 -0.0138
   34POPC  H15A 4516   2.380   0.919  10.712 -0.5012 -0.2642  0.3560
   34POPC  H15B 4517   2.257   0.991  10.592 -2.4417  0.6667  1.3064
   34POPC  H15C 4518   2.245   1.010  10.766 -0.7596 -2.8316 -0.1495
   34POPC   C11 4519   2.344   1.367  10.554  1.1054  0.1661 -0.4327
   34POPC  H11A 4520   2.248   1.421  10.539  1.0023  0.3322  0.6916
   34POPC  H11B 4521   2.393   1.359  10.455  0.7796  1.2256 -0.6882
   34POPC     P 4522   2.371   1.530  10.758  0.0262 -0.0838 -0.0028
   34POPC   O13 4523   2.481   1.567  10.849 -0.0709  0.9152 -0.3945
   34POPC   O14 4524   2.254   1.468  10.823 -0.1643  0.7297  0.2465
   34POPC   O12 4525   2.432   1.436  10.648  0.0959 -0.3792  0.8346
   34POPC   O11 4526   2.332   1.663  10.683 -0.2348 -0.0783 -0.3648
   34POPC    C1 4527   2.415   1.713  10.575 -0.2717 -0.2013 -0.3571
   34POPC    HA 4528   2.521   1.680  10.583 -0.5104 -0.7457  0.6905
   34POPC    HB 4529   2.420   1.824  10.578  1.2392 -0.2707  2.0662
   34POPC    C2 4530   2.340   1.687  10.439  0.2250  0.4240 -1.0462
   34POPC    HS 4531   2.344   1.577  10.420 -1.0548  0.5584 -2.2751
   34POPC   O21 4532   2.406   1.753  10.338  0.8233  0.4028 -0.8160
   34POPC   C21 4533   2.402   1.686  10.219  0.3756 -0.5553 -0.7945
   34POPC   O22 4534   2.363   1.571  10.202 -0.3233 -0.0385  0.6722
   34POPC   C22 4535   2.478   1.764  10.115 -0.0010 -0.1504 -0.9610
   34POPC   H2R 4536   2.516   1.860  10.158 -0.1935  0.2184 -1.5931
   34POPC   H2S 4537   2.411   1.784  10.029  0.0173  1.0838 -0.7208
   34POPC    C3 4538   2.191   1.730  10.455 -0.2234 -0.5014  0.5857
   34POPC    HX 4539   2.203   1.832  10.496 -0.9379 -0.1157 -0.1303
   34POPC    HY 4540   2.128   1.676  10.528 -0.3245  0.1641  0.9983
   34POPC   O31 4541   2.128   1.730  10.327 -0.0117  0.2894  0.0211
   34POPC   C31 4542   2.061   1.624  10.291 -0.3592  0.0255 -0.3189
   34POPC   O32 4543   2.052   1.520  10.357 -0.5780 -0.2633  0.2732
   34POPC   C32 4544   1.986   1.654  10.167  0.1869  0.8467  0.1308
   34POPC   H2X 4545   1.943   1.755  10.180 -0.6431  0.4360  0.6637
   34POPC   H2Y 4546   1.896   1.590  10.157  0.4856  0.4585 -0.1161
   34POPC   C23 4547   2.594   1.683  10.061 -0.4279  0.3486 -0.3277
   34POPC   H3R 4548   2.551   1.585  10.030 -1.7768  1.4252 -2.0217
   34POPC   H3S 4549   2.679   1.672  10.132  0.2673  1.1820 -0.9964
   34POPC   C24 4550   2.636   1.730   9.924  0.4702  0.4854  0.0378
   34POPC   H4R 4551   2.703   1.817   9.933 -0.0838  1.1219 -1.4795
   34POPC   H4S 4552   2.548   1.772   9.869 -1.5173 -0.3885  2.3704
   34POPC   C25 4553   2.705   1.620   9.834  0.5184  0.2204 -1.2156
   34POPC   H5R 4554   2.648   1.525   9.832 -0.0493  0.5199 -0.0761
   34POPC   H5S 4555   2.806   1.592   9.870  0.4427 -1.0989 -1.9883
   34POPC   C26 4556   2.726   1.663   9.690  0.0861  0.7294 -0.1031
   34POPC   H6R 4557   2.766   1.767   9.692  0.7152  0.4788  1.2731
   34POPC   H6S 4558   2.629   1.663   9.636  0.4678  2.9166 -0.8897
   34POPC   C27 4559   2.836   1.577   9.623 -0.0232  0.4275 -0.1345
   34POPC   H7R 4560   2.826   1.478   9.674  2.4969  0.4984  0.6130
   34POPC   H7S 4561   2.932   1.625   9.651 -0.4906 -0.1184  2.7901
   34POPC   C28 4562   2.812   1.558   9.474  0.7401  0.2444  0.3031
   34POPC   H8R 4563   2.709   1.524   9.451  0.7213  0.0140  0.7298
   34POPC   H8S 4564   2.879   1.476   9.443  1.7241  1.4549 -0.9274
   34POPC   C29 4565   2.833   1.679   9.380 -0.5847 -0.1769 -0.3779
   34POPC   H91 4566   2.862   1.776   9.422  1.0928 -0.2028 -1.3661
   34POPC  C210 4567   2.820   1.666   9.249 -0.6457  0.3358 -0.4931
   34POPC  H101 4568   2.829   1.752   9.180  0.2636  1.4496  0.9482
   34POPC  C211 4569   2.778   1.540   9.179 -0.6830  0.0147  0.5549
   34POPC  H11R 4570   2.781   1.456   9.252 -0.0839  1.7956  2.6790
   34POPC  H11S 4571   2.862   1.525   9.107  1.1244  0.5323  2.4407
   34POPC  C212 4572   2.640   1.526   9.111  0.1162 -0.4326 -0.0066
   34POPC  H12R 4573   2.572   1.547   9.197  2.8277  0.9209  1.9331
   34POPC  H12S 4574   2.635   1.419   9.081 -0.5963 -1.2611  2.7535
   34POPC  C213 4575   2.631   1.618   8.988 -0.0602  0.7764  0.0014
   34POPC  H13R 4576   2.682   1.713   9.014  2.5460 -0.6667  0.6122
   34POPC  H13S 4577   2.527   1.637   8.956 -0.8515 -0.4695  1.6700
   34POPC  C214 4578   2.692   1.545   8.862 -0.3452 -0.6689 -0.7847
   34POPC  H14R 4579   2.619   1.471   8.823 -2.6511  0.8131  0.4643
   34POPC  H14S 4580   2.794   1.510   8.887 -0.5330  0.5445  2.1790
   34POPC  C215 4581   2.678   1.638   8.742  0.7675 -0.6113  0.0822
   34POPC  H15R 4582   2.740   1.723   8.778  0.1429 -0.2431  0.3009
   34POPC  H15S 4583   2.578   1.685   8.731  0.6154 -0.2651  2.4822
   34POPC  C216 4584   2.742   1.587   8.614  0.3732 -0.2880 -0.4723
   34POPC  H16R 4585   2.733   1.480   8.585  0.8910 -0.4654 -0.0027
   34POPC  H16S 4586   2.853   1.595   8.615  0.4819 -1.3152 -1.6623
   34POPC  C217 4587   2.680   1.663   8.497  0.0956  0.0256  0.6068
   34POPC  H17R 4588   2.670   1.771   8.523  1.1444  0.5708 -1.0569
   34POPC  H17S 4589   2.581   1.615   8.490  0.7507 -1.1184 -2.4991
   34POPC  C218 4590   2.764   1.635   8.367 -0.2368  0.3166  0.4458
   34POPC  H18R 4591   2.866   1.681   8.371  0.4241 -1.1721  2.8415
   34POPC  H18S 4592   2.708   1.680   8.283 -0.2499  0.7623  0.6891
   34POPC  H18T 4593   2.772   1.525   8.354  1.0649  0.3980  0.3970
   34POPC   C33 4594   2.065   1.641  10.038  0.1542 -0.0301 -0.2466
   34POPC   H3X 4595   2.090   1.535  10.015  0.0454 -0.3570  1.0397
   34POPC   H3Y 4596   2.166   1.686  10.048 -0.4970  1.8302 -1.4314
   34POPC   C34 4597   1.988   1.685   9.913 -0.9119  0.6796 -0.4106
   34POPC   H4X 4598   1.969   1.793   9.901  1.2426  0.8443 -3.1682
   34POPC   H4Y 4599   1.892   1.629   9.917 -0.0752 -0.7614  0.9511
   34POPC   C35 4600   2.084   1.643   9.795 -0.0130 -0.4937  0.2360
   34POPC   H5X 4601   2.097   1.533   9.786 -1.2025 -0.5079 -2.0462
   34POPC   H5Y 4602   2.183   1.694   9.802 -0.6785  0.6957  1.3418
   34POPC   C36 4603   2.026   1.694   9.655 -0.0729 -0.3661  1.1975
   34POPC   H6X 4604   2.041   1.804   9.650 -1.1051 -0.1440  2.5277
   34POPC   H6Y 4605   1.917   1.676   9.650 -0.4256  1.9507 -1.2674
   34POPC   C37 4606   2.107   1.624   9.544 -0.0276 -0.3652 -0.2587
   34POPC   H7X 4607   2.101   1.514   9.551 -0.1335 -0.3723 -0.4768
   34POPC   H7Y 4608   2.215   1.647   9.561  0.7491 -2.8276 -1.4360
   34POPC   C38 4609   2.047   1.663   9.411 -0.1457  0.3231 -0.1503
   34POPC   H8X 4610   2.064   1.771   9.394 -0.9613  0.4563 -0.1677
   34POPC   H8Y 4611   1.942   1.633   9.394 -0.5456  2.3272 -1.4927
   34POPC   C39 4612   2.128   1.591   9.294 -0.0529  0.4341 -0.3457
   34POPC   H9X 4613   2.115   1.480   9.301 -0.5016  0.5175  0.2924
   34POPC   H9Y 4614   2.236   1.612   9.279  0.7868 -0.6924  3.1471
   34POPC  C310 4615   2.072   1.636   9.159 -0.2125  0.2355  0.3891
   34POPC  H10X 4616   2.070   1.747   9.147  2.3180  0.1528 -1.4787
   34POPC  H10Y 4617   1.972   1.598   9.131 -1.1465  2.3457  0.6926
   34POPC  C311 4618   2.166   1.591   9.044 -0.6749  1.1877  0.3395
   34POPC  H11X 4619   2.161   1.481   9.030 -0.7949  0.9512  2.0813
   34POPC  H11Y 4620   2.270   1.624   9.061 -0.7407  1.0275  1.0868
   34POPC  C312 4621   2.121   1.637   8.906 -0.5219  0.1558 -0.0776
   34POPC  H12X 4622   2.101   1.746   8.909  1.7805  0.5945  0.9606
   34POPC  H12Y 4623   2.029   1.578   8.883 -1.5407  0.0157  3.6240
   34POPC  C313 4624   2.222   1.614   8.791 -0.1394  1.1654  0.0157
   34POPC  H13X 4625   2.315   1.672   8.812  0.0822  0.4052  1.2231
   34POPC  H13Y 4626   2.169   1.660   8.705  0.4290  0.6261 -0.6359
   34POPC  C314 4627   2.252   1.470   8.758 -0.2275  0.1151 -0.0420
   34POPC  H14X 4628   2.156   1.420   8.733 -1.2923  2.0009  0.0828
   34POPC  H14Y 4629   2.306   1.434   8.848 -0.1662  4.2150  1.7992
   34POPC  C315 4630   2.340   1.477   8.634 -0.1084  0.7216 -0.0627
   34POPC  H15X 4631   2.396   1.573   8.636  0.9341  0.1148  0.5899
   34POPC  H15Y 4632   2.276   1.485   8.544 -3.0768 -2.3724  1.5622
   34POPC  C316 4633   2.428   1.351   8.619  0.1139 -0.0782 -1.1739
   34POPC  H16X 4634   2.384   1.258   8.661 -0.4444  0.8128  0.2756
   34POPC  H16Y 4635   2.530   1.363   8.662  0.9035 -0.5349 -2.8457
   34POPC  H16Z 4636   2.438   1.330   8.510  0.9002 -2.3104 -0.7195
   35POPC     N 4637   3.637   4.556  11.260 -0.1245 -1.5477 -0.4345
   35POPC   C12 4638   3.749   4.458  11.286  0.3012  0.5242  0.1056
   35POPC  H12A 4639   3.759   4.450  11.393 -0.2811 -1.3508  0.0625
   35POPC  H12B 4640   3.840   4.496  11.242 -0.3636  0.7045 -1.1831
   35POPC   C13 4641   3.600   4.555  11.116 -0.9729  0.0081  0.0479
   35POPC  H13A 4642   3.514   4.617  11.099 -1.1961  0.4568  2.4917
   35POPC  H13B 4643   3.679   4.582  11.046  0.7579 -0.0259  1.8907
   35POPC  H13C 4644   3.588   4.453  11.083 -0.2825 -0.3438  0.8448
   35POPC   C14 4645   3.518   4.528  11.344  0.3135  0.5150 -0.1150
   35POPC  H14A 4646   3.544   4.525  11.449  0.7305 -2.2503 -0.2257
   35POPC  H14B 4647   3.440   4.602  11.340 -0.3520 -0.1862 -0.2436
   35POPC  H14C 4648   3.475   4.433  11.316 -1.6550  1.4497 -0.3965
   35POPC   C15 4649   3.680   4.696  11.300 -0.2154 -0.4601  0.2648
   35POPC  H15A 4650   3.748   4.738  11.227 -1.4730  1.6602  0.1983
   35POPC  H15B 4651   3.721   4.703  11.399  0.2393 -2.6032  0.2622
   35POPC  H15C 4652   3.597   4.763  11.319  1.1990  1.0142  1.5164
   35POPC   C11 4653   3.719   4.310  11.236  0.8427 -0.2943  0.7461
   35POPC  H11A 4654   3.616   4.295  11.274 -0.5233 -0.7317 -2.6961
   35POPC  H11B 4655   3.785   4.235  11.283  1.3678 -0.2583  0.0845
   35POPC     P 4656   3.859   4.301  11.024 -0.0380 -0.3375 -0.5445
   35POPC   O13 4657   3.959   4.248  11.121  0.3159 -0.0239  0.4709
   35POPC   O14 4658   3.892   4.435  10.958  0.0140  0.0772 -0.3305
   35POPC   O12 4659   3.716   4.304  11.094  0.2420  0.5056 -0.4452
   35POPC   O11 4660   3.837   4.195  10.912 -0.4495  0.0930  0.0766
   35POPC    C1 4661   3.707   4.158  10.861 -0.1636  0.3681 -0.0467
   35POPC    HA 4662   3.634   4.236  10.831 -0.3223  0.3472  0.2922
   35POPC    HB 4663   3.668   4.083  10.932 -0.1849 -0.7629 -1.2091
   35POPC    C2 4664   3.721   4.078  10.727  0.3291 -0.6890  0.0575
   35POPC    HS 4665   3.792   3.994  10.745  4.2940  2.0271 -1.5792
   35POPC   O21 4666   3.779   4.165  10.626  0.2621 -0.1909 -0.2730
   35POPC   C21 4667   3.908   4.141  10.601  0.3689 -1.0549 -0.1365
   35POPC   O22 4668   3.973   4.058  10.654  0.1672  0.1088 -0.4198
   35POPC   C22 4669   3.959   4.230  10.481  0.7140  0.7034 -0.2899
   35POPC   H2R 4670   4.059   4.267  10.512  0.5374  2.3903 -1.6359
   35POPC   H2S 4671   3.892   4.318  10.479 -0.6897 -0.3198  0.1289
   35POPC    C3 4672   3.588   4.028  10.671  0.4333 -0.3066  0.6508
   35POPC    HX 4673   3.514   4.109  10.658  1.1801  0.1414 -1.1049
   35POPC    HY 4674   3.539   3.948  10.731  0.4795 -0.1804  0.8584
   35POPC   O31 4675   3.613   3.972  10.541 -0.7369 -0.4271  0.5762
   35POPC   C31 4676   3.506   3.922  10.475  0.1268 -0.5194 -0.4615
   35POPC   O32 4677   3.394   3.909  10.519  0.0113  0.3801 -0.8306
   35POPC   C32 4678   3.537   3.917  10.325 -0.6013  0.0310  0.7591
   35POPC   H2X 4679   3.623   3.848  10.316  0.4719  1.4000  0.1890
   35POPC   H2Y 4680   3.579   4.016  10.299 -1.0036 -0.4920 -2.2544
   35POPC   C23 4681   3.943   4.154  10.350 -0.7301  0.3744  0.9207
   35POPC   H3R 4682   3.840   4.111  10.348  0.4495 -2.6739  1.1494
   35POPC   H3S 4683   4.014   4.070  10.337  0.0298  1.2189 -0.6766
   35POPC   C24 4684   3.971   4.231  10.219 -0.3817  0.1533  0.6611
   35POPC   H4R 4685   4.074   4.274  10.220 -0.7177  0.9747  0.5005
   35POPC   H4S 4686   3.905   4.320  10.209 -1.3489 -0.7019 -0.9240
   35POPC   C25 4687   3.946   4.150  10.090 -0.2546  0.1189 -0.5482
   35POPC   H5R 4688   3.842   4.111  10.090  0.3583 -1.6326 -0.2967
   35POPC   H5S 4689   4.010   4.063  10.064 -0.0971  0.5313 -1.5700
   35POPC   C26 4690   3.959   4.237   9.963 -0.1667 -0.0677 -0.7152
   35POPC   H6R 4691   4.047   4.304   9.963 -0.0682 -0.1782  0.2627
   35POPC   H6S 4692   3.872   4.307   9.964  0.3128  0.5428  0.4864
   35POPC   C27 4693   3.965   4.152   9.839  1.3189  0.0798  0.1034
   35POPC   H7R 4694   3.870   4.095   9.838 -1.2532  3.9991  0.9409
   35POPC   H7S 4695   4.056   4.088   9.841  0.0355 -1.8586 -0.2325
   35POPC   C28 4696   3.965   4.227   9.698 -0.4665  0.5988  0.1971
   35POPC   H8R 4697   3.883   4.300   9.715  0.1220  1.2798  0.1084
   35POPC   H8S 4698   3.943   4.156   9.615 -1.3514  0.1362  0.8049
   35POPC   C29 4699   4.094   4.308   9.671  0.5297 -0.4068 -0.2608
   35POPC   H91 4700   4.180   4.267   9.725  0.4021 -2.2709 -1.3599
   35POPC  C210 4701   4.110   4.405   9.581 -0.1970 -0.0305  0.4621
   35POPC  H101 4702   4.211   4.444   9.561  0.3402 -2.0392 -0.9796
   35POPC  C211 4703   4.005   4.461   9.483  0.2915  0.7294  0.4630
   35POPC  H11R 4704   4.024   4.566   9.451 -2.5605  0.5017 -2.4650
   35POPC  H11S 4705   3.917   4.467   9.550  1.2148  2.3180  1.6095
   35POPC  C212 4706   3.994   4.369   9.361 -0.7523 -0.2170  0.5633
   35POPC  H12R 4707   3.983   4.261   9.387 -0.1617 -0.1733  1.0254
   35POPC  H12S 4708   4.075   4.373   9.285 -1.0634  1.2091  0.2911
   35POPC  C213 4709   3.861   4.396   9.290 -0.2245 -0.1234 -0.4053
   35POPC  H13R 4710   3.843   4.505   9.285 -2.4784 -0.2556  2.1456
   35POPC  H13S 4711   3.785   4.361   9.364  2.0194  0.4917  2.3794
   35POPC  C214 4712   3.849   4.316   9.154  0.6964 -1.0921 -0.5853
   35POPC  H14R 4713   3.850   4.210   9.187  2.3797 -0.2700  2.4592
   35POPC  H14S 4714   3.939   4.326   9.090  0.9776 -1.1894 -0.2130
   35POPC  C215 4715   3.726   4.362   9.077  0.7587 -0.1961 -0.5016
   35POPC  H15R 4716   3.723   4.473   9.066 -1.7348 -0.1503 -0.0182
   35POPC  H15S 4717   3.633   4.339   9.132  0.3013 -0.6406 -1.4283
   35POPC  C216 4718   3.708   4.298   8.944 -0.4140  0.0203 -0.4763
   35POPC  H16R 4719   3.802   4.248   8.913  0.8002 -0.0585  2.9858
   35POPC  H16S 4720   3.697   4.378   8.868 -0.0527  0.1998 -0.3406
   35POPC  C217 4721   3.597   4.194   8.934  0.2401  0.3916 -0.4327
   35POPC  H17R 4722   3.502   4.244   8.962 -0.8353 -2.4797  1.6405
   35POPC  H17S 4723   3.618   4.123   9.017  1.4952  0.1179 -0.9564
   35POPC  C218 4724   3.579   4.126   8.799 -0.1070 -0.1589  0.0499
   35POPC  H18R 4725   3.505   4.044   8.808 -1.6595  1.2749  0.8227
   35POPC  H18S 4726   3.671   4.080   8.757 -0.2183  0.1949 -0.5919
   35POPC  H18T 4727   3.540   4.191   8.718 -0.5372  0.0399  0.4132
   35POPC   C33 4728   3.416   3.864  10.249  0.1163  0.5735  0.5990
   35POPC   H3X 4729   3.328   3.930  10.265 -0.3697  0.2071 -0.4445
   35POPC   H3Y 4730   3.393   3.760  10.279  3.7057 -0.7911 -0.8737
   35POPC   C34 4731   3.451   3.844  10.102 -0.4958 -0.3675 -0.0905
   35POPC   H4X 4732   3.517   3.759  10.073 -1.2623 -1.3533  0.9788
   35POPC   H4Y 4733   3.497   3.940  10.069  2.1162 -1.7442 -0.7444
   35POPC   C35 4734   3.324   3.833  10.017  0.3479  0.8157  0.7370
   35POPC   H5X 4735   3.267   3.928  10.026  1.5150  1.7686 -1.3299
   35POPC   H5Y 4736   3.258   3.758  10.065  0.1570  0.5711  0.0977
   35POPC   C36 4737   3.330   3.793   9.865 -0.0035 -0.3607 -0.5310
   35POPC   H6X 4738   3.235   3.824   9.816 -0.7129 -0.4936  0.7253
   35POPC   H6Y 4739   3.335   3.685   9.842 -0.5063 -0.1728 -1.5775
   35POPC   C37 4740   3.447   3.870   9.802  0.0506  0.5209  0.2654
   35POPC   H7X 4741   3.537   3.815   9.839 -1.1954 -1.3178  0.6851
   35POPC   H7Y 4742   3.444   3.977   9.832  1.6655  1.0362 -1.2083
   35POPC   C38 4743   3.445   3.850   9.648 -0.1294 -0.6433  1.0903
   35POPC   H8X 4744   3.363   3.909   9.601  0.3810 -1.4734 -0.9733
   35POPC   H8Y 4745   3.434   3.742   9.627 -1.2709 -0.3558  0.1140
   35POPC   C39 4746   3.582   3.907   9.584  0.6599 -0.0406  0.4141
   35POPC   H9X 4747   3.669   3.852   9.625  1.4115  0.5104 -0.3925
   35POPC   H9Y 4748   3.592   4.012   9.619  0.9688  0.0011  0.2041
   35POPC  C310 4749   3.588   3.910   9.427 -1.0778 -0.3773 -0.3848
   35POPC  H10X 4750   3.688   3.941   9.391 -0.5126  0.2178  1.5746
   35POPC  H10Y 4751   3.531   3.995   9.384 -0.2015  0.6261  0.3986
   35POPC  C311 4752   3.541   3.787   9.360  0.7421  0.5987 -0.0094
   35POPC  H11X 4753   3.443   3.756   9.402  1.0445  1.8861  1.8153
   35POPC  H11Y 4754   3.607   3.698   9.368  1.8135  1.2681 -1.1242
   35POPC  C312 4755   3.516   3.805   9.205  0.6796 -0.1187 -0.2518
   35POPC  H12X 4756   3.463   3.902   9.191 -0.0358 -0.4070  0.4040
   35POPC  H12Y 4757   3.464   3.713   9.173  2.5190 -1.5907  0.7603
   35POPC  C313 4758   3.648   3.811   9.131  0.5000  0.4044  0.5075
   35POPC  H13X 4759   3.718   3.740   9.178  1.5609  0.7375 -0.5070
   35POPC  H13Y 4760   3.689   3.914   9.138 -1.3487  1.3458 -1.3751
   35POPC  C314 4761   3.634   3.774   8.980  0.7551 -0.1219  0.0381
   35POPC  H14X 4762   3.557   3.827   8.920  0.1431  0.8244  1.5976
   35POPC  H14Y 4763   3.632   3.664   8.962  1.5717 -0.9082  3.7597
   35POPC  C315 4764   3.773   3.816   8.929  0.6974  0.3396 -0.6289
   35POPC  H15X 4765   3.844   3.792   9.012 -0.9069 -0.0453  0.6764
   35POPC  H15Y 4766   3.776   3.925   8.912 -4.4623  1.0147  1.0504
   35POPC  C316 4767   3.810   3.739   8.804  0.5387  0.1266  0.5180
   35POPC  H16X 4768   3.726   3.748   8.732 -0.4016  1.0234  1.6916
   35POPC  H16Y 4769   3.805   3.632   8.831 -0.3301  0.2238  0.7734
   35POPC  H16Z 4770   3.903   3.763   8.747 -0.6561 -1.0447 -2.0684
   36POPC     N 4771   5.352   3.463  11.163  0.4101 -0.3512  0.0379
   36POPC   C12 4772   5.375   3.585  11.247  0.3420 -0.7644  0.2548
   36POPC  H12A 4773   5.480   3.609  11.241  0.1430  0.2163  0.4535
   36POPC  H12B 4774   5.352   3.558  11.349 -0.0833  1.0544  0.6738
   36POPC   C13 4775   5.217   3.403  11.171  0.2766 -0.6892  1.0163
   36POPC  H13A 4776   5.195   3.341  11.086  0.8692 -1.3351  1.3235
   36POPC  H13B 4777   5.206   3.352  11.265  0.1157 -1.1936  0.7276
   36POPC  H13C 4778   5.147   3.483  11.151 -0.5216 -1.9341 -1.5639
   36POPC   C14 4779   5.371   3.498  11.021 -0.3066  0.6744 -0.7633
   36POPC  H14A 4780   5.303   3.569  10.976  0.9271  1.8613 -0.8111
   36POPC  H14B 4781   5.468   3.540  11.000  1.9115 -3.1765  0.7787
   36POPC  H14C 4782   5.363   3.406  10.965  1.3060 -0.5446  0.8730
   36POPC   C15 4783   5.464   3.359  11.195  0.4187 -0.4371 -0.2264
   36POPC  H15A 4784   5.556   3.408  11.168  0.8207  0.0642  1.8559
   36POPC  H15B 4785   5.466   3.267  11.139  3.0497 -0.7886  0.3361
   36POPC  H15C 4786   5.462   3.348  11.303 -2.4615  1.1601 -0.0074
   36POPC   C11 4787   5.301   3.717  11.205  0.3719  0.7963  0.3296
   36POPC  H11A 4788   5.350   3.761  11.116 -1.2304  0.5656 -0.7029
   36POPC  H11B 4789   5.317   3.791  11.286  1.1751  0.2944  0.6507
   36POPC     P 4790   5.085   3.764  11.065  0.2101 -0.4307  0.2408
   36POPC   O13 4791   4.999   3.867  11.133 -0.3244  0.4109  0.8470
   36POPC   O14 4792   5.019   3.670  10.981  0.4510 -0.1173 -0.5399
   36POPC   O12 4793   5.170   3.693  11.173  0.4212  0.8290  0.1663
   36POPC   O11 4794   5.190   3.838  10.978 -0.2924 -0.1661  0.2647
   36POPC    C1 4795   5.243   3.785  10.858 -0.2038  0.1320 -0.2317
   36POPC    HA 4796   5.219   3.677  10.850  0.1712 -0.0047  0.4052
   36POPC    HB 4797   5.353   3.788  10.871 -0.1745 -1.0858 -0.0792
   36POPC    C2 4798   5.179   3.852  10.734 -0.0220 -0.1934  1.1341
   36POPC    HS 4799   5.170   3.961  10.748 -3.9968 -0.1757 -0.4443
   36POPC   O21 4800   5.054   3.786  10.707 -0.1492  0.8309  0.0440
   36POPC   C21 4801   4.943   3.857  10.684 -0.0791 -0.0951 -0.6171
   36POPC   O22 4802   4.944   3.978  10.660  0.7002 -0.1478 -1.2012
   36POPC   C22 4803   4.817   3.770  10.676  0.2957 -0.6081 -0.8419
   36POPC   H2R 4804   4.765   3.802  10.768  1.5607  1.6166 -0.8363
   36POPC   H2S 4805   4.842   3.662  10.684 -0.5206 -0.7284  0.1651
   36POPC    C3 4806   5.267   3.854  10.607 -0.2347 -0.1925  0.3082
   36POPC    HX 4807   5.295   3.748  10.590  0.3542  0.0344 -0.1676
   36POPC    HY 4808   5.363   3.908  10.620  0.6566 -1.7054  0.1881
   36POPC   O31 4809   5.198   3.902  10.486 -0.1611 -0.4323 -0.1811
   36POPC   C31 4810   5.201   4.033  10.463 -0.3939 -0.6516  0.4661
   36POPC   O32 4811   5.258   4.116  10.533  0.1463  0.2971  0.4549
   36POPC   C32 4812   5.152   4.066  10.326 -0.1164 -0.7328  0.6201
   36POPC   H2X 4813   5.166   4.170  10.290  2.1123 -0.0421  3.1916
   36POPC   H2Y 4814   5.041   4.063  10.336 -0.1041  1.0304  1.5858
   36POPC   C23 4815   4.730   3.820  10.551  0.3785 -0.3053  0.2797
   36POPC   H3R 4816   4.726   3.931  10.552  0.3542 -0.2977 -0.4787
   36POPC   H3S 4817   4.634   3.767  10.569  1.3548 -1.3583  3.1171
   36POPC   C24 4818   4.799   3.754  10.423 -0.5855  0.2047 -0.4870
   36POPC   H4R 4819   4.815   3.647  10.444  0.5151  0.1321 -1.6004
   36POPC   H4S 4820   4.897   3.805  10.418 -0.4717 -0.0061 -0.3925
   36POPC   C25 4821   4.699   3.782  10.296 -0.7551  0.0358 -0.4187
   36POPC   H5R 4822   4.682   3.892  10.301  0.0005  0.1362  0.0693
   36POPC   H5S 4823   4.602   3.731  10.316 -0.6631  0.1793  0.4151
   36POPC   C26 4824   4.757   3.749  10.161 -0.0553  1.4422  0.1387
   36POPC   H6R 4825   4.856   3.796  10.141  1.0578 -0.3667  1.1067
   36POPC   H6S 4826   4.685   3.773  10.080  0.2831  1.1273 -0.2583
   36POPC   C27 4827   4.790   3.590  10.151 -0.2550  0.5367  0.6451
   36POPC   H7R 4828   4.701   3.530  10.179 -0.1358 -0.5788 -1.2550
   36POPC   H7S 4829   4.868   3.569  10.228 -1.4648 -3.1562  1.0269
   36POPC   C28 4830   4.821   3.550  10.007 -0.6707 -0.7064  0.0177
   36POPC   H8R 4831   4.751   3.611   9.945 -0.1011 -1.5965 -1.5675
   36POPC   H8S 4832   4.801   3.443   9.984  0.4591 -1.0891  0.7759
   36POPC   C29 4833   4.955   3.595   9.957  0.6066  0.0043 -0.4130
   36POPC   H91 4834   5.017   3.633  10.041  0.7563 -0.5406 -0.2769
   36POPC  C210 4835   4.992   3.608   9.833 -0.3297 -0.1025 -0.2310
   36POPC  H101 4836   5.093   3.644   9.811 -0.3994  0.2675  0.0432
   36POPC  C211 4837   4.909   3.574   9.715  0.8620 -0.0329 -0.3079
   36POPC  H11R 4838   4.865   3.670   9.680 -0.6408 -0.9675 -1.0819
   36POPC  H11S 4839   4.819   3.514   9.738  0.9154  0.7097  2.0689
   36POPC  C212 4840   4.985   3.507   9.602  0.4593 -0.4180  0.2687
   36POPC  H12R 4841   5.017   3.407   9.638 -1.2729 -0.7353  1.0232
   36POPC  H12S 4842   5.070   3.568   9.565 -1.1438  1.1481 -0.9947
   36POPC  C213 4843   4.885   3.488   9.481 -0.0332  0.8770  0.0842
   36POPC  H13R 4844   4.826   3.581   9.477  1.3045  1.7283 -0.9160
   36POPC  H13S 4845   4.812   3.407   9.503  0.2921  0.4472 -0.3717
   36POPC  C214 4846   4.963   3.453   9.350 -0.1313  0.5799 -0.7810
   36POPC  H14R 4847   5.036   3.371   9.371 -1.8490 -0.2813  2.4598
   36POPC  H14S 4848   5.025   3.540   9.318 -0.3218  0.3223 -1.8918
   36POPC  C215 4849   4.883   3.388   9.229 -0.3012 -0.3082 -0.3531
   36POPC  H15R 4850   4.789   3.446   9.215  0.4028  1.2108  0.9253
   36POPC  H15S 4851   4.858   3.281   9.247  0.4748 -0.7813 -1.9160
   36POPC  C216 4852   4.941   3.405   9.090  0.0455 -0.2730  0.3272
   36POPC  H16R 4853   5.033   3.344   9.074 -1.0188 -1.9640  0.4150
   36POPC  H16S 4854   4.960   3.514   9.075 -0.9920 -0.2686 -1.3091
   36POPC  C217 4855   4.844   3.363   8.980 -0.0222  0.7268  0.4033
   36POPC  H17R 4856   4.747   3.418   8.984 -0.6237 -0.4037  2.2323
   36POPC  H17S 4857   4.819   3.257   8.998  1.7783  0.6607  3.1287
   36POPC  C218 4858   4.893   3.374   8.834 -0.2245 -0.2625  0.9654
   36POPC  H18R 4859   4.920   3.479   8.810  0.3010 -0.5613  0.1816
   36POPC  H18S 4860   4.818   3.349   8.755 -1.4042  1.0391  1.6254
   36POPC  H18T 4861   4.990   3.323   8.815 -0.3074 -0.5910  1.3963
   36POPC   C33 4862   5.211   3.962  10.216 -0.1751 -0.0987  0.1719
   36POPC   H3X 4863   5.145   3.873  10.210  0.6727 -0.6489 -1.6038
   36POPC   H3Y 4864   5.309   3.916  10.241  0.5772  1.2954 -0.0976
   36POPC   C34 4865   5.205   4.028  10.081 -0.4494 -0.4292 -0.1608
   36POPC   H4X 4866   5.289   4.100  10.070  1.1393 -2.2318 -0.3661
   36POPC   H4Y 4867   5.105   4.076  10.076  0.2628  1.6954  3.0276
   36POPC   C35 4868   5.208   3.930   9.965  0.3951 -0.3601 -0.4207
   36POPC   H5X 4869   5.110   3.879   9.974 -0.0962  0.7263  0.8201
   36POPC   H5Y 4870   5.290   3.856   9.977 -1.4768 -2.5233 -0.3224
   36POPC   C36 4871   5.224   4.002   9.834  0.0806 -0.0086  0.3720
   36POPC   H6X 4872   5.329   4.036   9.841  1.2530 -3.3901  0.9431
   36POPC   H6Y 4873   5.147   4.081   9.824  0.0403  0.1999  2.1039
   36POPC   C37 4874   5.204   3.902   9.715  0.8076  0.6637  0.7074
   36POPC   H7X 4875   5.104   3.854   9.727  0.9795  0.0906 -0.0409
   36POPC   H7Y 4876   5.290   3.831   9.722 -0.2538 -0.5117  2.7080
   36POPC   C38 4877   5.206   3.976   9.582 -0.1159 -0.1423  0.1139
   36POPC   H8X 4878   5.305   4.025   9.568 -0.3718 -0.2309 -2.4149
   36POPC   H8Y 4879   5.123   4.048   9.569  0.6696  0.5149 -1.4444
   36POPC   C39 4880   5.199   3.884   9.463  0.4451 -0.5006  0.5084
   36POPC   H9X 4881   5.105   3.826   9.463  1.0847 -1.6351 -1.5743
   36POPC   H9Y 4882   5.282   3.814   9.487  0.5878  0.2196  2.3261
   36POPC  C310 4883   5.224   3.961   9.332  0.3836  0.6919  0.7169
   36POPC  H10X 4884   5.305   4.037   9.333 -0.9401  2.1660  1.0606
   36POPC  H10Y 4885   5.131   4.021   9.330  0.3720  0.7545  2.3185
   36POPC  C311 4886   5.209   3.867   9.203 -0.7442 -0.6528  0.1656
   36POPC  H11X 4887   5.133   3.792   9.234 -1.4741  0.5405  1.3745
   36POPC  H11Y 4888   5.299   3.802   9.199 -0.7423 -0.7376  1.2096
   36POPC  C312 4889   5.184   3.937   9.074  0.6167  0.4611 -0.5314
   36POPC  H12X 4890   5.284   3.930   9.025  0.4791 -0.4418 -0.7005
   36POPC  H12Y 4891   5.161   4.045   9.064 -0.5295  0.1951 -0.9252
   36POPC  C313 4892   5.080   3.855   8.990  0.7426 -0.0163  0.6882
   36POPC  H13X 4893   4.992   3.834   9.054  0.7144 -1.9648  0.0585
   36POPC  H13Y 4894   5.124   3.756   8.968  0.6553  0.0519  0.1972
   36POPC  C314 4895   5.048   3.904   8.852  0.0022  0.4452 -0.3983
   36POPC  H14X 4896   4.963   3.976   8.862 -0.6509  0.4058 -4.0824
   36POPC  H14Y 4897   5.004   3.815   8.802 -1.6163  0.2385  1.3061
   36POPC  C315 4898   5.160   3.974   8.773  0.1949  0.5448  0.1062
   36POPC  H15X 4899   5.245   3.903   8.760 -0.4156 -0.2707  0.4991
   36POPC  H15Y 4900   5.204   4.058   8.831  0.1835  1.2302 -0.8558
   36POPC  C316 4901   5.109   4.046   8.646 -1.4352  0.2411  0.2842
   36POPC  H16X 4902   5.019   4.106   8.674 -2.0638 -0.5126 -0.0687
   36POPC  H16Y 4903   5.078   3.979   8.564 -0.4217  1.1726 -0.8852
   36POPC  H16Z 4904   5.184   4.111   8.597  0.3429  0.4402  3.0193
   37POPC     N 4905   1.173   5.472   6.070  0.0158  0.7140 -0.9062
   37POPC   C12 4906   1.275   5.434   6.177  0.4406  0.7577 -0.2918
   37POPC  H12A 4907   1.281   5.326   6.168 -0.1274  0.7905 -1.2267
   37POPC  H12B 4908   1.239   5.434   6.279 -0.1675  0.5606 -0.4985
   37POPC   C13 4909   1.236   5.429   5.939 -0.1982 -0.1405  0.2192
   37POPC  H13A 4910   1.333   5.475   5.929  0.0162 -0.2133  1.7435
   37POPC  H13B 4911   1.242   5.322   5.930 -1.7065 -0.4437  2.1858
   37POPC  H13C 4912   1.168   5.455   5.859  0.5977 -1.0780 -0.8006
   37POPC   C14 4913   1.041   5.406   6.092 -0.2395  0.6017 -0.2028
   37POPC  H14A 4914   1.056   5.304   6.123  0.3930  0.8502  0.3082
   37POPC  H14B 4915   0.987   5.463   6.167  0.3900  0.8545  0.0600
   37POPC  H14C 4916   0.976   5.409   6.005 -1.2822 -0.3098  0.5145
   37POPC   C15 4917   1.150   5.624   6.058 -1.0346  0.4556 -0.2213
   37POPC  H15A 4918   1.097   5.660   6.145 -0.2200  0.1570  0.4072
   37POPC  H15B 4919   1.099   5.654   5.968  0.8722  2.8991 -0.5783
   37POPC  H15C 4920   1.244   5.677   6.064 -2.9312  4.0681  0.2649
   37POPC   C11 4921   1.411   5.497   6.159 -0.1671 -0.0357  0.0890
   37POPC  H11A 4922   1.450   5.500   6.055  0.3927 -2.0695  0.1933
   37POPC  H11B 4923   1.490   5.435   6.207  1.9970  1.6964 -1.0670
   37POPC     P 4924   1.371   5.670   6.361  0.6744  0.0233  0.2325
   37POPC   O13 4925   1.245   5.752   6.344 -0.2933 -0.2048 -0.1486
   37POPC   O14 4926   1.490   5.738   6.424  0.1100  0.2721 -0.3613
   37POPC   O12 4927   1.412   5.635   6.213 -0.3014  0.3232  0.3760
   37POPC   O11 4928   1.334   5.532   6.425  0.1790 -0.1833 -0.5460
   37POPC    C1 4929   1.438   5.464   6.500  0.1650 -0.2862 -0.3385
   37POPC    HA 4930   1.511   5.520   6.563  0.1424  1.3432 -1.6725
   37POPC    HB 4931   1.495   5.402   6.427  1.7648  1.7126 -0.8858
   37POPC    C2 4932   1.370   5.378   6.611  0.1751 -0.1249 -0.5556
   37POPC    HS 4933   1.313   5.301   6.556 -0.2961  0.4852 -0.9165
   37POPC   O21 4934   1.276   5.458   6.688  0.1072 -0.5449  0.0812
   37POPC   C21 4935   1.170   5.386   6.731 -0.0207  0.2554 -1.2654
   37POPC   O22 4936   1.160   5.264   6.717 -0.2493 -0.3782  0.1919
   37POPC   C22 4937   1.076   5.473   6.810  0.3276 -0.5682 -0.5168
   37POPC   H2R 4938   0.972   5.450   6.776 -0.1907 -0.3331  0.8322
   37POPC   H2S 4939   1.097   5.579   6.786 -0.0716 -0.2769  0.3700
   37POPC    C3 4940   1.481   5.307   6.706  0.0044  0.2153  0.4935
   37POPC    HX 4941   1.550   5.250   6.640  1.1198  3.9318 -1.8643
   37POPC    HY 4942   1.431   5.231   6.769  2.3070 -1.3156  0.6223
   37POPC   O31 4943   1.545   5.409   6.781  0.6916 -0.1135 -0.5352
   37POPC   C31 4944   1.526   5.415   6.917  0.5750 -0.9092  0.7866
   37POPC   O32 4945   1.445   5.354   6.982  0.2978  0.8447  0.0244
   37POPC   C32 4946   1.614   5.524   6.973 -0.3250 -0.9184 -0.5198
   37POPC   H2X 4947   1.655   5.590   6.894 -0.1411 -1.5137 -0.9314
   37POPC   H2Y 4948   1.712   5.488   7.010  0.6193  1.1099 -0.9407
   37POPC   C23 4949   1.091   5.469   6.961  0.3296  0.0025 -0.3995
   37POPC   H3R 4950   1.193   5.483   7.004 -0.7685  1.2516  2.0217
   37POPC   H3S 4951   1.064   5.364   6.985  1.1926  0.1472  1.4325
   37POPC   C24 4952   0.978   5.549   7.027  0.6125  0.0035 -0.5808
   37POPC   H4R 4953   0.942   5.494   7.116  0.0296 -3.3326 -2.6978
   37POPC   H4S 4954   0.889   5.574   6.966 -1.2083  1.2621  2.3627
   37POPC   C25 4955   1.033   5.683   7.087  0.6652  0.0962  0.0988
   37POPC   H5R 4956   0.942   5.743   7.109  0.8687  0.4513 -0.0246
   37POPC   H5S 4957   1.091   5.737   7.009 -1.0905 -0.0970 -1.4273
   37POPC   C26 4958   1.118   5.657   7.209  0.0057 -0.2001  0.5818
   37POPC   H6R 4959   1.207   5.599   7.178  1.0254  1.3809  0.4465
   37POPC   H6S 4960   1.052   5.608   7.284 -1.6469  1.2054  0.1287
   37POPC   C27 4961   1.169   5.789   7.272 -0.2477 -0.8925  0.3010
   37POPC   H7R 4962   1.154   5.866   7.193  1.4657 -0.3479  0.4647
   37POPC   H7S 4963   1.275   5.774   7.301 -0.9706 -1.3427  2.9764
   37POPC   C28 4964   1.093   5.838   7.393 -0.3714 -0.2770 -0.7056
   37POPC   H8R 4965   1.070   5.740   7.441  0.2042  0.7157  1.7289
   37POPC   H8S 4966   0.993   5.878   7.368  0.0759  2.6556  1.5878
   37POPC   C29 4967   1.173   5.930   7.483 -0.1588 -0.5492 -0.3848
   37POPC   H91 4968   1.201   6.026   7.437  0.6156 -0.0601  1.0515
   37POPC  C210 4969   1.237   5.899   7.602 -0.9971  0.0184  0.1603
   37POPC  H101 4970   1.278   5.980   7.663 -0.0134 -0.9400  0.8015
   37POPC  C211 4971   1.219   5.765   7.676 -0.0526  0.2108  0.6162
   37POPC  H11R 4972   1.321   5.744   7.715 -0.2314 -0.2283  0.8433
   37POPC  H11S 4973   1.185   5.675   7.620 -1.1685 -1.2229  3.4480
   37POPC  C212 4974   1.120   5.764   7.790 -0.0297  0.0037  0.1884
   37POPC  H12R 4975   1.115   5.670   7.848 -4.5427  1.5308  2.8106
   37POPC  H12S 4976   1.018   5.779   7.746  0.1680  1.3775  0.1326
   37POPC  C213 4977   1.149   5.870   7.892  0.7244  0.3185 -0.5580
   37POPC  H13R 4978   1.154   5.968   7.840  0.5239  0.9033  0.5074
   37POPC  H13S 4979   1.244   5.830   7.934 -0.3555 -0.8577  0.8600
   37POPC  C214 4980   1.036   5.898   7.995  0.8245 -0.8481  0.6980
   37POPC  H14R 4981   0.946   5.887   7.932  0.6245 -3.0820  1.2833
   37POPC  H14S 4982   1.031   6.002   8.033 -0.3605 -1.5376  2.5650
   37POPC  C215 4983   1.040   5.787   8.101  0.2727 -0.0816 -0.4323
   37POPC  H15R 4984   1.037   5.682   8.065 -1.7739 -1.3010  2.8140
   37POPC  H15S 4985   0.946   5.789   8.160 -0.1329 -2.9744 -0.8618
   37POPC  C216 4986   1.159   5.792   8.200  0.6259 -0.2752 -0.7312
   37POPC  H16R 4987   1.152   5.894   8.243  0.3575 -0.8194  0.5672
   37POPC  H16S 4988   1.250   5.790   8.136 -0.9504 -0.4650 -3.0703
   37POPC  C217 4989   1.165   5.691   8.319 -0.4851 -0.2011  0.6335
   37POPC  H17R 4990   1.222   5.737   8.402 -2.6767  1.3374  1.3967
   37POPC  H17S 4991   1.207   5.592   8.290  1.5408  0.6189  0.6419
   37POPC  C218 4992   1.028   5.652   8.382 -0.5008 -0.0783 -0.5332
   37POPC  H18R 4993   1.035   5.580   8.466 -1.1431 -1.0200 -1.2603
   37POPC  H18S 4994   0.963   5.612   8.301 -0.0783  1.5162 -1.7191
   37POPC  H18T 4995   0.976   5.742   8.422 -1.2235 -0.4192 -0.6862
   37POPC   C33 4996   1.557   5.606   7.095 -0.1876  0.4080  0.0396
   37POPC   H3X 4997   1.447   5.621   7.098  0.0069  1.8538  0.6425
   37POPC   H3Y 4998   1.585   5.714   7.088  1.1243  0.0784 -0.0769
   37POPC   C34 4999   1.605   5.549   7.233 -0.0100 -0.0111  1.0016
   37POPC   H4X 5000   1.712   5.574   7.250 -0.1294  2.1124 -0.9257
   37POPC   H4Y 5001   1.586   5.439   7.227 -1.9760  0.2985  0.8386
   37POPC   C35 5002   1.535   5.598   7.358 -0.5078  0.3093  0.0168
   37POPC   H5X 5003   1.425   5.585   7.359 -0.4119 -0.5218  0.6403
   37POPC   H5Y 5004   1.544   5.709   7.359 -0.4326  0.3956 -2.5957
   37POPC   C36 5005   1.589   5.539   7.487  0.9874 -0.0001  0.0894
   37POPC   H6X 5006   1.700   5.549   7.479  1.2548 -1.6186  1.1213
   37POPC   H6Y 5007   1.570   5.430   7.472 -1.6467  0.1490  1.7283
   37POPC   C37 5008   1.527   5.601   7.617  0.5459 -0.6985  0.0207
   37POPC   H7X 5009   1.419   5.577   7.616  0.5964 -1.0783  1.4554
   37POPC   H7Y 5010   1.547   5.710   7.609  0.8655 -0.7631 -0.0885
   37POPC   C38 5011   1.592   5.547   7.739  0.1164  1.1110 -0.3378
   37POPC   H8X 5012   1.703   5.546   7.734  0.1409 -1.2834 -0.6816
   37POPC   H8Y 5013   1.558   5.442   7.752 -2.4536  1.8078 -1.0060
   37POPC   C39 5014   1.541   5.615   7.868  0.2081  0.1973 -0.4440
   37POPC   H9X 5015   1.431   5.602   7.877  0.4653 -1.2376  1.0508
   37POPC   H9Y 5016   1.572   5.722   7.873 -0.9163  0.5213 -0.0252
   37POPC  C310 5017   1.626   5.548   7.984 -0.4452 -1.0199  0.6873
   37POPC  H10X 5018   1.735   5.564   7.974 -0.6115 -0.2478 -0.0384
   37POPC  H10Y 5019   1.601   5.441   7.971 -1.5832 -0.9163  1.7775
   37POPC  C311 5020   1.578   5.599   8.122  0.5440 -0.0187 -0.2793
   37POPC  H11X 5021   1.468   5.592   8.131  0.7389 -2.8073  1.1587
   37POPC  H11Y 5022   1.609   5.705   8.126 -0.1842  0.1624  1.0507
   37POPC  C312 5023   1.621   5.527   8.251 -0.3026  0.2698  0.0016
   37POPC  H12X 5024   1.731   5.516   8.261 -0.2622  0.0208 -0.6997
   37POPC  H12Y 5025   1.580   5.424   8.243  0.3860 -0.3196  2.8008
   37POPC  C313 5026   1.568   5.587   8.383 -0.7459 -0.2328  0.0574
   37POPC  H13X 5027   1.490   5.524   8.429  1.2036 -1.6027  1.6770
   37POPC  H13Y 5028   1.523   5.687   8.366 -1.0343 -0.3312  0.2487
   37POPC  C314 5029   1.684   5.612   8.484 -0.3438  0.3075  0.6105
   37POPC  H14X 5030   1.760   5.675   8.434  0.1506 -1.1622 -0.5778
   37POPC  H14Y 5031   1.728   5.511   8.500  3.4684  1.6518 -0.2044
   37POPC  C315 5032   1.644   5.666   8.619  0.1888  0.3989 -0.3850
   37POPC  H15X 5033   1.701   5.613   8.698  0.7904  0.7482 -0.5792
   37POPC  H15Y 5034   1.538   5.636   8.633 -0.0911  0.4201 -2.2016
   37POPC  C316 5035   1.662   5.817   8.629 -0.0747 -0.1530 -0.1710
   37POPC  H16X 5036   1.665   5.856   8.733  3.4135 -0.6651  0.0652
   37POPC  H16Y 5037   1.575   5.862   8.578 -0.5586  0.3315  1.0295
   37POPC  H16Z 5038   1.761   5.843   8.586 -0.1364  0.2513 -0.0667
   38POPC     N 5039   3.864   1.968   6.020  0.6869 -0.6819  0.2861
   38POPC   C12 5040   3.886   2.081   6.117 -0.8494 -0.2012  0.0270
   38POPC  H12A 5041   3.857   2.167   6.059 -1.2473 -0.3107  0.0562
   38POPC  H12B 5042   3.990   2.090   6.144 -1.0541  0.3222  0.6756
   38POPC   C13 5043   3.863   1.837   6.083 -0.2223 -0.3772 -0.4393
   38POPC  H13A 5044   3.947   1.830   6.150 -0.8400 -0.0984  0.3850
   38POPC  H13B 5045   3.785   1.824   6.157 -0.0829  0.9364 -0.0410
   38POPC  H13C 5046   3.869   1.755   6.012  0.7779  0.1584 -0.9861
   38POPC   C14 5047   3.740   2.000   5.935 -0.8295 -0.1006  0.7157
   38POPC  H14A 5048   3.720   1.922   5.863  0.1459  1.3268 -1.1667
   38POPC  H14B 5049   3.651   2.010   5.995  0.1368  1.0902  2.0129
   38POPC  H14C 5050   3.749   2.087   5.872 -4.8838 -0.5686 -0.8033
   38POPC   C15 5051   3.969   1.956   5.910 -0.7595  0.3695  0.2893
   38POPC  H15A 5052   4.067   1.946   5.954 -1.3611 -4.8060  1.1028
   38POPC  H15B 5053   3.969   2.046   5.850  0.9080 -1.7080 -3.1086
   38POPC  H15C 5054   3.949   1.869   5.850  2.2178 -1.5345  1.8445
   38POPC   C11 5055   3.811   2.073   6.252  0.1748  0.5621  0.1776
   38POPC  H11A 5056   3.847   2.149   6.325  0.5189 -0.5314  1.1837
   38POPC  H11B 5057   3.816   1.969   6.293  2.0086 -0.1345 -1.6172
   38POPC     P 5058   3.593   2.214   6.190 -0.0368  0.2666 -0.1182
   38POPC   O13 5059   3.516   2.185   6.068  0.3255 -0.3386  0.4553
   38POPC   O14 5060   3.686   2.325   6.179 -0.0725  0.5705 -0.0414
   38POPC   O12 5061   3.665   2.079   6.242  0.1045  0.1359  0.1592
   38POPC   O11 5062   3.488   2.228   6.313 -0.3332 -0.5916  0.3557
   38POPC    C1 5063   3.447   2.352   6.360 -0.4749  0.1841  0.3592
   38POPC    HA 5064   3.354   2.335   6.418  0.3543 -0.4533  1.5314
   38POPC    HB 5065   3.422   2.434   6.289 -1.4001  0.1646  0.6469
   38POPC    C2 5066   3.543   2.397   6.475 -0.1958 -0.7478 -0.2709
   38POPC    HS 5067   3.629   2.457   6.440  1.1683 -0.3468  3.3355
   38POPC   O21 5068   3.586   2.284   6.547  0.5043 -0.5335  0.2186
   38POPC   C21 5069   3.711   2.261   6.557 -0.5355  0.2389 -0.1902
   38POPC   O22 5070   3.804   2.336   6.521  0.0417  0.5161 -0.0401
   38POPC   C22 5071   3.729   2.123   6.630 -0.0294  0.2373 -0.5495
   38POPC   H2R 5072   3.835   2.118   6.663  0.6779  0.7871 -2.5690
   38POPC   H2S 5073   3.721   2.049   6.547 -0.3802 -1.1605  0.6797
   38POPC    C3 5074   3.472   2.494   6.571  0.4751  0.1602 -0.0782
   38POPC    HX 5075   3.447   2.587   6.515  3.4560 -0.1104 -2.0732
   38POPC    HY 5076   3.547   2.514   6.651  1.1291 -0.2809 -0.5762
   38POPC   O31 5077   3.352   2.433   6.626  0.2914  0.6776 -0.2565
   38POPC   C31 5078   3.275   2.524   6.686 -0.3460  0.5555 -0.1414
   38POPC   O32 5079   3.291   2.645   6.681  0.7762  0.8580  0.0374
   38POPC   C32 5080   3.172   2.446   6.770 -0.0471  0.1641 -0.6806
   38POPC   H2X 5081   3.113   2.380   6.703 -0.0927  0.2879 -0.7634
   38POPC   H2Y 5082   3.102   2.517   6.820  2.2454  0.7886  1.8550
   38POPC   C23 5083   3.634   2.101   6.755  0.2042  0.3806  0.6724
   38POPC   H3R 5084   3.659   1.997   6.787 -2.2741  0.0525  1.8200
   38POPC   H3S 5085   3.534   2.108   6.708  1.4909  0.3933 -2.3084
   38POPC   C24 5086   3.662   2.198   6.873 -0.0024  0.5264 -0.9859
   38POPC   H4R 5087   3.641   2.303   6.846 -0.4749  1.1790  1.6776
   38POPC   H4S 5088   3.766   2.176   6.905 -0.8687  0.7273  2.2703
   38POPC   C25 5089   3.589   2.173   7.010 -0.4267 -0.0309 -0.4226
   38POPC   H5R 5090   3.602   2.065   7.033  0.7351  0.1800 -0.0115
   38POPC   H5S 5091   3.481   2.189   6.991 -0.4133  0.1126 -0.3825
   38POPC   C26 5092   3.652   2.248   7.126  0.4079  0.1933  0.0691
   38POPC   H6R 5093   3.628   2.356   7.122 -3.2460 -0.2964  2.9258
   38POPC   H6S 5094   3.761   2.228   7.126  0.6577  0.4735 -4.4759
   38POPC   C27 5095   3.603   2.183   7.255 -0.4167 -0.0481  0.4846
   38POPC   H7R 5096   3.645   2.082   7.273 -1.3867 -0.8426 -1.4621
   38POPC   H7S 5097   3.492   2.180   7.242 -0.6355 -2.2225  2.2166
   38POPC   C28 5098   3.619   2.274   7.386  1.0553 -0.2517  0.2955
   38POPC   H8R 5099   3.556   2.360   7.356 -0.2728 -0.8355  1.3318
   38POPC   H8S 5100   3.722   2.314   7.403  0.3424  1.2744  1.2351
   38POPC   C29 5101   3.587   2.211   7.528  0.1151  0.4536  0.2611
   38POPC   H91 5102   3.576   2.102   7.528  1.2504  0.3284  0.9972
   38POPC  C210 5103   3.564   2.278   7.641  0.3345  0.4872  0.2784
   38POPC  H101 5104   3.534   2.224   7.732  0.7943  2.8102  1.8869
   38POPC  C211 5105   3.563   2.431   7.655  0.3938  0.9001 -0.0319
   38POPC  H11R 5106   3.461   2.455   7.692  0.7460  0.8512  1.0134
   38POPC  H11S 5107   3.573   2.493   7.563  2.0536  0.8470  0.0786
   38POPC  C212 5108   3.673   2.467   7.754  0.0741 -0.0171  0.6411
   38POPC  H12R 5109   3.676   2.576   7.772 -0.6668  0.2872 -0.9013
   38POPC  H12S 5110   3.768   2.434   7.706 -1.0727 -3.0997  0.2460
   38POPC  C213 5111   3.654   2.402   7.889  0.0582  0.2191  0.0404
   38POPC  H13R 5112   3.701   2.302   7.895  0.0122  0.3124  3.0019
   38POPC  H13S 5113   3.548   2.385   7.918  0.2657  0.1407  0.7564
   38POPC  C214 5114   3.729   2.471   8.000  0.2717 -0.7330 -0.1830
   38POPC  H14R 5115   3.693   2.576   8.001  2.7708  0.2001  0.3334
   38POPC  H14S 5116   3.836   2.474   7.970  0.1228 -0.5007 -0.7086
   38POPC  C215 5117   3.710   2.409   8.138  0.3435  0.2237  0.4629
   38POPC  H15R 5118   3.604   2.383   8.160  0.5317 -0.7206  0.2643
   38POPC  H15S 5119   3.750   2.473   8.219 -0.9418 -0.4915  1.7125
   38POPC  C216 5120   3.797   2.283   8.165  0.3914 -0.0631 -0.2069
   38POPC  H16R 5121   3.902   2.306   8.138  0.7605  0.2900  1.4296
   38POPC  H16S 5122   3.759   2.212   8.088  0.1232 -0.7094  0.5017
   38POPC  C217 5123   3.771   2.235   8.306 -0.4951 -0.2071  0.5025
   38POPC  H17R 5124   3.667   2.202   8.328 -0.3654 -0.7258  0.3582
   38POPC  H17S 5125   3.777   2.325   8.371  0.8134 -1.2938  1.9515
   38POPC  C218 5126   3.868   2.130   8.364 -0.4077  0.2416  0.2961
   38POPC  H18R 5127   3.837   2.026   8.339  1.0358 -0.3502  0.8818
   38POPC  H18S 5128   3.864   2.151   8.473  0.0433 -1.0136  0.5706
   38POPC  H18T 5129   3.972   2.154   8.334 -0.8474  3.0063  0.6789
   38POPC   C33 5130   3.240   2.379   6.886 -0.0088  0.1058  0.1935
   38POPC   H3X 5131   3.341   2.337   6.865  0.3650  0.9241  0.3197
   38POPC   H3Y 5132   3.171   2.298   6.917 -0.3738 -0.1310 -1.1424
   38POPC   C34 5133   3.267   2.470   7.008  0.4623 -0.6811 -0.4908
   38POPC   H4X 5134   3.292   2.392   7.084 -0.3813 -1.5776 -1.1139
   38POPC   H4Y 5135   3.173   2.523   7.036 -0.0197 -1.3203 -0.8788
   38POPC   C35 5136   3.392   2.562   6.996  0.2319 -0.4485  0.0424
   38POPC   H5X 5137   3.370   2.641   6.922 -0.5802 -2.8817 -2.4964
   38POPC   H5Y 5138   3.470   2.488   6.967 -0.3095 -1.4717  1.0995
   38POPC   C36 5139   3.442   2.615   7.137 -0.3933 -0.3265 -0.0527
   38POPC   H6X 5140   3.481   2.531   7.197 -1.5650 -0.1505  1.0019
   38POPC   H6Y 5141   3.354   2.651   7.194  0.9698  0.1834  1.8153
   38POPC   C37 5142   3.547   2.732   7.123  0.4170 -0.1502  0.1810
   38POPC   H7X 5143   3.500   2.830   7.099 -0.8998 -0.5781  0.8454
   38POPC   H7Y 5144   3.609   2.713   7.033 -0.8625 -0.0647 -0.7437
   38POPC   C38 5145   3.656   2.745   7.236  0.5164 -0.3040 -0.0982
   38POPC   H8X 5146   3.733   2.823   7.215  0.5016 -0.5215 -0.9899
   38POPC   H8Y 5147   3.714   2.651   7.239 -0.2508 -0.7998 -0.5720
   38POPC   C39 5148   3.594   2.764   7.381  1.0980 -0.3418  0.8510
   38POPC   H9X 5149   3.526   2.679   7.402 -0.3827 -0.2478 -2.7755
   38POPC   H9Y 5150   3.529   2.853   7.362 -0.6918 -2.1080 -2.2734
   38POPC  C310 5151   3.702   2.770   7.491 -0.0712  1.1715  0.2510
   38POPC  H10X 5152   3.782   2.843   7.467  1.0411  0.6389  2.1816
   38POPC  H10Y 5153   3.753   2.673   7.502 -1.0415  0.8312  2.0967
   38POPC  C311 5154   3.645   2.828   7.618  0.6331 -0.2708 -0.1898
   38POPC  H11X 5155   3.563   2.765   7.658  1.0414 -0.1447  0.8816
   38POPC  H11Y 5156   3.600   2.925   7.590 -0.7943 -0.9268 -0.2282
   38POPC  C312 5157   3.746   2.833   7.735 -0.1255 -0.2006 -0.7049
   38POPC  H12X 5158   3.815   2.920   7.725 -2.6770  2.1247  0.5458
   38POPC  H12Y 5159   3.807   2.741   7.745  0.3446  0.2877  1.4027
   38POPC  C313 5160   3.663   2.843   7.864 -0.1440  0.0231  0.7384
   38POPC  H13X 5161   3.593   2.757   7.866  1.4178 -1.3164 -0.2980
   38POPC  H13Y 5162   3.607   2.939   7.873  1.3743  1.0652 -0.3816
   38POPC  C314 5163   3.750   2.854   7.988  0.0842  0.0812  0.1733
   38POPC  H14X 5164   3.795   2.955   7.987 -1.6948  0.9189 -1.6503
   38POPC  H14Y 5165   3.838   2.786   7.980  0.7001  1.0328 -1.3743
   38POPC  C315 5166   3.670   2.837   8.114 -0.3497  0.2943  0.2391
   38POPC  H15X 5167   3.591   2.760   8.106 -1.1866  0.8354  2.5206
   38POPC  H15Y 5168   3.614   2.932   8.125  0.3855  0.5795  1.6689
   38POPC  C316 5169   3.751   2.820   8.243 -1.1183 -0.0320 -1.0599
   38POPC  H16X 5170   3.817   2.909   8.249  0.5512 -1.3147  0.6634
   38POPC  H16Y 5171   3.825   2.737   8.237 -0.2059  0.8203 -2.0936
   38POPC  H16Z 5172   3.690   2.807   8.335 -1.1294 -0.9785 -1.1909
   39POPC     N 5173   4.853   0.746   5.923  0.0896 -0.1073  0.2097
   39POPC   C12 5174   4.817   0.848   6.037  0.1241  0.2568 -0.7757
   39POPC  H12A 5175   4.712   0.873   6.031 -0.3746 -0.5093  2.7662
   39POPC  H12B 5176   4.872   0.941   6.034 -0.8394  0.8582 -0.1345
   39POPC   C13 5177   4.840   0.813   5.792 -0.5065 -0.3792 -0.0155
   39POPC  H13A 5178   4.920   0.883   5.775 -0.9313 -0.4038 -2.4154
   39POPC  H13B 5179   4.845   0.749   5.705  0.6570  2.4549 -2.1734
   39POPC  H13C 5180   4.749   0.870   5.782  0.8615  1.7821 -0.7914
   39POPC   C14 5181   4.988   0.691   5.954 -0.5587 -0.7087  0.0653
   39POPC  H14A 5182   4.997   0.641   6.049 -0.1193 -2.1663 -0.7171
   39POPC  H14B 5183   5.008   0.617   5.878 -1.7096 -0.2956 -0.6676
   39POPC  H14C 5184   5.064   0.766   5.941 -1.8098  0.2751 -2.1273
   39POPC   C15 5185   4.758   0.635   5.939 -0.3495 -0.3168 -0.0926
   39POPC  H15A 5186   4.753   0.586   6.035  1.6252 -3.8515 -1.5945
   39POPC  H15B 5187   4.769   0.552   5.870  0.0489  1.1163 -1.8003
   39POPC  H15C 5188   4.659   0.679   5.934  0.3251  1.1109 -1.5584
   39POPC   C11 5189   4.840   0.798   6.184 -0.9254  0.3385  0.2164
   39POPC  H11A 5190   4.820   0.883   6.253 -2.2157  0.7503 -0.6204
   39POPC  H11B 5191   4.945   0.764   6.195 -1.3328 -0.4756  1.7815
   39POPC     P 5192   4.602   0.712   6.273  0.4664  0.4225 -0.0703
   39POPC   O13 5193   4.521   0.592   6.258 -0.9320  0.0881  0.6878
   39POPC   O14 5194   4.543   0.835   6.219  0.4219  0.3686  0.1527
   39POPC   O12 5195   4.744   0.685   6.205 -0.1529  0.7393 -0.1685
   39POPC   O11 5196   4.630   0.730   6.429  0.1136  0.0965  0.1930
   39POPC    C1 5197   4.712   0.631   6.498  0.3000  0.2153  0.2169
   39POPC    HA 5198   4.815   0.622   6.456  0.3006  0.1110  0.2428
   39POPC    HB 5199   4.666   0.530   6.499  1.4487 -0.3469 -0.8928
   39POPC    C2 5200   4.744   0.684   6.639  0.4765  0.6434 -0.8827
   39POPC    HS 5201   4.821   0.613   6.675 -2.0301 -2.1905 -0.7228
   39POPC   O21 5202   4.637   0.683   6.741 -0.2171 -0.6651  0.2088
   39POPC   C21 5203   4.586   0.562   6.765 -0.6633  0.3192 -0.5351
   39POPC   O22 5204   4.639   0.452   6.730  0.6828 -0.7142 -0.4202
   39POPC   C22 5205   4.458   0.577   6.857 -0.1938 -0.1187  0.4675
   39POPC   H2R 5206   4.381   0.648   6.818  0.5451  0.3852 -0.1016
   39POPC   H2S 5207   4.491   0.618   6.955  0.3908 -1.9529  1.0736
   39POPC    C3 5208   4.799   0.825   6.621 -0.4032  0.2305  0.5692
   39POPC    HX 5209   4.712   0.889   6.595 -0.8208  0.3697  2.1909
   39POPC    HY 5210   4.871   0.829   6.536  2.8112  1.9518  3.1373
   39POPC   O31 5211   4.870   0.880   6.737 -0.0769 -0.3138  0.2193
   39POPC   C31 5212   5.000   0.858   6.736  0.0179  0.4568 -0.3226
   39POPC   O32 5213   5.064   0.790   6.655 -0.3304 -0.2677  0.1875
   39POPC   C32 5214   5.071   0.912   6.859  0.5009 -0.6157 -0.2736
   39POPC   H2X 5215   5.073   1.023   6.861  0.4904 -0.6145 -0.3171
   39POPC   H2Y 5216   5.022   0.881   6.954 -1.0795 -2.6882 -1.6614
   39POPC   C23 5217   4.397   0.434   6.879 -0.6119 -0.0958 -0.1127
   39POPC   H3R 5218   4.468   0.361   6.922 -3.0311 -2.4854  0.0967
   39POPC   H3S 5219   4.371   0.397   6.778  0.3757  1.5808 -1.0331
   39POPC   C24 5220   4.280   0.440   6.969  0.4037 -0.1004 -0.0883
   39POPC   H4R 5221   4.219   0.348   6.963 -0.6411  0.3605  2.2318
   39POPC   H4S 5222   4.222   0.528   6.933  0.4926 -0.5309 -1.2982
   39POPC   C25 5223   4.307   0.477   7.120 -0.1897 -0.3419  0.3395
   39POPC   H5R 5224   4.209   0.489   7.172 -1.8411 -1.1684 -2.4182
   39POPC   H5S 5225   4.365   0.572   7.129 -3.3116  1.7595 -0.0321
   39POPC   C26 5226   4.375   0.371   7.214  0.0677 -0.0536  0.8186
   39POPC   H6R 5227   4.469   0.340   7.165  0.3902 -1.6339  2.3542
   39POPC   H6S 5228   4.311   0.280   7.214  0.9793 -0.7125 -0.2221
   39POPC   C27 5229   4.418   0.417   7.363 -0.0482  0.7691  0.0326
   39POPC   H7R 5230   4.478   0.510   7.371 -0.7137  1.1032  1.5592
   39POPC   H7S 5231   4.477   0.334   7.410 -1.6888 -0.5051 -0.0729
   39POPC   C28 5232   4.301   0.444   7.466  0.1689  0.1384 -0.1623
   39POPC   H8R 5233   4.237   0.353   7.463 -0.2088  0.4260 -1.1676
   39POPC   H8S 5234   4.238   0.527   7.428  0.3339  0.1703 -0.3649
   39POPC   C29 5235   4.346   0.472   7.613 -0.1919  0.1677 -0.0862
   39POPC   H91 5236   4.436   0.532   7.633  1.2070 -1.7972 -0.1407
   39POPC  C210 5237   4.287   0.405   7.720  0.4381 -0.0069 -0.3061
   39POPC  H101 5238   4.330   0.418   7.820  1.1456 -1.0672 -0.4468
   39POPC  C211 5239   4.169   0.309   7.725 -0.0879 -0.1092 -0.0089
   39POPC  H11R 5240   4.209   0.205   7.719 -1.6721 -0.7883  0.3878
   39POPC  H11S 5241   4.094   0.317   7.643 -0.0610  0.9559  0.0603
   39POPC  C212 5242   4.094   0.320   7.858 -0.6995  0.3644 -0.3350
   39POPC  H12R 5243   3.990   0.285   7.842  0.0145 -1.6497 -0.7759
   39POPC  H12S 5244   4.082   0.427   7.888 -0.8657 -0.0317  1.0697
   39POPC  C213 5245   4.162   0.237   7.977  0.5995  0.2379  1.8368
   39POPC  H13R 5246   4.272   0.247   7.977  0.8852 -0.2888 -3.0274
   39POPC  H13S 5247   4.148   0.128   7.961  2.4623  0.3246 -1.1186
   39POPC  C214 5248   4.097   0.272   8.107 -0.0045  0.2449 -0.1670
   39POPC  H14R 5249   3.992   0.290   8.076  0.4073  0.3409 -1.5668
   39POPC  H14S 5250   4.126   0.376   8.135 -1.1388  0.3558  0.6849
   39POPC  C215 5251   4.119   0.182   8.227  0.3534 -0.4624 -1.1826
   39POPC  H15R 5252   4.147   0.080   8.191  0.0970 -1.5226  1.3729
   39POPC  H15S 5253   4.030   0.181   8.294  1.4003  0.4097  0.2869
   39POPC  C216 5254   4.230   0.235   8.314  0.8707 -0.8573  0.4864
   39POPC  H16R 5255   4.186   0.322   8.367  1.1545  0.2817 -1.0772
   39POPC  H16S 5256   4.316   0.263   8.251  1.0294 -1.8303  0.2623
   39POPC  C217 5257   4.273   0.137   8.417 -0.0028  0.2879  0.4372
   39POPC  H17R 5258   4.247   0.039   8.371 -2.2022  2.2594 -2.9692
   39POPC  H17S 5259   4.211   0.154   8.509 -3.5387 -1.5078 -1.4078
   39POPC  C218 5260   4.422   0.155   8.457 -0.8928 -0.2277 -0.3301
   39POPC  H18R 5261   4.490   0.134   8.372 -2.6564 -0.1092 -1.8318
   39POPC  H18S 5262   4.455   0.083   8.535 -3.2207 -1.1364 -0.0826
   39POPC  H18T 5263   4.438   0.256   8.499 -2.1510 -0.3284  0.4569
   39POPC   C33 5264   5.216   0.876   6.871 -0.0163 -0.0913 -0.0009
   39POPC   H3X 5265   5.270   0.938   6.796  0.4014  2.2867  2.1332
   39POPC   H3Y 5266   5.230   0.766   6.862  0.0774  0.0577 -2.3733
   39POPC   C34 5267   5.273   0.919   7.006  0.0293  0.4038 -0.1441
   39POPC   H4X 5268   5.235   1.021   7.024  1.2590  0.6645  1.1509
   39POPC   H4Y 5269   5.383   0.928   6.998  0.1134 -0.3953  0.0123
   39POPC   C35 5270   5.238   0.816   7.115  0.0765 -0.5132 -0.7585
   39POPC   H5X 5271   5.268   0.709   7.102 -1.0237 -0.8964 -0.2004
   39POPC   H5Y 5272   5.128   0.813   7.128  0.3024  0.4718  2.0004
   39POPC   C36 5273   5.317   0.849   7.244  0.6086  0.6371 -0.5261
   39POPC   H6X 5274   5.317   0.958   7.269 -0.9075  0.8298 -1.2389
   39POPC   H6Y 5275   5.419   0.820   7.211 -0.1045 -1.0626 -1.3315
   39POPC   C37 5276   5.259   0.783   7.360  0.1900  0.0691  0.6254
   39POPC   H7X 5277   5.237   0.675   7.344 -1.6360  0.2117  1.7726
   39POPC   H7Y 5278   5.161   0.834   7.373  0.2231  1.0382 -2.3348
   39POPC   C38 5279   5.335   0.804   7.485  0.1784 -0.1260  0.7012
   39POPC   H8X 5280   5.336   0.913   7.505  0.0875  0.0301 -0.0976
   39POPC   H8Y 5281   5.435   0.757   7.488  1.0460  1.6156  0.0386
   39POPC   C39 5282   5.266   0.733   7.606 -0.1211 -0.5221  0.2175
   39POPC   H9X 5283   5.285   0.624   7.592  2.8957 -0.3934  2.4635
   39POPC   H9Y 5284   5.157   0.754   7.599 -0.2180 -1.4144 -1.7166
   39POPC  C310 5285   5.325   0.771   7.742 -0.1588 -0.3068  0.3264
   39POPC  H10X 5286   5.336   0.882   7.739 -0.8624 -0.2489 -1.5640
   39POPC  H10Y 5287   5.425   0.730   7.767 -0.6661 -0.9629  1.3798
   39POPC  C311 5288   5.230   0.729   7.852 -0.5638 -0.0513 -0.1204
   39POPC  H11X 5289   5.230   0.618   7.859 -0.6084 -0.0143  0.5223
   39POPC  H11Y 5290   5.124   0.752   7.828 -1.1871 -3.1716 -0.9186
   39POPC  C312 5291   5.268   0.789   7.983  0.5572 -0.0827 -0.1092
   39POPC  H12X 5292   5.242   0.897   7.973 -1.7720 -0.6922 -1.3939
   39POPC  H12Y 5293   5.376   0.767   8.001  1.8835  3.9215 -1.9520
   39POPC  C313 5294   5.181   0.746   8.111 -0.2095 -0.3460 -0.5549
   39POPC  H13X 5295   5.230   0.786   8.203  0.3198 -1.2816 -0.4266
   39POPC  H13Y 5296   5.185   0.637   8.129 -1.4128 -0.2434  0.4879
   39POPC  C314 5297   5.033   0.802   8.111 -1.1251  0.8196 -0.2213
   39POPC  H14X 5298   4.987   0.731   8.039  0.5701 -1.5842  0.9221
   39POPC  H14Y 5299   5.038   0.908   8.076  0.2483  0.7956 -0.1662
   39POPC  C315 5300   4.962   0.803   8.247 -0.2235 -0.0812  0.2741
   39POPC  H15X 5301   5.000   0.889   8.306 -2.4540  0.2892  1.2723
   39POPC  H15Y 5302   4.983   0.717   8.314  1.0431 -0.2307 -0.2940
   39POPC  C316 5303   4.810   0.807   8.227  1.4331  0.1160 -0.1474
   39POPC  H16X 5304   4.775   0.708   8.191  1.7120  0.3465 -1.0914
   39POPC  H16Y 5305   4.770   0.880   8.154  0.5726 -1.4149 -1.2881
   39POPC  H16Z 5306   4.769   0.834   8.326  1.1385  1.1999 -0.5552
   40POPC     N 5307   5.910   3.344   6.154  0.3870  0.3065  0.1849
   40POPC   C12 5308   5.986   3.362   6.283 -0.7978 -0.6231 -0.5617
   40POPC  H12A 5309   5.990   3.468   6.301 -0.0624 -0.2754 -2.5648
   40POPC  H12B 5310   6.087   3.327   6.272 -0.0264  0.7915  1.4638
   40POPC   C13 5311   5.779   3.399   6.162  0.1253  0.2825  0.1479
   40POPC  H13A 5312   5.776   3.505   6.186 -0.4922 -0.3637  3.4198
   40POPC  H13B 5313   5.728   3.394   6.067 -0.5657  0.8171  0.4756
   40POPC  H13C 5314   5.716   3.350   6.234 -1.4434  2.1488  0.1470
   40POPC   C14 5315   5.987   3.420   6.051  0.5443 -0.0414  0.0720
   40POPC  H14A 5316   6.080   3.369   6.033  0.3526 -1.0435  1.6826
   40POPC  H14B 5317   5.930   3.463   5.970 -1.8190 -2.1138  0.4913
   40POPC  H14C 5318   6.028   3.505   6.103 -0.9533  0.1575  1.0065
   40POPC   C15 5319   5.903   3.196   6.109 -0.2010 -0.8156 -0.2395
   40POPC  H15A 5320   6.004   3.157   6.103  0.1102 -0.9562  3.6287
   40POPC  H15B 5321   5.839   3.181   6.023 -3.4541  1.8207  1.5252
   40POPC  H15C 5322   5.878   3.134   6.194  1.0425 -1.3050 -0.1982
   40POPC   C11 5323   5.938   3.294   6.407  0.3145  0.1000 -0.0103
   40POPC  H11A 5324   5.828   3.308   6.411  0.6515  3.1128  0.5948
   40POPC  H11B 5325   5.971   3.351   6.496 -0.8642  0.6714  0.0679
   40POPC     P 5326   6.124   3.143   6.475  0.1408  0.1527 -0.4395
   40POPC   O13 5327   6.206   3.266   6.457  0.0414  0.6929  0.1931
   40POPC   O14 5328   6.174   3.020   6.409  0.8043  0.3253  0.2482
   40POPC   O12 5329   5.977   3.161   6.427 -0.4795  0.2084 -0.4050
   40POPC   O11 5330   6.096   3.123   6.631  0.8252  0.0993  0.1560
   40POPC    C1 5331   5.983   3.055   6.679 -0.1348 -0.1884 -0.1975
   40POPC    HA 5332   6.024   2.966   6.731  0.2043 -0.0972 -0.3070
   40POPC    HB 5333   5.919   3.022   6.595  0.3561  0.4690 -0.8399
   40POPC    C2 5334   5.907   3.153   6.774  0.8818 -0.2681 -0.5935
   40POPC    HS 5335   5.896   3.245   6.714  0.1853 -2.1633 -3.5831
   40POPC   O21 5336   5.963   3.157   6.906 -0.4520  0.2042  0.1805
   40POPC   C21 5337   6.070   3.226   6.912 -0.2932  0.4028  0.1916
   40POPC   O22 5338   6.105   3.311   6.831 -0.0720  0.6962  0.1031
   40POPC   C22 5339   6.143   3.196   7.046  0.4324 -0.1365  0.3705
   40POPC   H2R 5340   6.182   3.297   7.074  1.8462 -0.0223 -1.7295
   40POPC   H2S 5341   6.219   3.120   7.017  3.6415  1.6773  3.1990
   40POPC    C3 5342   5.758   3.104   6.781 -0.5750  0.9533 -0.2676
   40POPC    HX 5343   5.759   2.993   6.781  0.6540  0.9482  0.2958
   40POPC    HY 5344   5.714   3.135   6.684 -0.4361  0.8172 -0.3732
   40POPC   O31 5345   5.684   3.152   6.895 -0.1851 -0.2149  0.0172
   40POPC   C31 5346   5.642   3.278   6.890 -0.7206  0.1493  0.2808
   40POPC   O32 5347   5.652   3.345   6.787  0.0190 -0.1078 -0.3485
   40POPC   C32 5348   5.587   3.313   7.027  0.1169  0.1809 -0.2627
   40POPC   H2X 5349   5.480   3.288   7.043 -0.6100  1.3775 -2.6832
   40POPC   H2Y 5350   5.605   3.421   7.041  0.6000 -0.0586  1.1306
   40POPC   C23 5351   6.060   3.140   7.165 -0.7350 -0.3407 -0.2320
   40POPC   H3R 5352   6.010   3.042   7.151 -2.0250 -0.1213  2.2604
   40POPC   H3S 5353   5.987   3.215   7.204 -0.3879 -0.7093  1.2043
   40POPC   C24 5354   6.153   3.089   7.277  0.2062 -0.4641 -0.6715
   40POPC   H4R 5355   6.234   3.163   7.290 -1.1139  0.9772 -0.4049
   40POPC   H4S 5356   6.204   2.999   7.235 -0.4795 -0.2387 -2.0680
   40POPC   C25 5357   6.089   3.071   7.409  0.6599 -0.3813 -0.0720
   40POPC   H5R 5358   6.017   3.151   7.437  0.1216  0.1699 -2.8013
   40POPC   H5S 5359   6.169   3.072   7.486  1.1612 -2.3594 -0.4994
   40POPC   C26 5360   6.011   2.938   7.426 -0.1038 -0.0882 -0.8824
   40POPC   H6R 5361   6.077   2.852   7.402 -0.2194 -0.7499  1.0663
   40POPC   H6S 5362   5.924   2.944   7.357 -0.1745  1.5511 -0.6983
   40POPC   C27 5363   5.978   2.930   7.581 -0.3404  0.6532 -0.1476
   40POPC   H7R 5364   5.904   3.006   7.615  1.0405  0.7359  3.0977
   40POPC   H7S 5365   6.067   2.971   7.635 -0.8196  1.5152  0.0116
   40POPC   C28 5366   5.936   2.793   7.640 -0.1636  0.5187  0.0961
   40POPC   H8R 5367   5.930   2.810   7.750 -1.9611  1.4280 -0.1061
   40POPC   H8S 5368   6.018   2.722   7.617 -0.2724  0.9072 -1.6327
   40POPC   C29 5369   5.801   2.750   7.582 -0.1169  0.0440 -0.3178
   40POPC   H91 5370   5.776   2.774   7.478  0.4269  1.8195 -0.0625
   40POPC  C210 5371   5.725   2.672   7.661  0.7063 -0.1394 -0.0012
   40POPC  H101 5372   5.633   2.633   7.616  0.0574  2.7154 -1.3869
   40POPC  C211 5373   5.744   2.620   7.800  0.3133 -0.1251 -0.2705
   40POPC  H11R 5374   5.704   2.700   7.866 -0.4593 -0.5622 -0.1949
   40POPC  H11S 5375   5.848   2.591   7.823 -0.1862 -0.9381  1.1010
   40POPC  C212 5376   5.664   2.485   7.833  0.2086  0.3461 -0.2023
   40POPC  H12R 5377   5.731   2.407   7.790  0.8199  0.1728  1.0348
   40POPC  H12S 5378   5.569   2.480   7.775  0.0932  0.1947 -0.0022
   40POPC  C213 5379   5.646   2.467   7.993  0.4397 -0.8286  1.0010
   40POPC  H13R 5380   5.587   2.377   8.022  0.2308 -0.8673  0.4628
   40POPC  H13S 5381   5.589   2.549   8.040 -0.4936  0.6499 -2.4243
   40POPC  C214 5382   5.769   2.456   8.079  0.4822 -0.4091  0.4654
   40POPC  H14R 5383   5.819   2.551   8.052  0.7385 -0.5863  0.3095
   40POPC  H14S 5384   5.831   2.371   8.043 -0.5655 -1.8392  1.8940
   40POPC  C215 5385   5.745   2.452   8.231  0.3482  0.3463  0.3773
   40POPC  H15R 5386   5.687   2.362   8.260  1.4768 -0.5955 -0.2346
   40POPC  H15S 5387   5.685   2.543   8.255 -0.6394 -0.2489  0.2196
   40POPC  C216 5388   5.868   2.442   8.318 -0.8185 -0.1738 -0.2522
   40POPC  H16R 5389   5.944   2.523   8.310  0.1111 -1.1152 -1.2888
   40POPC  H16S 5390   5.922   2.348   8.294  1.4274  0.7303  0.9810
   40POPC  C217 5391   5.835   2.437   8.467  0.5642  0.2015  0.0061
   40POPC  H17R 5392   5.917   2.387   8.524  0.2520 -0.8024 -0.4015
   40POPC  H17S 5393   5.746   2.374   8.488  0.4365 -0.5149 -2.4453
   40POPC  C218 5394   5.819   2.581   8.519 -0.5899 -0.0351  0.2712
   40POPC  H18R 5395   5.793   2.582   8.627 -3.3869  0.8763 -0.3293
   40POPC  H18S 5396   5.740   2.649   8.478 -0.3390  1.1046  1.6268
   40POPC  H18T 5397   5.917   2.631   8.508 -0.2765 -0.1181  2.3368
   40POPC   C33 5398   5.674   3.244   7.139  0.2082  0.7939  1.0590
   40POPC   H3X 5399   5.781   3.265   7.119 -0.4593  3.4607 -0.1342
   40POPC   H3Y 5400   5.662   3.134   7.137  3.3368  0.3615 -1.7245
   40POPC   C34 5401   5.643   3.299   7.274 -0.0146  0.3081 -0.1616
   40POPC   H4X 5402   5.532   3.304   7.283 -0.0589  2.1655 -1.1211
   40POPC   H4Y 5403   5.681   3.404   7.270 -1.2852  0.8515  1.0297
   40POPC   C35 5404   5.710   3.228   7.388 -0.8341 -0.0532 -0.2481
   40POPC   H5X 5405   5.817   3.258   7.390 -0.5296 -0.9600 -1.6005
   40POPC   H5Y 5406   5.705   3.119   7.366 -0.1264  0.1323 -1.3599
   40POPC   C36 5407   5.657   3.276   7.529  0.1899 -0.0064 -0.3333
   40POPC   H6X 5408   5.711   3.223   7.610 -3.4016 -0.9795  1.6057
   40POPC   H6Y 5409   5.546   3.268   7.526 -0.2969  4.2104  0.4224
   40POPC   C37 5410   5.678   3.430   7.543  0.4814 -0.1222 -0.0933
   40POPC   H7X 5411   5.617   3.493   7.476  1.1597  2.6740  1.7528
   40POPC   H7Y 5412   5.782   3.465   7.523  0.0375  0.7030 -1.0289
   40POPC   C38 5413   5.651   3.486   7.683  0.1197  0.4408  0.1896
   40POPC   H8X 5414   5.703   3.420   7.756  0.4487  1.3212  0.7661
   40POPC   H8Y 5415   5.544   3.492   7.712  0.0881 -0.5266  0.3078
   40POPC   C39 5416   5.719   3.625   7.706  0.2035  0.0896 -0.2787
   40POPC   H9X 5417   5.687   3.695   7.626  0.8023  0.6570 -0.0293
   40POPC   H9Y 5418   5.829   3.613   7.701  0.0579 -1.5132 -0.3329
   40POPC  C310 5419   5.671   3.704   7.828 -0.3183 -0.1081 -0.3381
   40POPC  H10X 5420   5.561   3.699   7.810 -0.6176 -1.8728  1.5842
   40POPC  H10Y 5421   5.717   3.805   7.838  1.6618 -1.0691  0.9799
   40POPC  C311 5422   5.695   3.632   7.963  0.7533 -0.0847  0.6975
   40POPC  H11X 5423   5.803   3.635   7.989  0.9730 -1.4936  0.0766
   40POPC  H11Y 5424   5.666   3.524   7.963 -1.1366  0.3696 -0.1981
   40POPC  C312 5425   5.621   3.706   8.076 -0.0646  0.7816 -0.0777
   40POPC  H12X 5426   5.513   3.696   8.052 -0.0077  0.0879 -0.0670
   40POPC  H12Y 5427   5.660   3.810   8.073  1.2633  0.3672  1.3251
   40POPC  C313 5428   5.646   3.645   8.210 -0.8588  0.3171 -1.4093
   40POPC  H13X 5429   5.754   3.629   8.233 -0.9951  1.0156 -0.1714
   40POPC  H13Y 5430   5.611   3.540   8.203  2.7109 -1.2010  0.8513
   40POPC  C314 5431   5.566   3.695   8.335 -0.3182  0.2410 -0.8022
   40POPC  H14X 5432   5.459   3.696   8.304 -0.2636  0.9835 -0.9772
   40POPC  H14Y 5433   5.602   3.796   8.364  1.2328 -0.2862 -0.8116
   40POPC  C315 5434   5.561   3.599   8.455  0.6211  0.3739 -0.1394
   40POPC  H15X 5435   5.534   3.496   8.422 -1.2725  1.0784 -0.9191
   40POPC  H15Y 5436   5.473   3.640   8.509  0.2566  1.2399 -1.3496
   40POPC  C316 5437   5.677   3.607   8.552 -0.6470  0.3840  0.0647
   40POPC  H16X 5438   5.692   3.519   8.617 -0.2891  0.4516  0.0765
   40POPC  H16Y 5439   5.692   3.697   8.615 -0.4313  0.0139  0.5491
   40POPC  H16Z 5440   5.766   3.611   8.486 -0.7056  2.2950  0.0533
   41CHL1    C3 5441   3.602   2.124  10.079 -0.6489 -0.0048  0.6608
   41CHL1    H3 5442   3.694   2.179  10.111 -0.2753 -1.4340  2.2266
   41CHL1    O3 5443   3.541   2.071  10.191  0.0612  0.1245  0.0930
   41CHL1   H3' 5444   3.453   2.045  10.162 -0.5390  0.8877  1.1484
   41CHL1    C4 5445   3.520   2.236  10.014  0.5925  0.2243 -0.4431
   41CHL1   H4A 5446   3.425   2.185   9.989  1.5839 -2.2022  0.4302
   41CHL1   H4B 5447   3.490   2.315  10.086 -0.9359  0.6067 -1.4596
   41CHL1    C5 5448   3.563   2.289   9.884  0.3782  0.1983  0.7083
   41CHL1    C6 5449   3.592   2.415   9.857 -0.2901  0.1527 -1.0887
   41CHL1    H6 5450   3.580   2.484   9.942  0.3825 -1.1449  0.0979
   41CHL1    C7 5451   3.658   2.465   9.727  0.0759 -0.8115 -0.1136
   41CHL1   H7A 5452   3.605   2.556   9.692  0.0046 -0.3766  1.0770
   41CHL1   H7B 5453   3.761   2.504   9.741 -0.3276 -0.3451  1.9818
   41CHL1    C8 5454   3.655   2.363   9.611 -0.8020 -0.5206 -0.7112
   41CHL1    H8 5455   3.552   2.351   9.574 -0.5926 -1.8063 -0.9284
   41CHL1   C14 5456   3.738   2.406   9.499  0.1651 -0.6259 -0.0213
   41CHL1   H14 5457   3.844   2.404   9.533  0.2538  1.1126 -0.1401
   41CHL1   C15 5458   3.719   2.545   9.437  0.1975 -0.0676 -0.1598
   41CHL1  H15A 5459   3.612   2.571   9.421  0.5425  0.6807 -1.4030
   41CHL1  H15B 5460   3.764   2.618   9.508 -1.2639 -0.9228  1.7251
   41CHL1   C16 5461   3.785   2.545   9.300  0.5468 -0.3003 -0.1420
   41CHL1  H16A 5462   3.714   2.583   9.223  0.2919  1.9848  1.1263
   41CHL1  H16B 5463   3.873   2.612   9.308  2.1283 -2.1049 -1.4890
   41CHL1   C17 5464   3.825   2.402   9.272 -0.2345  0.0861 -0.0642
   41CHL1   H17 5465   3.929   2.401   9.310  0.0798 -2.4855 -0.7838
   41CHL1   C13 5466   3.737   2.316   9.376  0.4576 -0.0258  0.4839
   41CHL1   C18 5467   3.594   2.300   9.317  0.4320 -0.0309 -0.2162
   41CHL1  H18A 5468   3.604   2.225   9.235  1.5659  0.3888 -0.4813
   41CHL1  H18B 5469   3.517   2.262   9.388  0.4056  0.5028  0.0433
   41CHL1  H18C 5470   3.552   2.389   9.266  0.3308 -0.2933 -0.5992
   41CHL1   C12 5471   3.791   2.183   9.424 -0.2237  0.4067  0.0744
   41CHL1  H12A 5472   3.778   2.102   9.349  0.5328  0.0893  0.2758
   41CHL1  H12B 5473   3.902   2.185   9.428 -0.1531  0.4321 -1.3961
   41CHL1   C11 5474   3.735   2.128   9.558 -0.0882 -0.3584  0.4923
   41CHL1  H11A 5475   3.639   2.092   9.516 -0.4595  2.8438 -1.7456
   41CHL1  H11B 5476   3.793   2.042   9.597 -1.8066 -1.2826  1.1349
   41CHL1    C9 5477   3.704   2.229   9.667 -0.0527  0.8468  0.1353
   41CHL1    H9 5478   3.801   2.261   9.711 -1.0795  2.2084  1.5516
   41CHL1   C10 5479   3.614   2.181   9.780  0.5105 -0.4503 -0.3378
   41CHL1   C19 5480   3.494   2.102   9.720  0.3937  0.2009  0.1296
   41CHL1  H19A 5481   3.440   2.154   9.637 -1.2712 -0.9672  0.4315
   41CHL1  H19B 5482   3.526   2.001   9.688 -0.9710  0.3541 -1.8959
   41CHL1  H19C 5483   3.419   2.074   9.797  2.9479 -0.1597  2.6391
   41CHL1    C1 5484   3.703   2.080   9.856 -0.0954 -0.0411  0.3870
   41CHL1   H1A 5485   3.726   2.002   9.781 -0.4629 -0.6129  0.8601
   41CHL1   H1B 5486   3.794   2.136   9.886  2.4167 -2.7586 -1.5656
   41CHL1    C2 5487   3.634   2.016   9.983  0.3493  0.4171  0.3675
   41CHL1   H2A 5488   3.715   1.952  10.024 -0.1877 -0.7248 -0.2936
   41CHL1   H2B 5489   3.547   1.948   9.968  0.0954  1.0252 -1.1125
   41CHL1   C20 5490   3.818   2.360   9.121  0.0284  0.4787 -0.3812
   41CHL1   H20 5491   3.715   2.368   9.082  0.5120  2.9689 -1.3701
   41CHL1   C21 5492   3.874   2.216   9.109 -0.0977 -0.1310  0.8058
   41CHL1  H21A 5493   3.975   2.216   9.157  0.4389 -3.0982 -0.0955
   41CHL1  H21B 5494   3.875   2.190   9.001 -2.6881  0.4597  0.5784
   41CHL1  H21C 5495   3.817   2.136   9.160  0.2595 -0.7530  0.2451
   41CHL1   C22 5496   3.895   2.459   9.020 -0.0149 -0.5173  0.0867
   41CHL1  H22A 5497   3.856   2.562   9.036  1.0404 -0.1489  0.3675
   41CHL1  H22B 5498   4.003   2.462   9.042 -0.0874 -0.1561  0.4178
   41CHL1   C23 5499   3.887   2.426   8.870  0.1583  0.5644  0.5948
   41CHL1  H23A 5500   3.918   2.323   8.842 -0.7787  0.4731 -0.2019
   41CHL1  H23B 5501   3.780   2.420   8.840  1.0142 -1.2496 -2.5817
   41CHL1   C24 5502   3.961   2.528   8.776  0.0486  0.0199  0.4565
   41CHL1  H24A 5503   3.912   2.623   8.804 -2.5924 -0.7881 -1.0798
   41CHL1  H24B 5504   4.072   2.529   8.786  0.1208  1.6132 -0.2737
   41CHL1   C25 5505   3.927   2.518   8.624 -0.1503 -0.1882 -0.3149
   41CHL1   H25 5506   3.845   2.446   8.605  1.0949 -2.2307  1.6975
   41CHL1   C26 5507   3.890   2.651   8.562 -0.0598 -0.0697  0.7684
   41CHL1  H26A 5508   3.832   2.728   8.617  0.5296  0.2913  0.8951
   41CHL1  H26B 5509   3.987   2.700   8.543  0.8422 -1.1433  2.3165
   41CHL1  H26C 5510   3.841   2.642   8.462 -0.8666  0.8450  1.0710
   41CHL1   C27 5511   4.050   2.462   8.554  0.0208 -0.7519  0.3276
   41CHL1  H27A 5512   4.027   2.464   8.445  1.9128 -0.2582 -0.0976
   41CHL1  H27B 5513   4.142   2.522   8.569 -0.6948  0.3782  0.3361
   41CHL1  H27C 5514   4.055   2.358   8.591 -1.7537 -2.5357 -3.8060
   42CHL1    C3 5515   4.175   2.056   9.982  0.4312 -0.4056  0.2115
   42CHL1    H3 5516   4.240   2.142   9.955  0.4529 -0.9448 -1.5852
   42CHL1    O3 5517   4.098   2.071  10.104 -0.9331 -0.3367 -0.5504
   42CHL1   H3' 5518   4.076   1.980  10.125  0.7030 -0.6980 -0.2062
   42CHL1    C4 5519   4.072   2.032   9.868 -0.4798 -0.4982  0.2000
   42CHL1   H4A 5520   4.014   1.944   9.901  0.6250 -0.4279  2.5215
   42CHL1   H4B 5521   3.997   2.114   9.866 -2.3118 -1.8615  3.8905
   42CHL1    C5 5522   4.134   2.007   9.740 -0.0581  0.4583  1.6909
   42CHL1    C6 5523   4.104   2.083   9.634 -0.0250  0.5963  0.1029
   42CHL1    H6 5524   4.031   2.166   9.635 -0.3118  0.3434  0.1501
   42CHL1    C7 5525   4.168   2.062   9.501  0.2168  0.1666 -0.1035
   42CHL1   H7A 5526   4.094   2.053   9.419 -0.3224  0.2773  0.3569
   42CHL1   H7B 5527   4.242   2.143   9.483 -0.9937  1.6309  1.2087
   42CHL1    C8 5528   4.245   1.925   9.489  0.0648  0.0818 -0.2378
   42CHL1    H8 5529   4.172   1.845   9.466 -2.9007  2.3397  0.7111
   42CHL1   C14 5530   4.335   1.941   9.363 -0.3689  0.5157 -0.7331
   42CHL1   H14 5531   4.405   2.025   9.383  0.1052  0.2662 -1.3309
   42CHL1   C15 5532   4.275   1.975   9.229  0.2306 -0.2297  0.1854
   42CHL1  H15A 5533   4.175   1.929   9.214  0.4647 -0.4905 -0.6269
   42CHL1  H15B 5534   4.239   2.079   9.217 -4.2220 -1.5823  0.0732
   42CHL1   C16 5535   4.390   1.936   9.129 -0.1253  0.1312  0.5944
   42CHL1  H16A 5536   4.346   1.861   9.060 -1.3021 -0.5691  2.0406
   42CHL1  H16B 5537   4.425   2.025   9.072 -3.2453  1.4576  0.5228
   42CHL1   C17 5538   4.507   1.876   9.211  0.6488  0.0526 -0.3268
   42CHL1   H17 5539   4.578   1.959   9.231 -0.8355  1.5570 -1.0429
   42CHL1   C13 5540   4.440   1.830   9.340  0.2000 -0.4214  1.0866
   42CHL1   C18 5541   4.349   1.702   9.300 -0.9109 -0.5157 -0.4329
   42CHL1  H18A 5542   4.279   1.720   9.215 -1.4123  0.3092  0.1393
   42CHL1  H18B 5543   4.411   1.616   9.268 -3.0735 -1.4046 -2.5958
   42CHL1  H18C 5544   4.283   1.665   9.381  0.1289  0.6066  0.9905
   42CHL1   C12 5545   4.524   1.815   9.468 -0.2764  0.1131  0.0878
   42CHL1  H12A 5546   4.585   1.723   9.460 -0.9469 -0.1696 -2.7181
   42CHL1  H12B 5547   4.594   1.901   9.480 -1.6502  1.2126  0.5065
   42CHL1   C11 5548   4.432   1.792   9.588  0.1441  0.3748 -0.4943
   42CHL1  H11A 5549   4.373   1.698   9.580  0.1855  0.3117 -0.0739
   42CHL1  H11B 5550   4.502   1.789   9.674 -1.0821 -0.3793  0.5095
   42CHL1    C9 5551   4.324   1.903   9.619  0.5344  0.6211  0.7903
   42CHL1    H9 5552   4.388   1.993   9.629  1.5122 -0.0952  1.2520
   42CHL1   C10 5553   4.246   1.892   9.747  0.3048  0.1235  0.1341
   42CHL1   C19 5554   4.175   1.759   9.758  0.1345  0.3151  0.1281
   42CHL1  H19A 5555   4.106   1.771   9.844  1.2141  0.6943  0.9601
   42CHL1  H19B 5556   4.121   1.729   9.665  0.1086  0.1257  0.2028
   42CHL1  H19C 5557   4.243   1.673   9.775  1.0771  0.9293 -0.4774
   42CHL1    C1 5558   4.346   1.907   9.862  0.3764  0.0089 -0.3514
   42CHL1   H1A 5559   4.419   1.824   9.858 -0.8348 -1.0804 -4.0468
   42CHL1   H1B 5560   4.403   2.001   9.844  2.2683 -1.3592 -1.9373
   42CHL1    C2 5561   4.277   1.936   9.995 -0.6606  0.3973 -0.0296
   42CHL1   H2A 5562   4.366   1.958  10.058  1.1988 -2.6626 -1.3629
   42CHL1   H2B 5563   4.221   1.847  10.030 -2.8508  1.1769 -1.3937
   42CHL1   C20 5564   4.583   1.762   9.129 -0.7224 -0.7219 -0.0742
   42CHL1   H20 5565   4.522   1.672   9.107 -1.9892 -0.3453  1.6921
   42CHL1   C21 5566   4.707   1.706   9.214 -0.0122  0.7925  0.4048
   42CHL1  H21A 5567   4.678   1.641   9.300 -0.7447  0.0421 -0.3805
   42CHL1  H21B 5568   4.760   1.787   9.266  1.0144  0.7428 -0.5304
   42CHL1  H21C 5569   4.772   1.644   9.149  1.0283  2.7420 -0.4962
   42CHL1   C22 5570   4.633   1.816   8.991  0.0885  0.5274  0.0161
   42CHL1  H22A 5571   4.557   1.871   8.933  0.9065  0.8733 -0.7374
   42CHL1  H22B 5572   4.724   1.876   9.011 -0.3197  1.3957 -0.6776
   42CHL1   C23 5573   4.679   1.688   8.909 -0.0190 -0.0931 -0.6468
   42CHL1  H23A 5574   4.755   1.623   8.955 -1.9348 -0.7306  1.8613
   42CHL1  H23B 5575   4.585   1.630   8.893  0.6741 -0.8472 -2.2021
   42CHL1   C24 5576   4.714   1.740   8.769 -0.7110 -0.3907 -1.5782
   42CHL1  H24A 5577   4.629   1.798   8.726 -0.6400  1.8517  1.0309
   42CHL1  H24B 5578   4.804   1.804   8.782 -1.0630 -0.0815 -0.6289
   42CHL1   C25 5579   4.761   1.635   8.658  0.2017  0.6495  0.2045
   42CHL1   H25 5580   4.853   1.585   8.695  0.1608  0.8007  0.5168
   42CHL1   C26 5581   4.653   1.525   8.628  0.4169 -0.5787 -0.0521
   42CHL1  H26A 5582   4.608   1.488   8.723 -1.2430  1.4988  0.0462
   42CHL1  H26B 5583   4.575   1.582   8.574  0.4213 -0.9365 -0.4423
   42CHL1  H26C 5584   4.685   1.444   8.559 -1.0560 -1.3089  0.0818
   42CHL1   C27 5585   4.802   1.704   8.531 -0.2667 -0.0394 -0.2455
   42CHL1  H27A 5586   4.832   1.630   8.454  2.4976  1.2535 -0.5371
   42CHL1  H27B 5587   4.721   1.770   8.494 -1.5898 -1.6973 -0.3904
   42CHL1  H27C 5588   4.903   1.747   8.552  0.6771 -2.0881 -0.3814
   43CHL1    C3 5589   4.217   2.595   9.968 -0.2138  0.4333  0.1652
   43CHL1    H3 5590   4.321   2.563   9.990  0.4368  0.6368 -2.2692
   43CHL1    O3 5591   4.159   2.618  10.092 -0.2220  0.5780 -0.5397
   43CHL1   H3' 5592   4.125   2.532  10.118 -0.8557  0.7085 -0.8922
   43CHL1    C4 5593   4.226   2.734   9.905 -0.7555  0.2696 -0.6925
   43CHL1   H4A 5594   4.128   2.785   9.904 -0.1392  1.6039  1.1333
   43CHL1   H4B 5595   4.291   2.806   9.959  0.8546  0.4129 -2.6772
   43CHL1    C5 5596   4.267   2.718   9.763  0.0038  0.3014 -0.8150
   43CHL1    C6 5597   4.371   2.789   9.713  0.1475  0.7008  0.2469
   43CHL1    H6 5598   4.429   2.853   9.781 -0.9324  0.8254  1.0609
   43CHL1    C7 5599   4.425   2.775   9.572 -0.1244  0.0526  0.3733
   43CHL1   H7A 5600   4.444   2.872   9.520  0.8920 -0.4472 -0.2173
   43CHL1   H7B 5601   4.519   2.715   9.574  1.0565  1.8031  0.4247
   43CHL1    C8 5602   4.336   2.695   9.472  0.6258  0.1904 -0.6907
   43CHL1    H8 5603   4.255   2.759   9.432 -0.5674  0.1548  1.4744
   43CHL1   C14 5604   4.421   2.640   9.360 -0.7831  0.4152 -0.9833
   43CHL1   H14 5605   4.498   2.576   9.407 -1.8695  0.8588  1.6155
   43CHL1   C15 5606   4.505   2.735   9.279  0.7504 -0.2643 -0.4893
   43CHL1  H15A 5607   4.455   2.827   9.241 -0.1297 -0.0095  1.2053
   43CHL1  H15B 5608   4.578   2.779   9.350 -0.5170  1.6531 -0.2991
   43CHL1   C16 5609   4.559   2.648   9.167  0.4809  0.0034  0.6567
   43CHL1  H16A 5610   4.565   2.702   9.070  1.7723 -0.3767  0.5029
   43CHL1  H16B 5611   4.663   2.621   9.196  0.4173 -0.7159  0.2314
   43CHL1   C17 5612   4.478   2.518   9.169 -0.1658  1.3595 -0.0409
   43CHL1   H17 5613   4.534   2.447   9.234 -2.9677  0.3274  1.4449
   43CHL1   C13 5614   4.354   2.542   9.259  0.4029  0.0226  0.0806
   43CHL1   C18 5615   4.234   2.608   9.173 -0.2356  0.0766 -0.4948
   43CHL1  H18A 5616   4.183   2.529   9.114 -3.3353  2.2679 -1.0145
   43CHL1  H18B 5617   4.158   2.651   9.241  1.5057  2.9191 -0.1837
   43CHL1  H18C 5618   4.273   2.696   9.118  1.9637  0.5678  1.6259
   43CHL1   C12 5619   4.300   2.425   9.346  0.4257 -0.3155  0.3964
   43CHL1  H12A 5620   4.247   2.349   9.285 -0.1051  0.0824  0.3524
   43CHL1  H12B 5621   4.389   2.370   9.383  1.2747  0.3656 -0.5645
   43CHL1   C11 5622   4.204   2.472   9.447 -0.1599 -0.0257 -0.1931
   43CHL1  H11A 5623   4.119   2.526   9.402  1.9224  2.7224 -1.1256
   43CHL1  H11B 5624   4.170   2.380   9.500  0.3560  0.0531  0.2854
   43CHL1    C9 5625   4.279   2.579   9.545  0.2131 -0.0564  0.2963
   43CHL1    H9 5626   4.369   2.521   9.578  0.2932  0.0184  0.2080
   43CHL1   C10 5627   4.199   2.610   9.679 -0.0728 -0.0543  0.2424
   43CHL1   C19 5628   4.062   2.657   9.645 -0.2579  0.7710  0.0141
   43CHL1  H19A 5629   4.019   2.590   9.568 -1.5583 -1.1313  2.2400
   43CHL1  H19B 5630   3.983   2.657   9.723 -1.4140  1.3599 -1.1218
   43CHL1  H19C 5631   4.080   2.751   9.589  2.9952 -0.0759 -0.5670
   43CHL1    C1 5632   4.194   2.475   9.758 -0.1198 -0.0938  0.0359
   43CHL1   H1A 5633   4.129   2.402   9.706 -0.5212  1.0999 -1.1906
   43CHL1   H1B 5634   4.294   2.427   9.763 -0.3248 -1.0887 -2.9560
   43CHL1    C2 5635   4.138   2.488   9.899 -0.7911 -0.0013  0.0479
   43CHL1   H2A 5636   4.149   2.395   9.959  1.4257  0.2125  0.0657
   43CHL1   H2B 5637   4.031   2.515   9.897 -0.8129 -0.0243  0.6572
   43CHL1   C20 5638   4.471   2.452   9.032  0.1637 -0.3104  0.4723
   43CHL1   H20 5639   4.411   2.518   8.966 -1.1553 -2.8108 -1.0027
   43CHL1   C21 5640   4.402   2.314   9.045 -0.0712  0.4377  0.8926
   43CHL1  H21A 5641   4.295   2.327   9.018  0.9465  0.3292 -4.4356
   43CHL1  H21B 5642   4.405   2.270   9.146  1.4977  0.6634  0.9704
   43CHL1  H21C 5643   4.451   2.240   8.978  1.2694  1.3621  0.7956
   43CHL1   C22 5644   4.611   2.440   8.969  0.1068  0.3644  0.2446
   43CHL1  H22A 5645   4.675   2.530   8.955 -0.8813  0.8806 -1.2195
   43CHL1  H22B 5646   4.667   2.378   9.041 -1.2033 -0.2104  0.7890
   43CHL1   C23 5647   4.618   2.403   8.818 -0.1755 -0.4229  0.5318
   43CHL1  H23A 5648   4.722   2.402   8.778 -0.9134  0.8895 -1.5305
   43CHL1  H23B 5649   4.581   2.299   8.808 -1.1002 -0.0784  0.3190
   43CHL1   C24 5650   4.532   2.489   8.730  0.8312 -0.1840  1.0635
   43CHL1  H24A 5651   4.422   2.479   8.743  0.2480  2.3102 -1.0340
   43CHL1  H24B 5652   4.552   2.595   8.755 -0.3940 -0.0391  1.5275
   43CHL1   C25 5653   4.557   2.457   8.576 -0.1563  0.2182  0.5249
   43CHL1   H25 5654   4.612   2.361   8.568 -0.9018 -0.2196  0.6090
   43CHL1   C26 5655   4.435   2.429   8.487  0.5720  0.3719 -0.3529
   43CHL1  H26A 5656   4.368   2.517   8.474 -0.5677 -0.2539  0.9450
   43CHL1  H26B 5657   4.478   2.395   8.391 -0.5011  0.5112 -0.8905
   43CHL1  H26C 5658   4.374   2.347   8.532 -0.8507  2.3455  1.5327
   43CHL1   C27 5659   4.649   2.563   8.501  0.9339  0.0198  0.4921
   43CHL1  H27A 5660   4.594   2.660   8.500  1.2768  0.2089 -0.7445
   43CHL1  H27B 5661   4.750   2.564   8.547  0.4991  0.5366  1.4891
   43CHL1  H27C 5662   4.665   2.522   8.400 -0.0754 -0.5703  0.5512
   44CHL1    C3 5663   6.229   0.179  10.196  0.5865 -0.7926  0.0573
   44CHL1    H3 5664   6.125   0.206  10.168  0.1424 -1.5032  0.9733
   44CHL1    O3 5665   6.240   0.174  10.334 -0.1751 -0.2084 -0.2839
   44CHL1   H3' 5666   6.335   0.160  10.337  0.1639  0.7480 -3.1866
   44CHL1    C4 5667   6.253   0.036  10.153  0.1198 -0.6679  0.3580
   44CHL1   H4A 5668   6.358   0.001  10.165  0.6353  0.4950 -0.5646
   44CHL1   H4B 5669   6.198  -0.049  10.198 -0.3353 -1.8820 -2.2986
   44CHL1    C5 5670   6.239   0.033  10.004  1.5426  0.0505 -0.2916
   44CHL1    C6 5671   6.147  -0.051   9.940 -0.9267 -0.4225 -0.2205
   44CHL1    H6 5672   6.088  -0.110  10.010 -0.1769 -1.1657 -0.2026
   44CHL1    C7 5673   6.154  -0.078   9.788  0.9343 -0.1616 -0.1580
   44CHL1   H7A 5674   6.152  -0.187   9.770  1.2675 -0.1246 -0.4416
   44CHL1   H7B 5675   6.068  -0.031   9.736  0.8348 -0.3376 -0.1493
   44CHL1    C8 5676   6.271  -0.025   9.716 -0.3787  0.2760 -0.4937
   44CHL1    H8 5677   6.353  -0.099   9.728 -1.7888 -1.1395  0.9254
   44CHL1   C14 5678   6.238  -0.002   9.568  0.1239 -0.4327 -0.1454
   44CHL1   H14 5679   6.158   0.075   9.573 -0.0635 -0.6328 -0.0199
   44CHL1   C15 5680   6.174  -0.122   9.493 -0.5444  0.4549 -0.2804
   44CHL1  H15A 5681   6.217  -0.220   9.522  2.1944  1.2234 -1.4648
   44CHL1  H15B 5682   6.065  -0.117   9.514 -0.2471  2.8482  1.0063
   44CHL1   C16 5683   6.209  -0.110   9.340 -0.0916 -0.0640  0.1405
   44CHL1  H16A 5684   6.275  -0.193   9.308 -0.2471 -0.9848  2.0699
   44CHL1  H16B 5685   6.116  -0.103   9.280 -1.4249  0.1544  2.1054
   44CHL1   C17 5686   6.275   0.037   9.351  0.0584 -0.2730  0.2500
   44CHL1   H17 5687   6.191   0.109   9.364 -0.1120 -0.6337  1.2108
   44CHL1   C13 5688   6.348   0.052   9.485 -0.0921  0.0518  0.0743
   44CHL1   C18 5689   6.469  -0.042   9.483 -0.3690 -0.2459 -0.2454
   44CHL1  H18A 5690   6.448  -0.148   9.456  0.5018 -0.6171  0.5070
   44CHL1  H18B 5691   6.528  -0.008   9.395 -0.0747 -0.6312 -0.1979
   44CHL1  H18C 5692   6.535  -0.029   9.571  0.6323  1.1058 -1.1575
   44CHL1   C12 5693   6.376   0.191   9.542 -0.0595 -0.2543  0.5265
   44CHL1  H12A 5694   6.455   0.235   9.477 -0.8582  0.4722  0.0180
   44CHL1  H12B 5695   6.291   0.261   9.536 -0.6964 -1.0926 -0.9125
   44CHL1   C11 5696   6.419   0.186   9.688  0.2013 -0.3803  0.1475
   44CHL1  H11A 5697   6.512   0.126   9.698 -0.6223 -1.5435  1.1156
   44CHL1  H11B 5698   6.451   0.282   9.733  0.5233 -0.4014 -0.0374
   44CHL1    C9 5699   6.310   0.116   9.771 -0.2311 -0.0382 -0.3456
   44CHL1    H9 5700   6.219   0.175   9.746 -0.6878 -0.9674 -0.9194
   44CHL1   C10 5701   6.341   0.117   9.926  0.6932  0.5737 -0.8614
   44CHL1   C19 5702   6.477   0.052   9.949 -0.5733  0.2744  0.4594
   44CHL1  H19A 5703   6.558   0.108   9.897 -0.8446  1.6817  1.4975
   44CHL1  H19B 5704   6.499   0.057  10.057 -2.3202  1.7951  0.7997
   44CHL1  H19C 5705   6.479  -0.052   9.910  0.8886  1.3876 -2.8202
   44CHL1    C1 5706   6.333   0.262   9.980 -0.6736 -0.1094  0.4041
   44CHL1   H1A 5707   6.406   0.333   9.938 -1.7972  1.2899  0.7484
   44CHL1   H1B 5708   6.238   0.302   9.939 -0.2106  2.0334  1.2773
   44CHL1    C2 5709   6.331   0.277  10.131  0.0843  0.4818 -0.0781
   44CHL1   H2A 5710   6.312   0.382  10.165  0.5225  0.7955 -0.7811
   44CHL1   H2B 5711   6.437   0.254  10.157 -0.0527  0.9476  0.9561
   44CHL1   C20 5712   6.346   0.082   9.223  0.8455 -0.1473  0.2867
   44CHL1   H20 5713   6.439   0.136   9.252  0.2622 -0.3441  2.7239
   44CHL1   C21 5714   6.252   0.178   9.144  0.1020  0.3745 -0.2328
   44CHL1  H21A 5715   6.309   0.219   9.057 -0.6045  2.8491  0.3760
   44CHL1  H21B 5716   6.226   0.259   9.216  1.8787  0.1074  0.7697
   44CHL1  H21C 5717   6.156   0.131   9.114 -0.2999  0.3162  1.1112
   44CHL1   C22 5718   6.403  -0.027   9.135  0.1276 -0.0395  0.0226
   44CHL1  H22A 5719   6.443  -0.112   9.194 -1.4806 -1.9011 -1.3953
   44CHL1  H22B 5720   6.324  -0.065   9.066  0.3281  0.5164 -0.5240
   44CHL1   C23 5721   6.511   0.028   9.037  0.4526  0.1405  0.5064
   44CHL1  H23A 5722   6.469   0.111   8.976 -0.2289 -0.5285  0.0536
   44CHL1  H23B 5723   6.587   0.077   9.102  0.7496 -1.4728  1.4255
   44CHL1   C24 5724   6.591  -0.075   8.959 -0.3863 -0.3443 -0.0424
   44CHL1  H24A 5725   6.656  -0.134   9.028 -1.6898 -0.4889  1.1258
   44CHL1  H24B 5726   6.518  -0.146   8.913 -0.1588  1.2111 -2.9864
   44CHL1   C25 5727   6.672  -0.009   8.841 -0.0928  0.1050 -0.4382
   44CHL1   H25 5728   6.588   0.009   8.770 -0.1669  0.4341 -0.2710
   44CHL1   C26 5729   6.772   0.105   8.882  0.3372  0.5751  0.4227
   44CHL1  H26A 5730   6.830   0.133   8.792 -2.4732 -0.7226 -1.9411
   44CHL1  H26B 5731   6.722   0.195   8.923  1.2125  1.0678  0.4289
   44CHL1  H26C 5732   6.846   0.059   8.952  1.9466  0.4075 -1.3042
   44CHL1   C27 5733   6.760  -0.128   8.789 -0.3517 -0.3727 -0.6026
   44CHL1  H27A 5734   6.692  -0.203   8.742 -1.8736  0.1167  0.7142
   44CHL1  H27B 5735   6.835  -0.093   8.716  1.5072  2.1310  2.2692
   44CHL1  H27C 5736   6.826  -0.168   8.868 -0.1533  0.5921 -0.2670
   45CHL1    C3 5737   1.668   5.471  10.256 -0.5249  0.0103 -0.7589
   45CHL1    H3 5738   1.641   5.364  10.269  0.0795  0.0771  1.3831
   45CHL1    O3 5739   1.630   5.539  10.376 -0.2856  0.4698  0.1931
   45CHL1   H3' 5740   1.700   5.519  10.439  0.6186  0.1182 -0.8798
   45CHL1    C4 5741   1.813   5.485  10.228 -0.5372 -0.4371  0.0680
   45CHL1   H4A 5742   1.829   5.594  10.215 -0.9978 -0.5963 -2.1977
   45CHL1   H4B 5743   1.880   5.459  10.312  2.7722  0.8537 -1.9675
   45CHL1    C5 5744   1.859   5.418  10.098 -0.3095  0.6625 -0.1346
   45CHL1    C6 5745   1.946   5.319  10.088  0.2922 -0.1776  0.1846
   45CHL1    H6 5746   1.995   5.275  10.176 -0.6031  1.7412  1.7211
   45CHL1    C7 5747   1.983   5.257   9.958  0.7840 -0.2880 -0.7647
   45CHL1   H7A 5748   2.093   5.269   9.947  0.6901  0.3824 -1.0005
   45CHL1   H7B 5749   1.959   5.149   9.973 -2.6198  0.5882  0.8500
   45CHL1    C8 5750   1.909   5.298   9.828 -0.0599 -0.7645  0.1212
   45CHL1    H8 5751   1.885   5.200   9.781  1.4440 -1.1402  0.0896
   45CHL1   C14 5752   2.000   5.367   9.725  0.4739  0.2030  0.0870
   45CHL1   H14 5753   2.053   5.452   9.775 -2.2902  1.6384  0.7984
   45CHL1   C15 5754   2.107   5.270   9.670 -0.3752 -0.1287 -0.2856
   45CHL1  H15A 5755   2.202   5.326   9.658  0.2702 -1.6883 -3.7019
   45CHL1  H15B 5756   2.121   5.185   9.740  0.1268  0.3617  0.2132
   45CHL1   C16 5757   2.070   5.223   9.532  0.8533 -0.0719 -0.2778
   45CHL1  H16A 5758   2.143   5.255   9.454  3.3057  0.5224  2.0897
   45CHL1  H16B 5759   2.051   5.114   9.532 -0.2352  0.0668  1.7810
   45CHL1   C17 5760   1.940   5.293   9.503 -0.1514 -0.1721 -0.3897
   45CHL1   H17 5761   1.861   5.229   9.547 -0.3846  0.8688  0.7626
   45CHL1   C13 5762   1.937   5.415   9.597 -0.9921 -0.1573  0.7026
   45CHL1   C18 5763   2.024   5.515   9.530  0.2175 -0.0086 -0.0657
   45CHL1  H18A 5764   2.024   5.601   9.601 -1.3311 -0.3181  0.3411
   45CHL1  H18B 5765   2.130   5.491   9.507  1.5120  1.4703  3.5974
   45CHL1  H18C 5766   1.970   5.543   9.437 -4.0840  0.4696  2.2931
   45CHL1   C12 5767   1.799   5.477   9.630 -0.5002 -0.6452 -0.4688
   45CHL1  H12A 5768   1.817   5.576   9.677  2.2648 -0.9052 -0.8480
   45CHL1  H12B 5769   1.747   5.500   9.534 -1.2661  1.7484  0.4449
   45CHL1   C11 5770   1.710   5.399   9.725  0.0745  0.9722 -0.1791
   45CHL1  H11A 5771   1.614   5.451   9.747 -1.0589 -1.9944  2.6666
   45CHL1  H11B 5772   1.681   5.306   9.672 -0.6515  0.5900  0.8430
   45CHL1    C9 5773   1.780   5.365   9.862  0.7712 -0.9848  0.3213
   45CHL1    H9 5774   1.706   5.289   9.894 -1.3101  1.1927  0.9962
   45CHL1   C10 5775   1.771   5.467   9.979 -0.1175 -0.3416  0.1375
   45CHL1   C19 5776   1.827   5.608   9.941  0.8688 -0.6324  0.0449
   45CHL1  H19A 5777   1.760   5.656   9.866 -0.5042  0.7656  2.0765
   45CHL1  H19B 5778   1.825   5.675  10.029 -1.7822 -2.2853  1.3546
   45CHL1  H19C 5779   1.927   5.592   9.895  1.2249  1.4496 -0.0059
   45CHL1    C1 5780   1.612   5.475  10.019  0.6403 -0.2581 -0.0859
   45CHL1   H1A 5781   1.556   5.533   9.943 -0.8830 -2.7199 -0.9448
   45CHL1   H1B 5782   1.567   5.375  10.033 -0.8270  0.1268 -1.7476
   45CHL1    C2 5783   1.590   5.544  10.154  0.4298 -0.2310  0.2640
   45CHL1   H2A 5784   1.482   5.529  10.173  0.4482 -0.8178 -0.0781
   45CHL1   H2B 5785   1.617   5.651  10.142 -0.1977  0.0501  1.2121
   45CHL1   C20 5786   1.916   5.302   9.345  0.5747 -0.3032  0.2695
   45CHL1   H20 5787   1.995   5.370   9.307  0.7075  1.8967  3.9969
   45CHL1   C21 5788   1.778   5.366   9.313 -0.8998 -0.2168 -0.7738
   45CHL1  H21A 5789   1.703   5.314   9.376  0.8253  0.4903  2.0245
   45CHL1  H21B 5790   1.764   5.359   9.203  0.6274  0.0152 -1.0088
   45CHL1  H21C 5791   1.782   5.474   9.336 -2.0550 -0.3348  0.0361
   45CHL1   C22 5792   1.935   5.164   9.278  0.6979  0.5379 -0.5804
   45CHL1  H22A 5793   2.037   5.119   9.276  0.5747  0.2809 -1.0851
   45CHL1  H22B 5794   1.877   5.088   9.334  0.3284 -0.8922 -2.7925
   45CHL1   C23 5795   1.903   5.168   9.134  0.5434  0.4573 -0.4593
   45CHL1  H23A 5796   1.795   5.188   9.117  0.2838  0.7909  1.4278
   45CHL1  H23B 5797   1.966   5.246   9.085  0.4533  0.3935 -0.6802
   45CHL1   C24 5798   1.946   5.036   9.062 -0.2495 -0.4267  0.3952
   45CHL1  H24A 5799   2.054   5.052   9.041 -0.3861 -0.5045 -0.3783
   45CHL1  H24B 5800   1.945   4.955   9.138 -0.7344  0.5880  1.5013
   45CHL1   C25 5801   1.864   4.996   8.937  0.0161  0.0736 -0.2277
   45CHL1   H25 5802   1.833   5.091   8.889 -1.5933  0.1516  0.8909
   45CHL1   C26 5803   1.956   4.920   8.843 -0.0071 -0.7462  0.1220
   45CHL1  H26A 5804   2.028   4.995   8.805 -2.5163  2.1029  0.6439
   45CHL1  H26B 5805   2.017   4.844   8.896  0.8960 -0.5441 -0.5877
   45CHL1  H26C 5806   1.900   4.882   8.754 -1.5229  2.4893 -0.4386
   45CHL1   C27 5807   1.744   4.915   8.973 -0.3675 -0.5397 -0.4441
   45CHL1  H27A 5808   1.671   4.972   9.034 -1.6753 -2.0339 -0.5473
   45CHL1  H27B 5809   1.704   4.872   8.879 -0.8447 -1.8819  0.3423
   45CHL1  H27C 5810   1.768   4.831   9.041 -2.7237  0.8215  2.2792
   46CHL1    C3 5811   4.613   5.001  10.249 -0.9345  0.5141  0.1649
   46CHL1    H3 5812   4.552   4.908  10.253  0.6598 -0.5210  2.4039
   46CHL1    O3 5813   4.608   5.055  10.380 -0.1858 -0.2139 -0.7672
   46CHL1   H3' 5814   4.531   5.024  10.429 -2.1129  1.6756 -2.4137
   46CHL1    C4 5815   4.764   4.964  10.229 -0.0310 -0.1527 -0.0377
   46CHL1   H4A 5816   4.797   5.070  10.231 -4.6965  1.5263  0.6862
   46CHL1   H4B 5817   4.809   4.903  10.310  1.0493  0.9541  0.2300
   46CHL1    C5 5818   4.800   4.905  10.099 -0.1913  0.3168 -0.2964
   46CHL1    C6 5819   4.866   4.792  10.083  0.4627  0.4290 -0.2962
   46CHL1    H6 5820   4.897   4.726  10.167  0.4602 -2.1722 -2.2154
   46CHL1    C7 5821   4.883   4.724   9.948  0.0341  0.3108 -0.6362
   46CHL1   H7A 5822   4.985   4.680   9.945  0.3111  0.4471  2.7098
   46CHL1   H7B 5823   4.809   4.643   9.929  1.6949 -1.1586 -1.0575
   46CHL1    C8 5824   4.854   4.809   9.827  0.3080 -0.3539  0.6119
   46CHL1    H8 5825   4.939   4.880   9.818  0.4046 -0.2914  1.8373
   46CHL1   C14 5826   4.847   4.733   9.698 -0.2661 -0.5118  0.2251
   46CHL1   H14 5827   4.766   4.658   9.708  0.6634 -1.3470  1.8445
   46CHL1   C15 5828   4.973   4.651   9.657 -0.2713 -0.8850 -0.4349
   46CHL1  H15A 5829   5.069   4.705   9.674 -0.0221 -0.6885 -2.2532
   46CHL1  H15B 5830   4.983   4.555   9.713  0.2472 -1.5592 -1.6384
   46CHL1   C16 5831   4.964   4.631   9.506  0.2189 -0.1600  0.7290
   46CHL1  H16A 5832   5.053   4.683   9.464 -1.0114  3.0168  1.7716
   46CHL1  H16B 5833   4.949   4.527   9.469 -0.1477  0.1001  0.1262
   46CHL1   C17 5834   4.843   4.718   9.453  0.6539  0.1275 -0.3174
   46CHL1   H17 5835   4.757   4.648   9.446  0.4039  0.4615 -0.6700
   46CHL1   C13 5836   4.814   4.817   9.567  0.3550 -0.3860 -0.2599
   46CHL1   C18 5837   4.910   4.929   9.546 -0.3187  0.0007 -0.8524
   46CHL1  H18A 5838   4.875   5.010   9.478  0.2741  1.1681  0.1907
   46CHL1  H18B 5839   4.934   4.980   9.642  0.1476 -2.3932  0.3788
   46CHL1  H18C 5840   5.006   4.889   9.507 -0.1602 -2.4631  1.7721
   46CHL1   C12 5841   4.678   4.880   9.593 -0.4555  0.6651 -0.1911
   46CHL1  H12A 5842   4.658   4.949   9.507 -1.6812 -1.1288 -1.4180
   46CHL1  H12B 5843   4.609   4.793   9.585  1.2152 -0.5817 -2.0392
   46CHL1   C11 5844   4.676   4.969   9.720  0.1631  0.4602  0.2632
   46CHL1  H11A 5845   4.734   5.062   9.698  0.6119  0.1328  0.0368
   46CHL1  H11B 5846   4.571   4.994   9.745 -0.6488 -0.4076 -2.0471
   46CHL1    C9 5847   4.725   4.888   9.846  0.3328 -0.6888 -0.4324
   46CHL1    H9 5848   4.639   4.819   9.857  0.8432 -1.1532  0.7280
   46CHL1   C10 5849   4.729   4.975   9.980  0.3848  0.4726  0.3254
   46CHL1   C19 5850   4.816   5.096   9.945  0.3041 -0.4742 -0.1723
   46CHL1  H19A 5851   4.849   5.156  10.033  0.5641 -2.2125  0.9841
   46CHL1  H19B 5852   4.907   5.062   9.892  1.5073 -0.9384  2.0590
   46CHL1  H19C 5853   4.759   5.166   9.881  0.5224  1.5812  1.7550
   46CHL1    C1 5854   4.583   5.018  10.018  0.5730  0.4869  0.9170
   46CHL1   H1A 5855   4.559   5.088   9.935 -0.6988 -1.8745 -0.8683
   46CHL1   H1B 5856   4.519   4.927  10.010  0.7427  0.4086  0.4471
   46CHL1    C2 5857   4.566   5.095  10.143 -0.5738 -0.3088 -0.4593
   46CHL1   H2A 5858   4.464   5.134  10.162 -0.4574 -0.2058 -0.0263
   46CHL1   H2B 5859   4.636   5.182  10.143 -1.6045  0.6462  2.3931
   46CHL1   C20 5860   4.850   4.769   9.309 -0.2098 -0.1029  0.0953
   46CHL1   H20 5861   4.926   4.849   9.303 -1.4352  1.0974  0.2030
   46CHL1   C21 5862   4.714   4.822   9.267 -0.3043  0.4552  0.4907
   46CHL1  H21A 5863   4.715   4.861   9.163 -1.8609  4.5569  1.7967
   46CHL1  H21B 5864   4.672   4.910   9.320  0.5185  0.5016  1.0884
   46CHL1  H21C 5865   4.639   4.741   9.277 -0.7156  0.7636 -0.0371
   46CHL1   C22 5866   4.901   4.653   9.217 -0.3044  0.0989 -0.0972
   46CHL1  H22A 5867   5.010   4.639   9.234 -0.0836 -0.5439 -1.9020
   46CHL1  H22B 5868   4.852   4.558   9.245  0.6917  0.0451  1.5769
   46CHL1   C23 5869   4.890   4.674   9.068  0.0527  0.0673  0.1744
   46CHL1  H23A 5870   4.919   4.575   9.025  1.6184  1.3691 -1.9645
   46CHL1  H23B 5871   4.784   4.696   9.043  0.0381 -0.8426 -0.6394
   46CHL1   C24 5872   4.988   4.781   9.019  0.4689  0.4631 -0.0645
   46CHL1  H24A 5873   4.975   4.872   9.081 -2.1864 -0.2066  0.5215
   46CHL1  H24B 5874   5.089   4.741   9.040  1.0416  1.3696 -1.0227
   46CHL1   C25 5875   4.960   4.840   8.877  0.3505 -0.2284  0.6907
   46CHL1   H25 5876   5.021   4.933   8.871  3.8779 -2.3998  0.2373
   46CHL1   C26 5877   5.008   4.751   8.758  1.0619 -0.6621  0.3366
   46CHL1  H26A 5878   5.017   4.789   8.654  0.9960  1.5913  1.0863
   46CHL1  H26B 5879   5.112   4.721   8.786  1.0211 -0.5655  0.6009
   46CHL1  H26C 5880   4.951   4.656   8.751  0.9905 -0.7698  1.9141
   46CHL1   C27 5881   4.804   4.865   8.867 -0.9556 -0.5993  0.1638
   46CHL1  H27A 5882   4.765   4.912   8.960 -0.6346  0.7233 -0.3368
   46CHL1  H27B 5883   4.784   4.938   8.785 -0.2999 -0.2461  0.3156
   46CHL1  H27C 5884   4.753   4.770   8.842  1.0888 -2.0998  1.4564
   47CHL1    C3 5885   4.014   0.783   9.963  0.1643  0.4012  0.7128
   47CHL1    H3 5886   3.916   0.738   9.938  1.0864 -0.4944 -1.5723
   47CHL1    O3 5887   4.012   0.789  10.108  0.0103  0.0407 -0.1535
   47CHL1   H3' 5888   4.071   0.864  10.121  2.0738 -1.0814 -2.3375
   47CHL1    C4 5889   4.122   0.687   9.915  0.0970 -0.0517 -0.5713
   47CHL1   H4A 5890   4.221   0.729   9.942  0.8181 -0.2951 -2.6667
   47CHL1   H4B 5891   4.106   0.594   9.973  0.4519 -0.5071 -1.1809
   47CHL1    C5 5892   4.136   0.675   9.761  0.3599  0.1676 -0.2477
   47CHL1    C6 5893   4.133   0.561   9.697 -0.0797 -0.5050 -0.1359
   47CHL1    H6 5894   4.112   0.472   9.757 -1.5208  0.9248  1.5967
   47CHL1    C7 5895   4.156   0.549   9.547 -0.2481 -0.1458  0.0839
   47CHL1   H7A 5896   4.244   0.482   9.540 -0.4993 -0.5151  0.4081
   47CHL1   H7B 5897   4.072   0.502   9.492  0.7266 -2.1055  0.1846
   47CHL1    C8 5898   4.199   0.680   9.476  0.5528 -0.7962 -0.2882
   47CHL1    H8 5899   4.307   0.691   9.498  0.4684 -0.4830 -0.0240
   47CHL1   C14 5900   4.177   0.668   9.326  0.2678 -0.5197 -0.8114
   47CHL1   H14 5901   4.066   0.672   9.317 -0.0933 -0.0243  2.5186
   47CHL1   C15 5902   4.222   0.548   9.246 -0.1733 -0.0096  0.5062
   47CHL1  H15A 5903   4.316   0.511   9.292 -0.4704  0.6992  1.7219
   47CHL1  H15B 5904   4.142   0.472   9.258  0.6880 -0.8802  0.8994
   47CHL1   C16 5905   4.247   0.602   9.108 -0.3553  0.7147  0.4477
   47CHL1  H16A 5906   4.354   0.597   9.080 -0.1348 -0.3206  1.4050
   47CHL1  H16B 5907   4.184   0.542   9.039  0.7647 -1.2151  1.0222
   47CHL1   C17 5908   4.193   0.744   9.108  0.2396  0.1891  0.0932
   47CHL1   H17 5909   4.083   0.731   9.095 -0.1534  1.4637  1.7824
   47CHL1   C13 5910   4.219   0.794   9.250  0.1658  0.8446  0.6563
   47CHL1   C18 5911   4.370   0.818   9.264 -0.3920  0.2605  0.8328
   47CHL1  H18A 5912   4.436   0.739   9.222  0.2352  0.6074  1.1494
   47CHL1  H18B 5913   4.386   0.912   9.208 -1.1292  0.9013  1.6557
   47CHL1  H18C 5914   4.407   0.844   9.366 -2.3853  0.5208  1.5338
   47CHL1   C12 5915   4.141   0.915   9.305 -0.1500  0.2495  0.4586
   47CHL1  H12A 5916   4.184   0.999   9.247 -1.5841  1.0025  0.4300
   47CHL1  H12B 5917   4.034   0.898   9.280  0.1645  1.0058 -1.6322
   47CHL1   C11 5918   4.157   0.936   9.454  1.0196 -0.1285 -0.1160
   47CHL1  H11A 5919   4.264   0.961   9.468  0.7613  0.5716  0.6656
   47CHL1  H11B 5920   4.094   1.021   9.490  1.1771 -0.4037  0.8186
   47CHL1    C9 5921   4.125   0.800   9.527  0.4411  0.0339 -0.4712
   47CHL1    H9 5922   4.017   0.783   9.508  1.0203 -2.4141 -1.8864
   47CHL1   C10 5923   4.143   0.806   9.682 -0.1984  0.9046 -0.2020
   47CHL1   C19 5924   4.284   0.858   9.712 -0.4525  0.2003 -0.5018
   47CHL1  H19A 5925   4.279   0.964   9.679  1.0558 -0.0354 -1.5984
   47CHL1  H19B 5926   4.304   0.869   9.821 -0.7530  1.3385 -0.5513
   47CHL1  H19C 5927   4.367   0.803   9.663 -0.6830 -1.5129  0.9300
   47CHL1    C1 5928   4.032   0.906   9.741 -0.8090  0.1517 -0.7884
   47CHL1   H1A 5929   4.045   1.010   9.702  0.4787  0.4372  0.3159
   47CHL1   H1B 5930   3.938   0.872   9.692 -0.8836  1.1926 -1.3984
   47CHL1    C2 5931   4.029   0.914   9.896  1.1911 -0.8100 -0.4102
   47CHL1   H2A 5932   3.940   0.973   9.927  1.4582 -0.6547  0.0737
   47CHL1   H2B 5933   4.121   0.966   9.928  0.7552  0.0444 -0.5087
   47CHL1   C20 5934   4.241   0.839   8.991  0.8322 -0.5154 -0.8378
   47CHL1   H20 5935   4.237   0.942   9.033  0.9159 -1.7674  2.4915
   47CHL1   C21 5936   4.120   0.834   8.884 -0.8325 -0.2216  0.0758
   47CHL1  H21A 5937   4.146   0.913   8.810 -1.2193 -0.7759 -0.6702
   47CHL1  H21B 5938   4.025   0.859   8.936 -0.6742 -1.0756  0.7894
   47CHL1  H21C 5939   4.116   0.738   8.828  2.2734 -0.2322 -0.3051
   47CHL1   C22 5940   4.385   0.820   8.937  0.4731  0.5888 -0.6760
   47CHL1  H22A 5941   4.466   0.791   9.007  2.1359  1.8222 -1.9872
   47CHL1  H22B 5942   4.372   0.724   8.882 -1.3246  0.6620 -0.4462
   47CHL1   C23 5943   4.432   0.926   8.845  0.0959 -0.6294  0.1261
   47CHL1  H23A 5944   4.356   1.007   8.836  1.5421  0.8988  0.9118
   47CHL1  H23B 5945   4.527   0.965   8.889  1.0607 -1.4012 -1.2119
   47CHL1   C24 5946   4.461   0.878   8.697 -0.7835 -0.4652 -0.3172
   47CHL1  H24A 5947   4.523   0.786   8.697 -0.6574 -0.3823 -0.9555
   47CHL1  H24B 5948   4.367   0.841   8.651 -0.4408  0.5381 -1.9197
   47CHL1   C25 5949   4.524   0.997   8.622 -0.0138 -0.0168  0.1286
   47CHL1   H25 5950   4.621   1.004   8.675  1.6116 -0.9878 -2.5338
   47CHL1   C26 5951   4.562   0.958   8.476  0.1946  0.1038 -0.3470
   47CHL1  H26A 5952   4.624   0.866   8.475  0.4591  0.2831 -0.9164
   47CHL1  H26B 5953   4.628   1.032   8.425  1.6707 -2.4197 -2.3235
   47CHL1  H26C 5954   4.469   0.939   8.418  0.7564  1.1742 -1.6652
   47CHL1   C27 5955   4.452   1.131   8.626 -1.0041 -0.4314 -0.4116
   47CHL1  H27A 5956   4.460   1.156   8.734  0.1059 -2.3203 -0.0103
   47CHL1  H27B 5957   4.489   1.212   8.559  0.0786  1.9285  2.7854
   47CHL1  H27C 5958   4.342   1.120   8.616 -0.8253 -2.0528 -0.8595
   48CHL1    C3 5959   5.836   0.080  10.144  0.0667  0.2923  0.0248
   48CHL1    H3 5960   5.940   0.051  10.117 -0.1758 -1.2939  0.6831
   48CHL1    O3 5961   5.818   0.086  10.283  0.1841 -0.6101 -0.1841
   48CHL1   H3' 5962   5.872   0.021  10.329 -0.8105 -0.5970  1.0454
   48CHL1    C4 5963   5.808   0.219  10.072  0.0363 -0.1569  0.0972
   48CHL1   H4A 5964   5.719   0.270  10.116 -0.9708 -3.1045  1.7824
   48CHL1   H4B 5965   5.891   0.277  10.116 -0.1769  0.4277 -0.2566
   48CHL1    C5 5966   5.808   0.219   9.927 -0.0991  0.8867  0.7861
   48CHL1    C6 5967   5.892   0.293   9.857 -0.0170  0.0377 -0.4445
   48CHL1    H6 5968   5.967   0.363   9.896 -0.5217  0.6543 -0.5754
   48CHL1    C7 5969   5.898   0.291   9.710  0.1019 -0.1126 -0.1301
   48CHL1   H7A 5970   5.921   0.390   9.666 -1.0369 -0.6316 -2.0530
   48CHL1   H7B 5971   5.984   0.227   9.679 -1.7985 -2.7221 -0.3763
   48CHL1    C8 5972   5.777   0.208   9.646 -0.0141 -0.7347  0.8953
   48CHL1    H8 5973   5.691   0.278   9.651  0.0672 -0.6604  1.3293
   48CHL1   C14 5974   5.814   0.168   9.502  0.4812  0.0761  0.5261
   48CHL1   H14 5975   5.895   0.092   9.511  1.8671  1.4682  0.2152
   48CHL1   C15 5976   5.867   0.284   9.406  0.2725 -0.1857  0.0762
   48CHL1  H15A 5977   5.811   0.380   9.406  2.4569  1.1677 -1.4213
   48CHL1  H15B 5978   5.975   0.305   9.419  0.0139  2.2774 -1.1085
   48CHL1   C16 5979   5.849   0.215   9.264  0.6618  0.7719  0.2553
   48CHL1  H16A 5980   5.789   0.277   9.194 -0.5009 -1.2309 -0.5883
   48CHL1  H16B 5981   5.946   0.205   9.212  1.2148  1.4316  1.1285
   48CHL1   C17 5982   5.779   0.074   9.293 -0.1847 -0.5900 -0.2560
   48CHL1   H17 5983   5.864   0.004   9.310  0.6399  0.5186  0.3116
   48CHL1   C13 5984   5.708   0.086   9.425  0.2166 -0.6647  0.0156
   48CHL1   C18 5985   5.571   0.166   9.416 -0.7362  0.0948 -0.2161
   48CHL1  H18A 5986   5.481   0.102   9.398  0.2158 -1.1281 -0.8067
   48CHL1  H18B 5987   5.546   0.214   9.512 -1.0896  0.3807 -0.4475
   48CHL1  H18C 5988   5.579   0.242   9.335 -0.3649 -1.1488 -1.4047
   48CHL1   C12 5989   5.684  -0.046   9.501  0.0502  0.5411 -0.0628
   48CHL1  H12A 5990   5.599  -0.097   9.451  0.5447 -0.1481 -0.2136
   48CHL1  H12B 5991   5.771  -0.114   9.487 -1.5860 -1.6286 -0.2567
   48CHL1   C11 5992   5.651  -0.016   9.645  0.0383  0.5782  0.3536
   48CHL1  H11A 5993   5.547   0.022   9.646  0.9820  3.7083 -2.5377
   48CHL1  H11B 5994   5.660  -0.117   9.692  2.4153  0.5284 -0.0936
   48CHL1    C9 5995   5.753   0.080   9.721  0.1366  0.5995 -0.2596
   48CHL1    H9 5996   5.850   0.026   9.727 -0.0787  0.2440 -0.0210
   48CHL1   C10 5997   5.711   0.104   9.870 -0.3264 -0.1049  0.2280
   48CHL1   C19 5998   5.566   0.145   9.881  0.0484 -0.2826  0.4343
   48CHL1  H19A 5999   5.549   0.233   9.815  1.7821 -0.1113  0.1648
   48CHL1  H19B 6000   5.503   0.060   9.845 -0.4641 -0.5642  1.9360
   48CHL1  H19C 6001   5.547   0.162   9.989 -2.3771  0.3474 -0.0395
   48CHL1    C1 6002   5.734  -0.031   9.946 -0.5169 -0.2691  0.4145
   48CHL1   H1A 6003   5.651  -0.094   9.909 -1.2665  1.0416 -0.2348
   48CHL1   H1B 6004   5.829  -0.082   9.919 -0.8365 -2.6596  3.3668
   48CHL1    C2 6005   5.726  -0.018  10.097 -0.4817 -0.4901  0.2076
   48CHL1   H2A 6006   5.748  -0.117  10.141  2.7415  0.2370  0.4791
   48CHL1   H2B 6007   5.625   0.016  10.127 -0.0958  1.3579 -0.4105
   48CHL1   C20 6008   5.705   0.016   9.170 -0.3751  0.6085 -0.1397
   48CHL1   H20 6009   5.597   0.039   9.182 -0.8969 -1.2226 -1.0032
   48CHL1   C21 6010   5.713  -0.139   9.177 -0.2505 -0.3426 -0.3445
   48CHL1  H21A 6011   5.805  -0.178   9.128 -0.3379  1.0697 -1.7071
   48CHL1  H21B 6012   5.621  -0.187   9.139 -0.2181  0.4523 -1.4647
   48CHL1  H21C 6013   5.727  -0.169   9.284 -2.4752 -0.3227 -0.0143
   48CHL1   C22 6014   5.750   0.050   9.027 -0.0053 -0.0391  0.4376
   48CHL1  H22A 6015   5.742   0.159   9.008 -1.5422 -0.2971 -0.5236
   48CHL1  H22B 6016   5.856   0.015   9.027  0.0738  0.1584  1.3327
   48CHL1   C23 6017   5.670  -0.015   8.919 -0.1502  0.3728  0.3693
   48CHL1  H23A 6018   5.688  -0.124   8.913  0.1693  0.1800  3.3179
   48CHL1  H23B 6019   5.563  -0.018   8.948 -0.2057  0.9194  0.2391
   48CHL1   C24 6020   5.692   0.045   8.772  0.5276  0.6942 -0.2744
   48CHL1  H24A 6021   5.710   0.154   8.781 -0.2645  0.7069  1.7454
   48CHL1  H24B 6022   5.779  -0.011   8.730  0.2429 -0.2006  0.2790
   48CHL1   C25 6023   5.561   0.037   8.689  0.3786  0.5946 -0.0216
   48CHL1   H25 6024   5.492   0.103   8.745  3.1942  2.6202  1.3458
   48CHL1   C26 6025   5.579   0.094   8.552 -0.4333  0.5747  0.1583
   48CHL1  H26A 6026   5.481   0.083   8.501 -1.3135  0.1143  1.8844
   48CHL1  H26B 6027   5.620   0.198   8.548  1.3188 -0.1046 -0.7178
   48CHL1  H26C 6028   5.656   0.036   8.497  0.3481 -0.1796  1.9606
   48CHL1   C27 6029   5.506  -0.109   8.682  0.9305 -0.1367  0.2591
   48CHL1  H27A 6030   5.585  -0.163   8.624  0.0146  0.3950 -1.5634
   48CHL1  H27B 6031   5.499  -0.153   8.783 -0.5023  1.6551  0.9793
   48CHL1  H27C 6032   5.413  -0.106   8.622  1.9170 -0.1452 -1.3618
   49CHL1    C3 6033   5.442   4.989  10.145  0.1974  0.2885 -0.2737
   49CHL1    H3 6034   5.539   4.938  10.129 -0.0949 -0.4215  0.1378
   49CHL1    O3 6035   5.424   4.998  10.286  0.0791 -0.6216 -0.4107
   49CHL1   H3' 6036   5.329   5.005  10.301  0.4378  0.4928  1.5627
   49CHL1    C4 6037   5.447   5.124  10.086 -0.7281 -0.3700  0.5377
   49CHL1   H4A 6038   5.359   5.185  10.114  0.9282  3.0837 -1.0510
   49CHL1   H4B 6039   5.529   5.185  10.131 -0.4966  0.4253 -0.8758
   49CHL1    C5 6040   5.470   5.114   9.934 -0.4007  0.4373 -0.6418
   49CHL1    C6 6041   5.582   5.161   9.884  0.4156 -0.2626 -0.0584
   49CHL1    H6 6042   5.660   5.198   9.952  0.8982 -0.3795 -0.5437
   49CHL1    C7 6043   5.605   5.162   9.735  1.1973 -0.3579  0.5434
   49CHL1   H7A 6044   5.647   5.257   9.697  1.1050 -1.0179 -1.3083
   49CHL1   H7B 6045   5.672   5.074   9.718 -0.7323 -1.8078  0.0697
   49CHL1    C8 6046   5.478   5.141   9.648 -0.3439 -0.4072  0.5809
   49CHL1    H8 6047   5.402   5.221   9.662 -1.0684 -1.3438  2.2494
   49CHL1   C14 6048   5.514   5.120   9.498 -0.5185 -0.5142  0.2121
   49CHL1   H14 6049   5.565   5.021   9.494 -0.4449 -0.4469 -1.1276
   49CHL1   C15 6050   5.604   5.223   9.414 -0.0030  0.9212  0.3261
   49CHL1  H15A 6051   5.571   5.329   9.424 -1.3302  0.6157 -0.4719
   49CHL1  H15B 6052   5.709   5.196   9.437 -0.1278 -1.9080 -1.8534
   49CHL1   C16 6053   5.576   5.187   9.263  0.7170 -0.0755 -0.0826
   49CHL1  H16A 6054   5.555   5.273   9.195  0.7608 -0.5146 -0.6600
   49CHL1  H16B 6055   5.664   5.133   9.222 -0.4273 -0.7476 -1.7533
   49CHL1   C17 6056   5.454   5.085   9.263  0.3342 -0.4109 -0.2197
   49CHL1   H17 6057   5.499   4.984   9.254 -1.0018 -1.0045 -0.3602
   49CHL1   C13 6058   5.394   5.089   9.409 -0.1720 -0.1923  0.4703
   49CHL1   C18 6059   5.306   5.212   9.396 -1.4679  0.0381 -0.1386
   49CHL1  H18A 6060   5.217   5.183   9.335 -2.5396  1.0065  0.9112
   49CHL1  H18B 6061   5.280   5.252   9.496  0.6566 -1.7313  1.2035
   49CHL1  H18C 6062   5.361   5.288   9.337 -2.8726 -0.6394 -2.4707
   49CHL1   C12 6063   5.323   4.964   9.469  1.1999  0.0809 -0.5161
   49CHL1  H12A 6064   5.237   4.930   9.408  2.4669 -1.5438 -1.5085
   49CHL1  H12B 6065   5.401   4.884   9.467  2.8378  1.5471  0.9885
   49CHL1   C11 6066   5.276   4.985   9.614  0.0367 -0.2115 -0.6189
   49CHL1  H11A 6067   5.193   5.059   9.614  1.5805  1.7034  2.4976
   49CHL1  H11B 6068   5.220   4.899   9.657 -0.5832  0.7482  0.5508
   49CHL1    C9 6069   5.396   5.023   9.701  0.4573  0.6636 -0.1796
   49CHL1    H9 6070   5.465   4.936   9.708  0.4953  0.7561  5.5217
   49CHL1   C10 6071   5.362   5.040   9.855 -0.1695 -0.2513  0.0936
   49CHL1   C19 6072   5.233   5.128   9.869  0.0031  0.0598 -0.1269
   49CHL1  H19A 6073   5.195   5.141   9.973 -0.0611 -0.6928 -0.0487
   49CHL1  H19B 6074   5.246   5.230   9.828  2.0097 -1.0302 -2.4508
   49CHL1  H19C 6075   5.146   5.079   9.820  1.5451 -3.3204  0.2438
   49CHL1    C1 6076   5.336   4.903   9.924  0.6970  0.3711  0.6677
   49CHL1   H1A 6077   5.241   4.859   9.887  0.8700  0.4769  0.0950
   49CHL1   H1B 6078   5.424   4.840   9.900  0.1766  0.1023 -0.6246
   49CHL1    C2 6079   5.329   4.918  10.085  0.7304 -0.1208  0.1254
   49CHL1   H2A 6080   5.328   4.813  10.124  1.8598  0.2119  1.1313
   49CHL1   H2B 6081   5.234   4.972  10.102  0.2633 -0.5285 -1.1431
   49CHL1   C20 6082   5.363   5.088   9.133 -0.3913 -0.1057 -0.4590
   49CHL1   H20 6083   5.313   5.187   9.139 -0.0739  0.1632 -1.7581
   49CHL1   C21 6084   5.252   4.977   9.138  0.4748 -0.1742  0.1919
   49CHL1  H21A 6085   5.213   4.978   9.034  1.1807  1.2343 -0.0810
   49CHL1  H21B 6086   5.167   4.998   9.206  2.2372 -0.4195  2.5743
   49CHL1  H21C 6087   5.301   4.883   9.171 -1.8795 -0.7074  2.4950
   49CHL1   C22 6088   5.441   5.077   9.003  0.1161  0.4311  0.1217
   49CHL1  H22A 6089   5.527   5.148   9.007  0.3503  0.1337  0.4049
   49CHL1  H22B 6090   5.481   4.974   8.993  0.5441  0.6706 -0.7180
   49CHL1   C23 6091   5.364   5.129   8.876  0.7677 -0.6195  0.4579
   49CHL1  H23A 6092   5.274   5.065   8.862 -0.8257  1.1457  2.0252
   49CHL1  H23B 6093   5.322   5.231   8.892  0.8475 -0.5241  0.0614
   49CHL1   C24 6094   5.458   5.139   8.756  0.1259  0.3632 -0.2433
   49CHL1  H24A 6095   5.533   5.219   8.778  0.5113 -0.4866  1.6686
   49CHL1  H24B 6096   5.502   5.042   8.724  1.1698  0.3092  1.2583
   49CHL1   C25 6097   5.387   5.191   8.624 -0.4994  0.0627  0.4611
   49CHL1   H25 6098   5.331   5.286   8.640  0.2259  1.0754 -2.3686
   49CHL1   C26 6099   5.492   5.219   8.516  0.5139 -0.1226 -0.3126
   49CHL1  H26A 6100   5.441   5.234   8.419 -0.4104 -0.0320  0.1789
   49CHL1  H26B 6101   5.555   5.310   8.528 -1.3839  1.1490  0.4511
   49CHL1  H26C 6102   5.568   5.138   8.512  2.1894  1.1838  2.1781
   49CHL1   C27 6103   5.280   5.084   8.583  0.1009 -0.5173 -0.0412
   49CHL1  H27A 6104   5.246   5.111   8.481 -0.2368  2.7407  0.7963
   49CHL1  H27B 6105   5.334   4.987   8.584  3.0141  0.9729 -1.3504
   49CHL1  H27C 6106   5.198   5.087   8.658 -0.1929  0.2726 -0.3832
   50CHL1    C3 6107   1.229   0.065  10.327  0.5021  0.5164 -0.1359
   50CHL1    H3 6108   1.161   0.152  10.313  2.9891  2.4208 -1.1568
   50CHL1    O3 6109   1.263   0.054  10.464  0.2012  0.0011 -0.0155
   50CHL1   H3' 6110   1.354   0.025  10.469  1.1197  2.6867 -0.0230
   50CHL1    C4 6111   1.166  -0.064  10.277  0.1577 -0.1293 -0.5788
   50CHL1   H4A 6112   1.221  -0.155  10.310  0.0186 -0.1754 -0.4706
   50CHL1   H4B 6113   1.065  -0.073  10.325  1.2883  0.0565  2.0221
   50CHL1    C5 6114   1.150  -0.063  10.127  0.7161 -0.5794  0.4495
   50CHL1    C6 6115   1.029  -0.086  10.067  0.0725 -0.2759 -0.3856
   50CHL1    H6 6116   0.940  -0.083  10.131  0.9240  3.0782  0.8630
   50CHL1    C7 6117   1.012  -0.099   9.921 -0.7022 -0.5089  0.3013
   50CHL1   H7A 6118   0.964  -0.199   9.911 -0.8965 -0.5105  1.2053
   50CHL1   H7B 6119   0.962  -0.021   9.860  3.8716  0.3788 -2.8830
   50CHL1    C8 6120   1.145  -0.106   9.845 -0.4026  0.1011  0.5818
   50CHL1    H8 6121   1.193  -0.205   9.857  1.5954  1.0360  0.8702
   50CHL1   C14 6122   1.121  -0.094   9.696 -0.3283 -0.1066 -0.1036
   50CHL1   H14 6123   1.079   0.008   9.680  0.2378  0.3438  1.1566
   50CHL1   C15 6124   1.024  -0.192   9.625 -0.0207 -0.4333  0.6254
   50CHL1  H15A 6125   1.044  -0.297   9.655 -0.0360 -0.4211  0.6790
   50CHL1  H15B 6126   0.922  -0.165   9.660  0.9684  1.0031  2.6422
   50CHL1   C16 6127   1.038  -0.159   9.476  0.0321 -0.2984 -0.1778
   50CHL1  H16A 6128   1.038  -0.251   9.414  0.7939 -0.2637 -0.2481
   50CHL1  H16B 6129   0.959  -0.096   9.432  1.1319  1.3536  0.1236
   50CHL1   C17 6130   1.175  -0.081   9.469  0.3374  0.4892  0.7636
   50CHL1   H17 6131   1.146   0.026   9.455 -0.0702  0.2255 -0.5848
   50CHL1   C13 6132   1.245  -0.094   9.609  0.2194 -0.3476 -0.0341
   50CHL1   C18 6133   1.329  -0.222   9.614  0.1448  0.3888 -0.2429
   50CHL1  H18A 6134   1.363  -0.246   9.717  0.3353  0.3918 -0.3051
   50CHL1  H18B 6135   1.265  -0.307   9.584 -1.1737  0.6804  1.5467
   50CHL1  H18C 6136   1.416  -0.208   9.547  1.8923  2.2350  2.2069
   50CHL1   C12 6137   1.330   0.023   9.653  0.1273  0.1943 -0.0375
   50CHL1  H12A 6138   1.428   0.024   9.601  0.9073 -1.0612  1.3197
   50CHL1  H12B 6139   1.270   0.115   9.638 -0.2382 -0.1217 -0.5885
   50CHL1   C11 6140   1.364   0.022   9.800  0.2423  0.3805  0.2565
   50CHL1  H11A 6141   1.441  -0.058   9.809 -0.1104  0.2225  2.6884
   50CHL1  H11B 6142   1.414   0.117   9.826 -3.1327  1.8389  2.1069
   50CHL1    C9 6143   1.244  -0.000   9.897  0.3327 -0.6202 -0.2953
   50CHL1    H9 6144   1.192   0.097   9.883 -0.6142 -1.3931 -2.8254
   50CHL1   C10 6145   1.273  -0.025  10.041  0.2320  0.0805 -1.2748
   50CHL1   C19 6146   1.375  -0.142  10.049  0.7821 -0.0863 -0.2681
   50CHL1  H19A 6147   1.471  -0.108  10.004  0.6293 -1.4461 -1.7133
   50CHL1  H19B 6148   1.389  -0.184  10.151  2.3407 -0.5316 -0.6360
   50CHL1  H19C 6149   1.339  -0.222   9.981  1.8473 -0.3026 -0.5997
   50CHL1    C1 6150   1.326   0.109  10.106  0.5964  0.1545 -0.7185
   50CHL1   H1A 6151   1.409   0.139  10.040  0.6581 -1.7629 -1.5893
   50CHL1   H1B 6152   1.242   0.179  10.086 -0.1649 -0.9995 -1.7703
   50CHL1    C2 6153   1.361   0.110  10.253  0.7065  0.5842 -0.1943
   50CHL1   H2A 6154   1.387   0.214  10.282  0.4435  0.8842 -0.9974
   50CHL1   H2B 6155   1.439   0.032  10.268 -1.0354 -1.4934 -1.3506
   50CHL1   C20 6156   1.257  -0.111   9.339 -0.2156  1.2983 -0.5705
   50CHL1   H20 6157   1.291  -0.216   9.343 -1.0601  1.0566  0.6715
   50CHL1   C21 6158   1.385  -0.019   9.338 -0.5081 -0.0753  0.4951
   50CHL1  H21A 6159   1.414  -0.025   9.231  0.6564 -0.8115  0.8283
   50CHL1  H21B 6160   1.466  -0.065   9.400 -0.4217  2.6925  2.6495
   50CHL1  H21C 6161   1.366   0.085   9.371  1.3108  0.5815 -0.3969
   50CHL1   C22 6162   1.161  -0.088   9.217  0.1691 -0.5381 -0.6549
   50CHL1  H22A 6163   1.053  -0.083   9.243  0.3802  1.5704  0.0397
   50CHL1  H22B 6164   1.181   0.019   9.193  1.3427 -0.8135 -0.9678
   50CHL1   C23 6165   1.185  -0.173   9.095  0.0821  0.3345 -0.6244
   50CHL1  H23A 6166   1.131  -0.122   9.012  0.4959 -0.7819 -1.6038
   50CHL1  H23B 6167   1.295  -0.177   9.080  0.5801  0.4759  2.3295
   50CHL1   C24 6168   1.138  -0.318   9.116 -0.2867 -0.3869 -0.0612
   50CHL1  H24A 6169   1.226  -0.356   9.173  1.0854  2.6441  0.0686
   50CHL1  H24B 6170   1.049  -0.321   9.182  0.6673  0.8667  1.3787
   50CHL1   C25 6171   1.112  -0.379   8.981 -1.2969 -0.2544 -1.0817
   50CHL1   H25 6172   1.051  -0.307   8.921 -1.9718 -0.7698 -1.0270
   50CHL1   C26 6173   1.239  -0.399   8.896 -0.2218 -0.4386  0.0569
   50CHL1  H26A 6174   1.316  -0.323   8.923  0.9471 -1.9725  1.1771
   50CHL1  H26B 6175   1.281  -0.499   8.920 -3.3665 -1.4103  2.1812
   50CHL1  H26C 6176   1.223  -0.386   8.787  0.8832  0.1952 -0.0533
   50CHL1   C27 6177   1.015  -0.503   8.994  1.1546 -0.0670 -0.1080
   50CHL1  H27A 6178   0.913  -0.466   9.018  0.5021 -0.6779 -1.8051
   50CHL1  H27B 6179   1.006  -0.547   8.893  3.1251  2.5604 -1.5630
   50CHL1  H27C 6180   1.049  -0.581   9.065  2.4688  0.8435  0.2938
   51CHL1    C3 6181   3.208   2.452  10.245 -0.3040  0.3686 -0.1117
   51CHL1    H3 6182   3.314   2.421  10.229 -0.3043  1.0202 -1.4527
   51CHL1    O3 6183   3.189   2.446  10.383 -0.3591 -0.2847 -0.5535
   51CHL1   H3' 6184   3.093   2.454  10.386 -0.4105 -1.0950  0.2105
   51CHL1    C4 6185   3.191   2.599  10.207 -0.5721 -0.2904  0.0006
   51CHL1   H4A 6186   3.091   2.641  10.233  0.2140  0.8665  1.2917
   51CHL1   H4B 6187   3.272   2.657  10.256 -0.0615  0.6950 -1.9104
   51CHL1    C5 6188   3.207   2.620  10.057 -0.0567  0.6586 -0.1730
   51CHL1    C6 6189   3.290   2.712  10.013 -0.2568 -0.2893 -0.2500
   51CHL1    H6 6190   3.340   2.780  10.084 -0.9850  0.0085 -0.0090
   51CHL1    C7 6191   3.311   2.740   9.865 -0.2155  0.0321 -0.5592
   51CHL1   H7A 6192   3.315   2.850   9.854 -0.2666  0.4048  2.4959
   51CHL1   H7B 6193   3.411   2.691   9.858 -0.7259 -1.2998  0.9949
   51CHL1    C8 6194   3.215   2.671   9.772  0.4117 -0.2993  0.0142
   51CHL1    H8 6195   3.120   2.729   9.774  0.5700 -0.0193  2.5404
   51CHL1   C14 6196   3.274   2.672   9.634  0.1254  0.2905 -0.0644
   51CHL1   H14 6197   3.360   2.603   9.640  1.1966  1.4987 -1.0766
   51CHL1   C15 6198   3.329   2.804   9.581  0.1062 -0.0435 -0.2342
   51CHL1  H15A 6199   3.256   2.884   9.607  2.6958  1.5585  2.9212
   51CHL1  H15B 6200   3.426   2.828   9.629  0.0360 -1.9125  0.9578
   51CHL1   C16 6201   3.325   2.781   9.428  0.1575  0.5876  0.3317
   51CHL1  H16A 6202   3.245   2.847   9.387 -0.7960  0.3288  1.7203
   51CHL1  H16B 6203   3.421   2.804   9.378  1.0093 -1.5126  0.9092
   51CHL1   C17 6204   3.282   2.631   9.403 -0.0189 -0.3176  0.0748
   51CHL1   H17 6205   3.374   2.571   9.421  0.0567 -0.2232  0.0045
   51CHL1   C13 6206   3.183   2.607   9.525  0.0237  0.1674 -0.6594
   51CHL1   C18 6207   3.056   2.693   9.512 -0.2180  0.0747  0.0247
   51CHL1  H18A 6208   2.995   2.657   9.426  1.6697 -0.0977 -1.3025
   51CHL1  H18B 6209   2.982   2.687   9.595 -0.3317  1.1998  0.0150
   51CHL1  H18C 6210   3.071   2.798   9.481  1.5114  0.1165  0.8915
   51CHL1   C12 6211   3.152   2.457   9.563  0.0266 -0.4366 -0.1346
   51CHL1  H12A 6212   3.074   2.416   9.495 -0.0618  2.1868 -1.7474
   51CHL1  H12B 6213   3.246   2.397   9.558 -0.5790 -1.4121  0.0698
   51CHL1   C11 6214   3.103   2.452   9.710 -0.8598 -0.2870 -0.1491
   51CHL1  H11A 6215   2.996   2.476   9.692 -0.6685 -0.8393 -2.1922
   51CHL1  H11B 6216   3.117   2.351   9.753  2.9725  0.6758  1.2718
   51CHL1    C9 6217   3.187   2.532   9.812 -0.0698 -0.0265  0.9741
   51CHL1    H9 6218   3.289   2.486   9.809  0.5538  1.2710  1.4322
   51CHL1   C10 6219   3.132   2.521   9.961  0.2928  0.3168  0.0105
   51CHL1   C19 6220   2.986   2.568   9.956  0.0260 -0.5200 -0.1329
   51CHL1  H19A 6221   2.973   2.656   9.889  0.6445 -0.1206  0.2642
   51CHL1  H19B 6222   2.927   2.491   9.902  1.6552 -2.5980  0.8994
   51CHL1  H19C 6223   2.936   2.583  10.054 -1.2636  1.1976 -0.9992
   51CHL1    C1 6224   3.150   2.377  10.020 -0.3354  0.0511  0.7821
   51CHL1   H1A 6225   3.073   2.318   9.966  3.1644 -2.0400 -2.4364
   51CHL1   H1B 6226   3.243   2.326   9.986 -0.0227  1.3674 -0.4068
   51CHL1    C2 6227   3.110   2.366  10.169 -0.3347 -0.2969  0.0131
   51CHL1   H2A 6228   3.130   2.258  10.190  1.0825  0.3837  2.6676
   51CHL1   H2B 6229   3.003   2.394  10.180 -1.0403 -1.8822 -2.1853
   51CHL1   C20 6230   3.223   2.604   9.261 -0.3579 -0.4331  0.4287
   51CHL1   H20 6231   3.154   2.687   9.232  0.8011 -0.0960 -1.4816
   51CHL1   C21 6232   3.142   2.482   9.245  0.4792  0.2615 -0.3231
   51CHL1  H21A 6233   3.042   2.496   9.292  0.0896 -2.9846  0.0463
   51CHL1  H21B 6234   3.194   2.400   9.299  0.9802  0.4623 -0.5003
   51CHL1  H21C 6235   3.119   2.452   9.141  1.7197 -2.9825  0.2340
   51CHL1   C22 6236   3.329   2.610   9.145  0.2015  0.0954  0.1585
   51CHL1  H22A 6237   3.434   2.590   9.175  0.1083 -2.0335 -0.7734
   51CHL1  H22B 6238   3.301   2.530   9.073 -0.9494  1.7375 -1.3039
   51CHL1   C23 6239   3.332   2.736   9.065 -0.2792 -0.2114  0.6311
   51CHL1  H23A 6240   3.232   2.771   9.033  0.4311  1.3881  0.0863
   51CHL1  H23B 6241   3.365   2.815   9.135 -1.4150 -0.3416  1.3449
   51CHL1   C24 6242   3.414   2.722   8.940 -1.0051 -0.9804  0.3845
   51CHL1  H24A 6243   3.501   2.665   8.979 -0.0580 -0.4922 -0.9577
   51CHL1  H24B 6244   3.380   2.656   8.857  0.5087 -2.1288  0.6310
   51CHL1   C25 6245   3.483   2.853   8.893  0.5364  1.0677 -0.7464
   51CHL1   H25 6246   3.546   2.890   8.977  0.3549  0.9674 -0.5645
   51CHL1   C26 6247   3.566   2.812   8.768 -0.1089 -0.2660 -0.1576
   51CHL1  H26A 6248   3.625   2.719   8.786  0.3655 -0.3840 -2.0717
   51CHL1  H26B 6249   3.505   2.783   8.679  0.1929 -1.8348  0.1185
   51CHL1  H26C 6250   3.632   2.899   8.747 -0.1898 -0.2077 -0.1686
   51CHL1   C27 6251   3.385   2.962   8.853 -0.2014 -0.7977 -0.0106
   51CHL1  H27A 6252   3.439   3.043   8.800 -0.1051 -1.1017 -0.3831
   51CHL1  H27B 6253   3.308   2.919   8.785 -2.1805  1.0509  0.9188
   51CHL1  H27C 6254   3.332   3.007   8.940  1.6348 -0.4315  0.9853
   52CHL1    C3 6255   4.690   1.094  10.036  0.0880 -0.3990  0.2938
   52CHL1    H3 6256   4.639   1.178   9.983 -0.8009 -1.0436  0.1261
   52CHL1    O3 6257   4.645   1.080  10.171 -0.3263 -0.1445  0.0672
   52CHL1   H3' 6258   4.706   1.016  10.207  2.4643  1.8109 -0.7883
   52CHL1    C4 6259   4.669   0.964   9.969  0.5000  0.1562 -0.2312
   52CHL1   H4A 6260   4.712   0.879  10.027 -1.2735 -0.3189  0.4543
   52CHL1   H4B 6261   4.561   0.941   9.975  1.0913 -2.7069  1.5929
   52CHL1    C5 6262   4.724   0.948   9.832  0.4578 -0.0837 -0.3308
   52CHL1    C6 6263   4.643   0.920   9.726  0.2372  0.2195  0.3337
   52CHL1    H6 6264   4.538   0.888   9.734  0.2495  0.6378  3.2277
   52CHL1    C7 6265   4.701   0.912   9.586 -0.6550 -0.5263  0.3668
   52CHL1   H7A 6266   4.669   0.818   9.536 -2.3681  0.7095 -0.9646
   52CHL1   H7B 6267   4.655   0.990   9.522 -1.9658 -0.6584  1.0894
   52CHL1    C8 6268   4.850   0.908   9.579  0.8444  0.1987  0.3060
   52CHL1    H8 6269   4.884   0.809   9.617 -1.0772 -0.9236 -0.7453
   52CHL1   C14 6270   4.898   0.929   9.434 -0.2306  0.8449 -0.2025
   52CHL1   H14 6271   4.877   1.035   9.406  0.3804  1.3106  1.0047
   52CHL1   C15 6272   4.842   0.839   9.322  0.2681 -0.6189  0.7944
   52CHL1  H15A 6273   4.818   0.734   9.347 -1.9844 -0.3674 -0.0345
   52CHL1  H15B 6274   4.752   0.900   9.298  1.0143  1.0305  1.9649
   52CHL1   C16 6275   4.938   0.855   9.208  0.2938  0.5482  0.5477
   52CHL1  H16A 6276   4.965   0.749   9.186 -1.8939  0.0698 -0.1203
   52CHL1  H16B 6277   4.899   0.884   9.108  1.4855  0.9905  0.1842
   52CHL1   C17 6278   5.064   0.924   9.268 -0.3645  0.0633 -0.6405
   52CHL1   H17 6279   5.042   1.027   9.234 -1.0959 -0.1508 -0.8244
   52CHL1   C13 6280   5.051   0.913   9.418 -0.0339 -0.6722  0.1007
   52CHL1   C18 6281   5.101   0.774   9.464  0.0316 -1.2941 -0.5327
   52CHL1  H18A 6282   5.074   0.691   9.394 -0.7083  0.5309 -2.5448
   52CHL1  H18B 6283   5.211   0.786   9.476 -0.3985  0.6723  2.4790
   52CHL1  H18C 6284   5.076   0.749   9.569  3.2557 -0.0487  0.6545
   52CHL1   C12 6285   5.129   1.024   9.499 -0.1765  0.2491 -0.2299
   52CHL1  H12A 6286   5.240   1.023   9.507 -0.1866 -0.3877 -0.1445
   52CHL1  H12B 6287   5.103   1.126   9.462 -0.3553 -0.2107 -1.4062
   52CHL1   C11 6288   5.075   1.010   9.652  0.6097  0.7493  0.4095
   52CHL1  H11A 6289   5.128   0.919   9.687 -0.9088 -0.8618 -1.2710
   52CHL1  H11B 6290   5.120   1.094   9.709  0.8361  2.4488 -2.1235
   52CHL1    C9 6291   4.916   1.008   9.674 -0.5830  0.5405 -0.4456
   52CHL1    H9 6292   4.891   1.107   9.631 -0.2617  0.6614 -0.3617
   52CHL1   C10 6293   4.869   0.993   9.824 -0.5198  0.2093  0.3740
   52CHL1   C19 6294   4.960   0.882   9.892  0.3512  0.2280 -0.6688
   52CHL1  H19A 6295   4.981   0.795   9.825  1.2166 -0.0397 -0.0654
   52CHL1  H19B 6296   5.055   0.920   9.935 -1.2034 -0.8481  4.2902
   52CHL1  H19C 6297   4.910   0.849   9.985 -0.2217  1.3962 -0.5532
   52CHL1    C1 6298   4.897   1.126   9.897  0.6791  0.1781  0.0251
   52CHL1   H1A 6299   5.007   1.141   9.896  0.7917  0.0852 -3.8198
   52CHL1   H1B 6300   4.886   1.220   9.840  2.2931  0.0004 -0.6265
   52CHL1    C2 6301   4.838   1.139  10.038 -0.7569  0.9622  0.3290
   52CHL1   H2A 6302   4.850   1.244  10.071 -0.3513 -0.0521  3.7651
   52CHL1   H2B 6303   4.892   1.072  10.108  0.9921  0.3905 -1.4476
   52CHL1   C20 6304   5.193   0.889   9.185 -0.5144 -0.0962  0.2369
   52CHL1   H20 6305   5.211   0.780   9.199  0.6536  0.3995  3.7737
   52CHL1   C21 6306   5.320   0.951   9.244  0.0241  0.1481  0.1407
   52CHL1  H21A 6307   5.309   1.061   9.246 -1.8126  0.0083  2.7572
   52CHL1  H21B 6308   5.408   0.930   9.180 -1.2888  0.5357 -1.8581
   52CHL1  H21C 6309   5.344   0.925   9.350  3.5247  2.8366  0.1807
   52CHL1   C22 6310   5.178   0.919   9.033  0.0267 -0.1309  0.0372
   52CHL1  H22A 6311   5.079   0.880   9.002  1.0775 -1.2889 -2.0345
   52CHL1  H22B 6312   5.188   1.028   9.018 -0.3107  0.1848  1.8561
   52CHL1   C23 6313   5.283   0.851   8.947  0.0249 -0.1654  0.0688
   52CHL1  H23A 6314   5.383   0.893   8.968  0.9178 -1.6927 -0.9478
   52CHL1  H23B 6315   5.302   0.747   8.982  1.6789 -0.1567 -0.7165
   52CHL1   C24 6316   5.246   0.840   8.801  0.3570  0.1479 -0.3016
   52CHL1  H24A 6317   5.150   0.785   8.791 -0.1628  1.2028 -1.4440
   52CHL1  H24B 6318   5.234   0.931   8.737  0.2633  0.1001 -0.3520
   52CHL1   C25 6319   5.339   0.748   8.719  0.0519 -0.0344 -0.0949
   52CHL1   H25 6320   5.444   0.783   8.712  0.4066 -1.1450 -0.5291
   52CHL1   C26 6321   5.360   0.605   8.772 -0.1605  0.4757  0.1351
   52CHL1  H26A 6322   5.258   0.569   8.795 -0.6673  0.6075 -1.7298
   52CHL1  H26B 6323   5.413   0.535   8.704 -0.4709  0.2011  0.1744
   52CHL1  H26C 6324   5.423   0.617   8.863 -0.3279 -2.1845  0.6778
   52CHL1   C27 6325   5.292   0.751   8.577 -0.1817  0.0091  0.1009
   52CHL1  H27A 6326   5.195   0.697   8.573  0.5025 -1.1764 -1.1068
   52CHL1  H27B 6327   5.296   0.855   8.538  1.3693 -0.3564 -0.7995
   52CHL1  H27C 6328   5.360   0.694   8.510 -1.2536 -1.4666  0.2394
   53CHL1    C3 6329   0.079   0.231  10.169 -0.0018  0.7477 -0.4662
   53CHL1    H3 6330   0.130   0.329  10.166  1.8967 -0.0917  1.9097
   53CHL1    O3 6331   0.033   0.210  10.305 -0.3870  0.1301  0.0738
   53CHL1   H3' 6332  -0.017   0.129  10.293 -2.2422  1.3559 -0.9831
   53CHL1    C4 6333  -0.046   0.231  10.079 -0.0785 -0.1552 -0.2996
   53CHL1   H4A 6334  -0.091   0.130  10.093  1.9177 -1.0223  0.2884
   53CHL1   H4B 6335  -0.128   0.302  10.102 -0.3051 -0.9235  1.4457
   53CHL1    C5 6336  -0.005   0.243   9.940 -0.6060 -0.4305 -0.0848
   53CHL1    C6 6337  -0.049   0.348   9.872 -0.4183  0.2540 -0.1327
   53CHL1    H6 6338  -0.111   0.427   9.916 -0.4069  0.9611 -1.3335
   53CHL1    C7 6339  -0.014   0.367   9.729  0.0044  0.3016  0.6383
   53CHL1   H7A 6340  -0.115   0.379   9.683  1.2245 -0.9996 -2.6613
   53CHL1   H7B 6341   0.056   0.452   9.715 -0.1107  0.3091  0.0835
   53CHL1    C8 6342   0.046   0.237   9.659  0.4435 -0.0096 -0.4220
   53CHL1    H8 6343  -0.030   0.159   9.641 -0.7557  1.5310 -2.3605
   53CHL1   C14 6344   0.097   0.278   9.524  0.1740  0.1571 -0.2604
   53CHL1   H14 6345   0.170   0.360   9.538  1.2362 -0.8703  0.4741
   53CHL1   C15 6346   0.003   0.339   9.424 -0.2102 -0.3325  0.4120
   53CHL1  H15A 6347  -0.103   0.316   9.448 -0.3696  0.3497  0.3977
   53CHL1  H15B 6348   0.017   0.448   9.441  0.3426 -0.5528  1.4413
   53CHL1   C16 6349   0.056   0.296   9.277 -0.4374 -0.3624  0.3088
   53CHL1  H16A 6350  -0.000   0.226   9.212  0.3361 -0.3600 -0.3751
   53CHL1  H16B 6351   0.091   0.382   9.217  2.9413 -0.9274  1.2272
   53CHL1   C17 6352   0.190   0.220   9.306  0.5224  0.6600  0.3679
   53CHL1   H17 6353   0.264   0.301   9.317  2.1823 -0.6574 -0.6067
   53CHL1   C13 6354   0.168   0.164   9.445 -0.2163 -0.3344 -0.5402
   53CHL1   C18 6355   0.070   0.041   9.428  0.2175 -0.9117  1.3685
   53CHL1  H18A 6356   0.130  -0.040   9.381  1.7021  0.4198  0.8770
   53CHL1  H18B 6357   0.023   0.007   9.523 -1.1671  1.6889  1.7324
   53CHL1  H18C 6358  -0.016   0.069   9.363  1.8761  1.0944 -0.1272
   53CHL1   C12 6359   0.298   0.131   9.531  0.2487 -0.0248  0.4670
   53CHL1  H12A 6360   0.349   0.047   9.478  0.3025 -0.2769  0.9149
   53CHL1  H12B 6361   0.378   0.208   9.528  0.8728 -0.6583  0.5449
   53CHL1   C11 6362   0.263   0.088   9.677  0.0577  0.7780  0.5617
   53CHL1  H11A 6363   0.210  -0.009   9.665  0.8501  0.4856 -0.8010
   53CHL1  H11B 6364   0.348   0.076   9.747 -0.0588  0.3125  0.6311
   53CHL1    C9 6365   0.165   0.188   9.743  0.0980  0.1490 -0.3237
   53CHL1    H9 6366   0.221   0.280   9.767 -0.2611  0.2045  0.3321
   53CHL1   C10 6367   0.107   0.152   9.886  0.2203  0.7083 -0.1927
   53CHL1   C19 6368   0.036   0.015   9.874 -0.0381  0.6649  0.1118
   53CHL1  H19A 6369  -0.039   0.021   9.793  1.2638 -1.7846 -1.4227
   53CHL1  H19B 6370   0.113  -0.061   9.846  0.0841  1.5007 -2.0462
   53CHL1  H19C 6371  -0.017  -0.014   9.967  1.0739  0.7392  0.7916
   53CHL1    C1 6372   0.219   0.143   9.977  0.3715 -0.2378 -0.4676
   53CHL1   H1A 6373   0.289   0.060   9.955  1.6537  0.2793  1.4022
   53CHL1   H1B 6374   0.290   0.228   9.963 -0.2277  0.4671  0.6423
   53CHL1    C2 6375   0.184   0.120  10.122  0.3874  0.1815 -0.9455
   53CHL1   H2A 6376   0.282   0.131  10.174 -0.9030  5.1174  1.0441
   53CHL1   H2B 6377   0.135   0.023  10.142 -0.8842  1.1624  0.9724
   53CHL1   C20 6378   0.250   0.144   9.183 -0.2732 -0.0640 -0.2260
   53CHL1   H20 6379   0.170   0.074   9.149 -0.5297 -1.0358  2.2215
   53CHL1   C21 6380   0.375   0.064   9.226 -0.1226  0.3553  1.2440
   53CHL1  H21A 6381   0.344  -0.019   9.294  1.7440 -0.6738  0.8854
   53CHL1  H21B 6382   0.446   0.133   9.276  1.5122 -0.0473 -0.4089
   53CHL1  H21C 6383   0.424   0.021   9.136 -0.2765  1.0134  0.8393
   53CHL1   C22 6384   0.278   0.238   9.060  0.0202 -0.5279  0.0210
   53CHL1  H22A 6385   0.187   0.299   9.041  0.3966  0.3832  1.0181
   53CHL1  H22B 6386   0.367   0.303   9.074  0.4654 -0.6579 -1.9266
   53CHL1   C23 6387   0.317   0.162   8.927  0.0683 -0.4354 -0.2927
   53CHL1  H23A 6388   0.405   0.097   8.941  0.0424 -0.1365  1.5632
   53CHL1  H23B 6389   0.241   0.084   8.903  0.8676 -1.6398  0.9941
   53CHL1   C24 6390   0.352   0.256   8.807  0.2978  0.2716 -0.0968
   53CHL1  H24A 6391   0.261   0.319   8.795 -1.7965 -2.3320  1.0563
   53CHL1  H24B 6392   0.433   0.322   8.843  0.2175 -0.2147  1.0004
   53CHL1   C25 6393   0.404   0.170   8.686 -0.0646 -0.1626  0.6752
   53CHL1   H25 6394   0.474   0.089   8.715 -0.4044 -0.5839  0.3154
   53CHL1   C26 6395   0.293   0.094   8.607 -0.0492  0.4044  0.2877
   53CHL1  H26A 6396   0.341   0.010   8.553  0.6239 -0.2967  1.9164
   53CHL1  H26B 6397   0.216   0.047   8.671  0.4419 -2.2007 -0.9165
   53CHL1  H26C 6398   0.244   0.166   8.538 -3.1033 -0.0957  1.7653
   53CHL1   C27 6399   0.470   0.251   8.582  0.3960 -0.2042  0.0282
   53CHL1  H27A 6400   0.403   0.332   8.546 -1.4759 -1.2208  1.0614
   53CHL1  H27B 6401   0.562   0.301   8.621 -0.1169  1.5603 -0.9133
   53CHL1  H27C 6402   0.509   0.186   8.501 -0.4427  0.6774 -1.1118
   54CHL1    C3 6403   0.193   4.140  10.138 -0.8106 -0.6132 -0.2052
   54CHL1    H3 6404   0.121   4.224  10.131 -2.9860 -2.3292  0.3994
   54CHL1    O3 6405   0.223   4.107  10.273 -0.2881 -0.3901 -0.4064
   54CHL1   H3' 6406   0.294   4.042  10.264 -0.2254 -0.9223  2.8224
   54CHL1    C4 6407   0.124   4.007  10.083 -0.6696 -0.3076 -0.4988
   54CHL1   H4A 6408   0.195   3.924  10.105 -2.0869 -1.5176 -0.4098
   54CHL1   H4B 6409   0.034   3.978  10.141  1.0770 -1.1308  1.9606
   54CHL1    C5 6410   0.111   4.015   9.932 -0.1948 -0.2006 -0.2198
   54CHL1    C6 6411  -0.010   4.003   9.876  0.2105 -0.4608 -0.2568
   54CHL1    H6 6412  -0.100   3.985   9.935 -0.7467  0.9298 -1.2265
   54CHL1    C7 6413  -0.037   4.001   9.724 -0.4875  0.5781 -0.3015
   54CHL1   H7A 6414  -0.086   3.910   9.683  0.5816  0.2667 -0.9291
   54CHL1   H7B 6415  -0.105   4.085   9.697 -1.9922 -0.5258 -0.1199
   54CHL1    C8 6416   0.096   3.995   9.659 -0.4895 -0.0547  0.4062
   54CHL1    H8 6417   0.129   3.889   9.663 -1.7287 -0.4069  2.3139
   54CHL1   C14 6418   0.082   4.018   9.507  0.1708  0.6195 -0.1044
   54CHL1   H14 6419   0.037   4.119   9.493  0.7368  0.6765 -1.6559
   54CHL1   C15 6420  -0.021   3.934   9.423  0.2574  0.5808 -0.2146
   54CHL1  H15A 6421  -0.003   3.824   9.429 -0.7878  0.3896 -0.3297
   54CHL1  H15B 6422  -0.129   3.934   9.450 -0.1536 -1.2033 -1.6267
   54CHL1   C16 6423   0.022   3.959   9.279  0.2153 -0.2718 -0.0506
   54CHL1  H16A 6424   0.047   3.860   9.235  0.8156 -1.1404  2.0750
   54CHL1  H16B 6425  -0.051   4.015   9.218 -1.3611  2.0202  3.5905
   54CHL1   C17 6426   0.152   4.045   9.280 -0.3828 -0.0968 -0.0444
   54CHL1   H17 6427   0.116   4.150   9.285  0.5847  0.2249  0.5302
   54CHL1   C13 6428   0.214   4.027   9.418 -0.0926  0.3667  0.0926
   54CHL1   C18 6429   0.293   3.894   9.423 -0.0549 -0.2795 -0.5050
   54CHL1  H18A 6430   0.288   3.847   9.524  1.6318  0.7467  0.0884
   54CHL1  H18B 6431   0.246   3.816   9.360 -2.3330 -1.0751  1.9920
   54CHL1  H18C 6432   0.395   3.916   9.388  0.0363  0.3289  0.1167
   54CHL1   C12 6433   0.283   4.151   9.475  0.1773 -0.0900 -0.2106
   54CHL1  H12A 6434   0.373   4.183   9.419 -0.7770  0.3432 -1.5306
   54CHL1  H12B 6435   0.204   4.228   9.476 -0.3138 -0.5858  1.1431
   54CHL1   C11 6436   0.331   4.136   9.621 -0.6096 -0.5211 -0.5368
   54CHL1  H11A 6437   0.407   4.055   9.616 -0.2618 -0.1956 -0.5693
   54CHL1  H11B 6438   0.377   4.229   9.661 -0.0715 -1.7309  1.8091
   54CHL1    C9 6439   0.197   4.096   9.709 -0.8684 -0.3776 -0.6480
   54CHL1    H9 6440   0.147   4.195   9.718  1.2577  0.6131  1.5889
   54CHL1   C10 6441   0.234   4.061   9.858  0.5959  0.6017  0.7185
   54CHL1   C19 6442   0.337   3.943   9.846 -0.3539 -0.1186  0.3770
   54CHL1  H19A 6443   0.368   3.893   9.940  1.5625 -1.1297 -0.7363
   54CHL1  H19B 6444   0.285   3.857   9.799  1.5153 -1.8117  1.2493
   54CHL1  H19C 6445   0.431   3.958   9.790  0.1849 -1.5111  0.8782
   54CHL1    C1 6446   0.302   4.181   9.922  0.1363  0.2321  0.0323
   54CHL1   H1A 6447   0.402   4.199   9.877  0.6539  0.1359  1.0936
   54CHL1   H1B 6448   0.250   4.277   9.900  1.1562  1.9201  3.9740
   54CHL1    C2 6449   0.327   4.169  10.069  0.8170 -0.3435 -0.5252
   54CHL1   H2A 6450   0.372   4.262  10.109  1.1178 -0.8870  0.4300
   54CHL1   H2B 6451   0.396   4.083  10.078  1.1566 -0.3148 -2.4618
   54CHL1   C20 6452   0.249   4.023   9.160 -0.4329  0.6550  0.5288
   54CHL1   H20 6453   0.285   3.920   9.180 -0.4763  0.9284  2.1669
   54CHL1   C21 6454   0.356   4.123   9.162 -0.2140 -0.1479  0.3247
   54CHL1  H21A 6455   0.435   4.108   9.085  0.3514 -0.6465  1.0003
   54CHL1  H21B 6456   0.420   4.121   9.252  1.2992  0.2939 -0.7074
   54CHL1  H21C 6457   0.312   4.222   9.134 -0.5272 -0.5692 -0.7177
   54CHL1   C22 6458   0.174   4.036   9.020 -0.2605  1.0096 -0.4487
   54CHL1  H22A 6459   0.105   3.948   9.011  1.2582 -0.0787 -2.1455
   54CHL1  H22B 6460   0.126   4.135   9.007  0.9334  1.5478 -0.8740
   54CHL1   C23 6461   0.266   4.028   8.901  0.1256  0.6800 -0.2118
   54CHL1  H23A 6462   0.312   4.128   8.889  2.8712 -0.6282 -1.7556
   54CHL1  H23B 6463   0.340   3.949   8.927 -1.1418  0.0906  1.7519
   54CHL1   C24 6464   0.200   3.996   8.764 -0.3897  0.4037  0.4348
   54CHL1  H24A 6465   0.169   3.889   8.758 -0.4331  0.2771  2.3037
   54CHL1  H24B 6466   0.106   4.056   8.763 -0.7039 -0.0614 -0.8241
   54CHL1   C25 6467   0.278   4.033   8.633  1.0037  0.0976  0.1654
   54CHL1   H25 6468   0.296   4.141   8.647  0.2138  0.3057 -0.3815
   54CHL1   C26 6469   0.416   3.965   8.630 -0.5801 -0.4292  0.3921
   54CHL1  H26A 6470   0.385   3.859   8.628 -2.5569  0.0570  2.0247
   54CHL1  H26B 6471   0.476   4.006   8.546 -0.2867 -0.7898  0.4237
   54CHL1  H26C 6472   0.476   4.000   8.716 -1.8657  0.6713  0.8823
   54CHL1   C27 6473   0.189   4.013   8.512  1.0014  0.3108 -0.4352
   54CHL1  H27A 6474   0.084   4.048   8.526  0.3815 -1.2796 -0.7685
   54CHL1  H27B 6475   0.219   4.064   8.418  1.9901 -1.6366 -1.2469
   54CHL1  H27C 6476   0.175   3.905   8.487  1.0110  0.5120 -1.3330
   55CHL1    C3 6477   0.925   5.902  10.250  0.4255  0.2299  0.7816
   55CHL1    H3 6478   0.839   5.920  10.182  0.0152 -0.0757  1.2205
   55CHL1    O3 6479   0.902   5.941  10.385 -0.2555  0.0854 -0.3782
   55CHL1   H3' 6480   0.967   5.900  10.443 -0.7629  1.5203  1.3083
   55CHL1    C4 6481   0.956   5.757  10.256 -0.4761 -0.8633  0.6237
   55CHL1   H4A 6482   1.049   5.744  10.316  1.5342  3.7069 -1.0649
   55CHL1   H4B 6483   0.877   5.705  10.314 -0.5161  1.0994  2.4579
   55CHL1    C5 6484   0.981   5.705  10.113  0.9840 -0.3079 -0.8229
   55CHL1    C6 6485   0.907   5.610  10.057 -0.7940 -0.2643  0.4686
   55CHL1    H6 6486   0.831   5.553  10.113  0.9468 -3.0533  0.1384
   55CHL1    C7 6487   0.922   5.557   9.916  0.2935 -0.2537  0.1812
   55CHL1   H7A 6488   0.906   5.448   9.903  0.5802 -0.1468 -1.2686
   55CHL1   H7B 6489   0.839   5.609   9.862 -0.0466 -0.3111  0.6489
   55CHL1    C8 6490   1.063   5.591   9.859 -0.1698  0.3862  0.3546
   55CHL1    H8 6491   1.142   5.535   9.913 -1.2400 -1.0017  0.5219
   55CHL1   C14 6492   1.066   5.563   9.710 -0.0477  0.0803 -0.4851
   55CHL1   H14 6493   0.989   5.629   9.666 -1.8319 -2.1542 -0.9274
   55CHL1   C15 6494   1.037   5.415   9.664 -0.4144 -0.6141  0.1283
   55CHL1  H15A 6495   1.085   5.342   9.734  3.0137 -1.1866 -2.5577
   55CHL1  H15B 6496   0.929   5.398   9.645 -0.4618  0.1699 -0.3163
   55CHL1   C16 6497   1.112   5.403   9.529  0.5469 -0.3092  0.5741
   55CHL1  H16A 6498   1.171   5.309   9.528 -0.1078 -0.7310  0.8108
   55CHL1  H16B 6499   1.031   5.403   9.452  1.3807  2.7930 -0.4324
   55CHL1   C17 6500   1.197   5.533   9.501  0.5157  0.1875  0.1471
   55CHL1   H17 6501   1.127   5.592   9.438  1.4363 -0.7128 -1.7913
   55CHL1   C13 6502   1.199   5.599   9.641  0.1616 -0.6190  0.2458
   55CHL1   C18 6503   1.321   5.535   9.709  0.9567 -0.2250 -0.4025
   55CHL1  H18A 6504   1.306   5.523   9.819 -0.5832 -0.5253 -0.6361
   55CHL1  H18B 6505   1.341   5.434   9.666  2.2558  0.9475 -2.7341
   55CHL1  H18C 6506   1.408   5.603   9.695  0.0286  1.2326  0.6072
   55CHL1   C12 6507   1.210   5.754   9.653  0.2711 -0.1020 -0.1652
   55CHL1  H12A 6508   1.296   5.805   9.606  0.7738 -0.8074 -0.0266
   55CHL1  H12B 6509   1.120   5.809   9.617  1.3510  2.0189  0.2446
   55CHL1   C11 6510   1.197   5.816   9.799 -0.4915  0.4554 -0.1670
   55CHL1  H11A 6511   1.294   5.779   9.838  0.0387  1.5922 -0.3590
   55CHL1  H11B 6512   1.202   5.926   9.788  1.9227  0.2646 -1.7961
   55CHL1    C9 6513   1.089   5.745   9.882 -0.8919  0.9668 -0.1247
   55CHL1    H9 6514   0.994   5.788   9.845 -1.0147 -0.7099 -1.8823
   55CHL1   C10 6515   1.095   5.779  10.035 -0.2275  0.2712  0.6356
   55CHL1   C19 6516   1.232   5.735  10.101  0.4379  0.0275  0.3834
   55CHL1  H19A 6517   1.251   5.627  10.088  0.0380 -0.5444  3.6806
   55CHL1  H19B 6518   1.313   5.790  10.049  1.1848 -1.8189 -0.4923
   55CHL1  H19C 6519   1.233   5.762  10.209  0.3818  2.1253 -0.0989
   55CHL1    C1 6520   1.071   5.936  10.045 -0.7677  0.5465  0.3504
   55CHL1   H1A 6521   1.165   5.980  10.005 -0.6058  1.7618  1.9788
   55CHL1   H1B 6522   0.981   5.958   9.984  0.0156  2.1184 -0.2835
   55CHL1    C2 6523   1.045   5.984  10.188  0.7651  0.1785 -0.1535
   55CHL1   H2A 6524   1.014   6.090  10.189  1.2753  0.3760  2.6122
   55CHL1   H2B 6525   1.139   5.965  10.246  0.9377 -1.0858 -0.8130
   55CHL1   C20 6526   1.327   5.527   9.411 -0.3948 -0.2675 -0.2957
   55CHL1   H20 6527   1.416   5.485   9.461 -1.1603 -0.3884  0.9928
   55CHL1   C21 6528   1.372   5.663   9.364 -0.6029  0.3166 -0.9583
   55CHL1  H21A 6529   1.463   5.660   9.301 -0.1040 -0.6844 -0.2251
   55CHL1  H21B 6530   1.409   5.709   9.458 -0.2609  0.7044 -1.2797
   55CHL1  H21C 6531   1.293   5.723   9.315 -0.5190  0.6208 -0.7239
   55CHL1   C22 6532   1.301   5.435   9.288 -0.1025  0.1423 -0.1760
   55CHL1  H22A 6533   1.308   5.333   9.332  3.2758 -1.1927 -3.2811
   55CHL1  H22B 6534   1.198   5.452   9.249  0.0670  1.0121 -0.2621
   55CHL1   C23 6535   1.403   5.448   9.170  0.3190 -0.3004 -0.5780
   55CHL1  H23A 6536   1.398   5.546   9.119  1.7255  0.3781  0.5210
   55CHL1  H23B 6537   1.508   5.441   9.204  0.3772 -2.0353 -1.0344
   55CHL1   C24 6538   1.366   5.338   9.067  0.4368 -0.0640 -0.3537
   55CHL1  H24A 6539   1.392   5.241   9.115  3.4267 -0.2192 -2.0339
   55CHL1  H24B 6540   1.256   5.351   9.064  0.0980 -0.3861  3.9309
   55CHL1   C25 6541   1.435   5.341   8.926 -0.3578 -0.3907 -0.1875
   55CHL1   H25 6542   1.408   5.248   8.871  1.9944  0.3144 -2.7591
   55CHL1   C26 6543   1.395   5.455   8.823  0.0452  0.1555  0.2647
   55CHL1  H26A 6544   1.442   5.433   8.724  1.2159  1.2101  0.5578
   55CHL1  H26B 6545   1.285   5.466   8.815 -0.2259 -1.3883  1.4432
   55CHL1  H26C 6546   1.439   5.550   8.858  0.1701 -0.8004  2.9088
   55CHL1   C27 6547   1.585   5.346   8.935 -0.7870  0.9279  0.0631
   55CHL1  H27A 6548   1.638   5.310   8.844  0.4902  0.9615  0.7618
   55CHL1  H27B 6549   1.623   5.445   8.971 -1.7857  1.5511 -0.5426
   55CHL1  H27C 6550   1.621   5.271   9.008 -1.2091  0.1492 -0.5236
   56CHL1    C3 6551   3.506   3.348  10.287  1.1070 -0.1942 -0.1998
   56CHL1    H3 6552   3.614   3.331  10.304  1.4140  0.3878 -1.5223
   56CHL1    O3 6553   3.459   3.380  10.425  0.0350 -0.2026  0.0697
   56CHL1   H3' 6554   3.368   3.409  10.412  0.9854  2.3153 -1.9384
   56CHL1    C4 6555   3.484   3.476  10.200  0.6817  0.1703  0.3263
   56CHL1   H4A 6556   3.387   3.521  10.229  1.4107  1.5548  0.6851
   56CHL1   H4B 6557   3.557   3.558  10.217 -1.4391  2.4224 -0.7052
   56CHL1    C5 6558   3.502   3.446  10.051 -0.2168  0.0104 -0.1236
   56CHL1    C6 6559   3.589   3.520   9.980 -0.0760  0.7603  0.2551
   56CHL1    H6 6560   3.656   3.592  10.030 -0.8854  0.7157  1.4496
   56CHL1    C7 6561   3.604   3.496   9.832  0.3339 -0.1038  0.5159
   56CHL1   H7A 6562   3.606   3.595   9.782 -3.5084 -0.5136 -0.7585
   56CHL1   H7B 6563   3.706   3.452   9.820  0.8376  1.3560 -1.0436
   56CHL1    C8 6564   3.495   3.417   9.766 -0.1258 -0.5621  0.8822
   56CHL1    H8 6565   3.416   3.494   9.756  0.3055 -0.3375 -1.6872
   56CHL1   C14 6566   3.541   3.366   9.632  0.5259  0.4199  0.6003
   56CHL1   H14 6567   3.604   3.278   9.657  1.3965  0.8599 -0.0107
   56CHL1   C15 6568   3.629   3.442   9.535  0.3162 -0.2779  0.4524
   56CHL1  H15A 6569   3.603   3.550   9.546 -0.9517 -0.7122  1.9698
   56CHL1  H15B 6570   3.735   3.428   9.567  0.1773  1.4070  1.8086
   56CHL1   C16 6571   3.602   3.389   9.395 -0.4926  0.3606 -0.4482
   56CHL1  H16A 6572   3.566   3.477   9.337  0.9644  1.7387  0.6201
   56CHL1  H16B 6573   3.698   3.365   9.344  0.7844  0.4371  1.7553
   56CHL1   C17 6574   3.507   3.272   9.417  0.2241 -0.1131 -0.8963
   56CHL1   H17 6575   3.574   3.187   9.442 -0.1279 -0.6482 -1.7157
   56CHL1   C13 6576   3.427   3.315   9.546 -0.4070  0.7285 -0.5344
   56CHL1   C18 6577   3.324   3.419   9.498  0.0235 -0.0029 -0.8437
   56CHL1  H18A 6578   3.372   3.511   9.460  0.1251  0.3408  0.0795
   56CHL1  H18B 6579   3.266   3.380   9.412 -0.8864 -0.4581 -0.0441
   56CHL1  H18C 6580   3.259   3.454   9.581  1.3316  2.6923 -0.8591
   56CHL1   C12 6581   3.365   3.193   9.624 -0.8914  0.7801 -0.3501
   56CHL1  H12A 6582   3.281   3.152   9.563 -0.0716 -0.2465 -0.8198
   56CHL1  H12B 6583   3.443   3.114   9.620 -0.9031  0.8111 -2.6703
   56CHL1   C11 6584   3.326   3.223   9.766 -0.2015  0.3324  0.2941
   56CHL1  H11A 6585   3.239   3.292   9.758  0.0875  0.5109 -1.9288
   56CHL1  H11B 6586   3.303   3.125   9.813 -1.0492 -0.9300 -2.5363
   56CHL1    C9 6587   3.448   3.304   9.843  0.3166  0.0818  0.7276
   56CHL1    H9 6588   3.524   3.224   9.840 -0.3011 -0.4955 -0.6650
   56CHL1   C10 6589   3.415   3.335   9.995 -0.2500 -0.6477 -0.3650
   56CHL1   C19 6590   3.270   3.387  10.006  0.8956 -0.2609 -0.0424
   56CHL1  H19A 6591   3.239   3.419  10.108 -0.6846  0.0118 -0.5775
   56CHL1  H19B 6592   3.251   3.478   9.945 -2.7925  0.2432  1.6055
   56CHL1  H19C 6593   3.196   3.310   9.977 -1.4052  0.6163  2.9822
   56CHL1    C1 6594   3.441   3.209  10.084  0.9860 -0.2364 -0.2494
   56CHL1   H1A 6595   3.375   3.128  10.048 -0.7811 -0.2463  2.6520
   56CHL1   H1B 6596   3.548   3.184  10.069  1.5098  1.4871  0.3276
   56CHL1    C2 6597   3.423   3.227  10.240  0.0449 -0.2591  1.0579
   56CHL1   H2A 6598   3.456   3.142  10.304  0.0838 -0.7889  0.3484
   56CHL1   H2B 6599   3.314   3.246  10.250  0.2296  1.9635 -0.5376
   56CHL1   C20 6600   3.430   3.235   9.285  0.3775  0.0564  0.1595
   56CHL1   H20 6601   3.326   3.212   9.316  0.7497 -0.7280  0.8731
   56CHL1   C21 6602   3.496   3.100   9.232  0.0475 -0.4991 -0.2532
   56CHL1  H21A 6603   3.487   3.034   9.321 -1.4893  0.0522  0.0383
   56CHL1  H21B 6604   3.603   3.121   9.213  0.4723 -0.5187  1.8306
   56CHL1  H21C 6605   3.448   3.061   9.139 -0.4457 -0.9925  0.1984
   56CHL1   C22 6606   3.416   3.347   9.183 -0.3499 -0.0879  0.2486
   56CHL1  H22A 6607   3.390   3.441   9.237  0.1695 -0.6428  1.5178
   56CHL1  H22B 6608   3.518   3.362   9.142  0.1835 -0.2148  1.4774
   56CHL1   C23 6609   3.300   3.319   9.084 -1.0237  0.3965 -0.4356
   56CHL1  H23A 6610   3.300   3.215   9.046 -3.7800 -0.0693  0.6474
   56CHL1  H23B 6611   3.202   3.322   9.136 -0.4210  1.0489  0.7041
   56CHL1   C24 6612   3.296   3.410   8.963  0.4611  0.1598  0.3389
   56CHL1  H24A 6613   3.397   3.417   8.917  0.8097 -2.2448  0.6403
   56CHL1  H24B 6614   3.222   3.365   8.894 -1.9271  2.8652  0.9709
   56CHL1   C25 6615   3.236   3.553   8.983 -0.1396 -0.7484 -0.0225
   56CHL1   H25 6616   3.296   3.594   9.066 -0.0036 -2.5916  0.8448
   56CHL1   C26 6617   3.260   3.639   8.859 -0.1576  0.4133  0.5980
   56CHL1  H26A 6618   3.227   3.597   8.762  1.3425  3.5511 -1.4484
   56CHL1  H26B 6619   3.223   3.744   8.866  1.6126  1.1870 -0.7381
   56CHL1  H26C 6620   3.369   3.663   8.850 -0.6309  2.5221 -0.1165
   56CHL1   C27 6621   3.087   3.548   9.004  0.0622 -0.4008 -0.3295
   56CHL1  H27A 6622   3.053   3.652   9.025  2.8793  0.4520  0.5794
   56CHL1  H27B 6623   3.039   3.515   8.910  0.1107 -3.4083  0.6094
   56CHL1  H27C 6624   3.078   3.480   9.091  2.0270 -0.0700  0.1880
   57CHL1    C3 6625   0.948   1.715  10.226  0.6741 -0.5368  0.1312
   57CHL1    H3 6626   0.979   1.819  10.201  2.0325  0.0326  3.6053
   57CHL1    O3 6627   0.891   1.714  10.355 -0.2686 -0.2577 -0.0487
   57CHL1   H3' 6628   0.809   1.763  10.341  0.4647  0.3206 -2.8672
   57CHL1    C4 6629   0.838   1.669  10.127 -0.2309  0.4367 -0.3055
   57CHL1   H4A 6630   0.790   1.578  10.169 -0.1814  0.5199 -0.0628
   57CHL1   H4B 6631   0.754   1.741  10.132 -1.5490 -1.0976  0.8712
   57CHL1    C5 6632   0.888   1.652   9.988  0.8275  0.2677  0.2370
   57CHL1    C6 6633   0.826   1.718   9.890 -0.0462  0.5781  0.3186
   57CHL1    H6 6634   0.745   1.780   9.931 -2.0183 -2.1038  0.7549
   57CHL1    C7 6635   0.860   1.710   9.740  0.8487 -0.3384 -0.3928
   57CHL1   H7A 6636   0.776   1.681   9.673  2.1424 -1.4106 -1.5986
   57CHL1   H7B 6637   0.911   1.804   9.711  3.4371 -0.9699  1.7261
   57CHL1    C8 6638   0.949   1.585   9.719 -0.2931 -0.4647 -0.8833
   57CHL1    H8 6639   0.892   1.490   9.730 -1.2160  0.1444 -0.3167
   57CHL1   C14 6640   0.998   1.585   9.577 -0.2932  0.2304 -0.0767
   57CHL1   H14 6641   1.045   1.686   9.580 -2.1169  1.1875  4.3798
   57CHL1   C15 6642   0.897   1.589   9.453  0.1079 -0.5020 -0.0801
   57CHL1  H15A 6643   0.818   1.512   9.461 -0.1848 -0.1443  0.4568
   57CHL1  H15B 6644   0.856   1.693   9.449  0.4575 -0.3854 -0.8817
   57CHL1   C16 6645   0.994   1.556   9.336 -0.6065 -0.3875  0.3441
   57CHL1  H16A 6646   0.940   1.491   9.264 -3.2300  1.3123  0.6463
   57CHL1  H16B 6647   1.020   1.649   9.280  3.1760 -0.7260  1.2594
   57CHL1   C17 6648   1.131   1.511   9.395 -0.6649  0.5337  0.2205
   57CHL1   H17 6649   1.186   1.606   9.406 -0.4341  0.4492 -0.1866
   57CHL1   C13 6650   1.094   1.468   9.538  0.1778  0.2711 -0.7335
   57CHL1   C18 6651   1.018   1.339   9.538  0.3141  1.2676  0.1196
   57CHL1  H18A 6652   0.931   1.336   9.607  0.6230  1.8672  0.5454
   57CHL1  H18B 6653   0.988   1.312   9.435  0.7678 -0.0024  0.3003
   57CHL1  H18C 6654   1.090   1.261   9.571  0.1864  2.0572  2.4381
   57CHL1   C12 6655   1.213   1.473   9.637 -0.1927  0.3092 -0.4155
   57CHL1  H12A 6656   1.288   1.397   9.603 -0.7569  0.2052 -1.4753
   57CHL1  H12B 6657   1.259   1.573   9.623 -0.8385  0.3956 -2.2832
   57CHL1   C11 6658   1.165   1.457   9.784  0.7833 -0.2243 -0.5706
   57CHL1  H11A 6659   1.127   1.355   9.806 -0.7339  0.5836  0.7328
   57CHL1  H11B 6660   1.249   1.471   9.855 -0.1838  0.4264  0.4921
   57CHL1    C9 6661   1.061   1.568   9.822  0.3964  0.6455  0.7031
   57CHL1    H9 6662   1.121   1.661   9.813 -0.2809  1.1287  1.1169
   57CHL1   C10 6663   1.011   1.563   9.967  0.2167  0.2638  0.1978
   57CHL1   C19 6664   0.970   1.413   9.994  0.2023 -0.0924 -0.4475
   57CHL1  H19A 6665   1.063   1.354  10.000  1.2167  1.5625  2.2973
   57CHL1  H19B 6666   0.934   1.410  10.099  0.7314 -0.7059 -0.2795
   57CHL1  H19C 6667   0.890   1.382   9.924 -1.7721  3.8501 -0.2588
   57CHL1    C1 6668   1.114   1.616  10.066  0.3855  0.6443 -0.1285
   57CHL1   H1A 6669   1.199   1.547  10.048 -0.0308  0.0834  0.0015
   57CHL1   H1B 6670   1.144   1.719  10.037 -1.1231  0.5795 -2.1357
   57CHL1    C2 6671   1.070   1.623  10.217 -0.0496 -0.5829  0.0243
   57CHL1   H2A 6672   1.154   1.668  10.274 -0.3842  0.6720 -0.4554
   57CHL1   H2B 6673   1.044   1.523  10.258  0.3211 -0.8149 -0.3012
   57CHL1   C20 6674   1.221   1.425   9.301 -0.0554  0.1214 -0.4320
   57CHL1   H20 6675   1.208   1.318   9.329 -0.3060  0.3957  0.5257
   57CHL1   C21 6676   1.368   1.456   9.320  0.2741 -0.0678  0.4501
   57CHL1  H21A 6677   1.387   1.546   9.257  0.1866 -1.6318 -1.9407
   57CHL1  H21B 6678   1.442   1.376   9.299  0.7302  0.6339 -0.7258
   57CHL1  H21C 6679   1.384   1.472   9.429 -0.1904 -0.8132  0.6301
   57CHL1   C22 6680   1.182   1.434   9.147  0.4924  0.1436  0.8920
   57CHL1  H22A 6681   1.081   1.393   9.128  1.5221 -1.0621 -2.6679
   57CHL1  H22B 6682   1.176   1.543   9.122  0.4709 -0.0834 -0.1282
   57CHL1   C23 6683   1.265   1.352   9.043  0.4962  0.1478  0.2315
   57CHL1  H23A 6684   1.367   1.391   9.022  0.6197 -0.4381 -0.2789
   57CHL1  H23B 6685   1.263   1.249   9.083 -1.9027 -0.2033 -0.6581
   57CHL1   C24 6686   1.201   1.346   8.903  0.7842 -0.1581  1.0683
   57CHL1  H24A 6687   1.098   1.306   8.914  0.7643 -0.3422  0.2608
   57CHL1  H24B 6688   1.198   1.453   8.876  1.4195 -0.0775  1.3127
   57CHL1   C25 6689   1.286   1.267   8.804 -0.4718 -0.2807  0.5119
   57CHL1   H25 6690   1.392   1.294   8.818 -0.1013 -0.3216 -1.7365
   57CHL1   C26 6691   1.256   1.120   8.836 -0.5349 -0.9033 -0.2543
   57CHL1  H26A 6692   1.150   1.089   8.835 -0.8152 -0.0209 -2.5994
   57CHL1  H26B 6693   1.314   1.048   8.775  1.9947  1.5268 -0.9216
   57CHL1  H26C 6694   1.298   1.100   8.937 -3.8148 -0.4006  1.3535
   57CHL1   C27 6695   1.242   1.305   8.657  0.7286  0.0733  0.2377
   57CHL1  H27A 6696   1.131   1.300   8.659  0.7287  0.4071  1.2719
   57CHL1  H27B 6697   1.270   1.409   8.631 -0.5609  0.1277 -1.0715
   57CHL1  H27C 6698   1.274   1.224   8.587  1.4999 -2.8916  3.7427
   58CHL1    C3 6699   4.395   6.495  10.020  0.2511  0.5762 -0.2254
   58CHL1    H3 6700   4.352   6.596  10.039  0.9740  0.8552 -0.0312
   58CHL1    O3 6701   4.451   6.461  10.145 -0.5497 -0.1263 -0.0982
   58CHL1   H3' 6702   4.375   6.474  10.201 -1.3210  1.6815 -1.4365
   58CHL1    C4 6703   4.293   6.388   9.983  0.0818  0.7327 -0.2516
   58CHL1   H4A 6704   4.336   6.287   9.971 -2.7244 -0.5740 -0.0419
   58CHL1   H4B 6705   4.213   6.389  10.060  2.4919 -0.3482  2.4542
   58CHL1    C5 6706   4.238   6.425   9.846  0.2767  0.3118  1.5802
   58CHL1    C6 6707   4.107   6.434   9.823  0.5165 -0.0358 -0.4508
   58CHL1    H6 6708   4.038   6.417   9.907  1.8052 -2.3409  0.2186
   58CHL1    C7 6709   4.054   6.456   9.681 -0.0771 -0.0689 -1.2445
   58CHL1   H7A 6710   3.967   6.386   9.672 -0.7531  0.4149  0.8878
   58CHL1   H7B 6711   4.026   6.563   9.675  1.2117  0.7002  3.1347
   58CHL1    C8 6712   4.154   6.437   9.567  0.0204 -0.1182  0.3377
   58CHL1    H8 6713   4.167   6.328   9.554 -2.2819 -0.8962  3.3261
   58CHL1   C14 6714   4.097   6.508   9.439  0.5346  0.3765 -0.0132
   58CHL1   H14 6715   4.092   6.616   9.464 -0.7147  0.3309  0.0203
   58CHL1   C15 6716   3.954   6.470   9.397 -0.2717 -0.8302  0.4626
   58CHL1  H15A 6717   3.926   6.363   9.403  0.3393 -1.0020  0.3839
   58CHL1  H15B 6718   3.869   6.520   9.447  1.5555  2.3071  0.7294
   58CHL1   C16 6719   3.961   6.511   9.247 -0.0403  0.0794  0.1387
   58CHL1  H16A 6720   3.938   6.421   9.186 -0.0682 -0.5885  1.1207
   58CHL1  H16B 6721   3.897   6.601   9.237  1.8662  1.6533  1.4009
   58CHL1   C17 6722   4.105   6.556   9.220 -0.2980  0.0158  0.1448
   58CHL1   H17 6723   4.104   6.665   9.239 -1.2284  0.0912 -0.2965
   58CHL1   C13 6724   4.192   6.479   9.320  0.4804 -0.2462 -0.0981
   58CHL1   C18 6725   4.205   6.327   9.286 -1.0806  0.1668  0.4741
   58CHL1  H18A 6726   4.274   6.275   9.355 -1.6563 -1.8554 -0.4149
   58CHL1  H18B 6727   4.104   6.281   9.285 -0.9590 -0.1785  2.1332
   58CHL1  H18C 6728   4.260   6.323   9.189 -3.4070 -0.4919 -0.8853
   58CHL1   C12 6729   4.322   6.548   9.356  0.1041  0.6774  0.1143
   58CHL1  H12A 6730   4.401   6.542   9.278  0.2632 -0.1745  0.3319
   58CHL1  H12B 6731   4.310   6.659   9.359  1.3407  0.8638 -0.9333
   58CHL1   C11 6732   4.384   6.487   9.472 -0.3306  0.0361 -0.3891
   58CHL1  H11A 6733   4.436   6.392   9.449  2.3743  1.3527 -0.1177
   58CHL1  H11B 6734   4.473   6.552   9.488  0.0051 -0.7596  1.1526
   58CHL1    C9 6735   4.295   6.489   9.600  0.2590 -0.0338 -0.4412
   58CHL1    H9 6736   4.281   6.599   9.612 -0.4943 -0.2775  1.1304
   58CHL1   C10 6737   4.349   6.434   9.731  0.6476  0.4307  0.3738
   58CHL1   C19 6738   4.410   6.292   9.707  0.0321  0.2206 -0.4384
   58CHL1  H19A 6739   4.479   6.293   9.619  0.9901  0.8072  0.2975
   58CHL1  H19B 6740   4.466   6.255   9.796 -1.3183 -0.1557  0.2716
   58CHL1  H19C 6741   4.324   6.232   9.671  1.0330 -1.0304 -0.8287
   58CHL1    C1 6742   4.465   6.528   9.779  0.1273 -0.5478  0.4990
   58CHL1   H1A 6743   4.547   6.541   9.704 -0.7208  1.8876 -0.1036
   58CHL1   H1B 6744   4.422   6.631   9.777  0.1863 -0.4868  1.6804
   58CHL1    C2 6745   4.514   6.500   9.924  0.2861  0.1512 -0.5616
   58CHL1   H2A 6746   4.588   6.574   9.962 -0.5956 -0.5488  2.8453
   58CHL1   H2B 6747   4.556   6.397   9.935  1.2981  0.6645  0.5646
   58CHL1   C20 6748   4.135   6.544   9.063 -0.0090 -0.5183 -0.4216
   58CHL1   H20 6749   4.120   6.439   9.031 -2.1062 -0.5158  0.4124
   58CHL1   C21 6750   4.275   6.590   9.036 -0.4560  0.8597 -0.1024
   58CHL1  H21A 6751   4.300   6.591   8.928  0.8260 -2.0219  0.0950
   58CHL1  H21B 6752   4.347   6.515   9.074 -0.2390 -0.2405 -2.4805
   58CHL1  H21C 6753   4.293   6.695   9.069 -2.1242  0.9227  0.7503
   58CHL1   C22 6754   4.033   6.629   8.974 -0.2196  0.1756 -0.1931
   58CHL1  H22A 6755   3.938   6.605   9.027 -1.2097  0.6757 -1.7057
   58CHL1  H22B 6756   4.059   6.737   8.977  1.9889 -0.2009 -2.3724
   58CHL1   C23 6757   4.031   6.581   8.827  1.2953 -0.1940  0.3680
   58CHL1  H23A 6758   4.132   6.576   8.780  0.5264 -2.5370 -1.2516
   58CHL1  H23B 6759   3.999   6.475   8.815  0.3947 -0.1785  2.3287
   58CHL1   C24 6760   3.941   6.674   8.746 -0.0108  0.4617  0.2713
   58CHL1  H24A 6761   3.840   6.699   8.785 -0.0822  1.3022 -0.4183
   58CHL1  H24B 6762   3.991   6.772   8.735  0.8057  0.1674  1.3178
   58CHL1   C25 6763   3.912   6.620   8.605 -0.2827 -0.4600 -0.6414
   58CHL1   H25 6764   3.848   6.696   8.556  0.2330  0.5833  0.2641
   58CHL1   C26 6765   4.042   6.594   8.518  0.0488  0.0701  0.1797
   58CHL1  H26A 6766   4.099   6.512   8.567 -0.3316 -1.5245 -1.8842
   58CHL1  H26B 6767   4.019   6.569   8.412  0.4223 -1.2414  0.3800
   58CHL1  H26C 6768   4.105   6.685   8.518 -1.1287  0.9245  1.3248
   58CHL1   C27 6769   3.828   6.488   8.607  0.6463  0.1918 -0.2352
   58CHL1  H27A 6770   3.796   6.467   8.503  0.1964 -0.6865  0.0672
   58CHL1  H27B 6771   3.877   6.397   8.648  1.0182  0.5976  0.2253
   58CHL1  H27C 6772   3.733   6.490   8.665  0.9998 -2.1421  0.5371
   59CHL1    C3 6773   3.850   4.825  10.524  0.0938  0.1467  0.5652
   59CHL1    H3 6774   3.823   4.932  10.519 -2.1433 -0.3561  0.6589
   59CHL1    O3 6775   3.846   4.801  10.666  0.3001 -0.8272  0.1581
   59CHL1   H3' 6776   3.848   4.707  10.684  0.1637 -0.8211  0.2067
   59CHL1    C4 6777   3.751   4.744  10.439  0.5416 -1.1275 -0.2751
   59CHL1   H4A 6778   3.781   4.638  10.451 -0.1942 -1.4055 -0.7627
   59CHL1   H4B 6779   3.652   4.752  10.490  0.0321  0.1812 -1.3967
   59CHL1    C5 6780   3.740   4.776  10.289 -0.1275  0.1294 -0.1788
   59CHL1    C6 6781   3.623   4.808  10.236 -0.6668  0.1988 -0.8314
   59CHL1    H6 6782   3.535   4.792  10.299  1.0322 -4.2408  0.8191
   59CHL1    C7 6783   3.609   4.836  10.090 -0.0206 -0.5427  0.0098
   59CHL1   H7A 6784   3.526   4.777  10.047  1.3512 -0.4093 -3.0907
   59CHL1   H7B 6785   3.572   4.939  10.071 -0.7353 -0.8122 -0.0751
   59CHL1    C8 6786   3.741   4.808  10.013 -0.4253 -0.3967 -0.3188
   59CHL1    H8 6787   3.748   4.698  10.002 -0.3268 -0.5787  1.2999
   59CHL1   C14 6788   3.730   4.872   9.879 -0.1996  0.3090 -0.2532
   59CHL1   H14 6789   3.730   4.982   9.893 -1.0734  0.3262 -0.3264
   59CHL1   C15 6790   3.596   4.854   9.801 -0.4488 -0.5293  0.3869
   59CHL1  H15A 6791   3.580   4.745   9.799  1.4663 -0.8535 -1.7075
   59CHL1  H15B 6792   3.510   4.913   9.838  1.0307  2.4926 -0.6476
   59CHL1   C16 6793   3.639   4.898   9.658 -0.2351 -0.0809  0.5348
   59CHL1  H16A 6794   3.616   4.817   9.586  1.3321 -0.7844  0.7978
   59CHL1  H16B 6795   3.573   4.982   9.627  1.8882  1.8300  0.9063
   59CHL1   C17 6796   3.794   4.921   9.651 -0.4124  0.3086  0.3590
   59CHL1   H17 6797   3.809   5.029   9.671 -0.5528  0.5452 -0.7296
   59CHL1   C13 6798   3.843   4.845   9.778 -0.4263  0.7436 -0.2329
   59CHL1   C18 6799   3.859   4.701   9.746  0.0600  0.1200  0.7789
   59CHL1  H18A 6800   3.941   4.674   9.676  0.7979  1.6213  1.0255
   59CHL1  H18B 6801   3.871   4.644   9.840  0.8443  0.6907  1.0348
   59CHL1  H18C 6802   3.758   4.672   9.709 -0.9011  2.7634  1.1457
   59CHL1   C12 6803   3.968   4.904   9.853  0.4062 -0.5174  0.0795
   59CHL1  H12A 6804   4.068   4.891   9.805 -0.0543  0.8172 -1.3534
   59CHL1  H12B 6805   3.953   5.014   9.864 -1.0435 -0.7228  0.3417
   59CHL1   C11 6806   3.990   4.843   9.988  0.6888 -0.0246 -0.5035
   59CHL1  H11A 6807   4.011   4.734   9.977 -2.1024 -1.0596  2.7495
   59CHL1  H11B 6808   4.067   4.896  10.049 -0.5916  0.6749  0.5443
   59CHL1    C9 6809   3.865   4.854  10.084  0.6075 -0.2890 -0.3404
   59CHL1    H9 6810   3.855   4.964  10.099  0.8363  0.0792 -2.4887
   59CHL1   C10 6811   3.879   4.783  10.219 -0.1311 -0.2433 -0.2012
   59CHL1   C19 6812   3.939   4.642  10.193  0.6557  0.2895  0.2534
   59CHL1  H19A 6813   3.878   4.584  10.121  0.3638  0.7163  0.1508
   59CHL1  H19B 6814   4.042   4.656  10.154  0.9289  0.4597  1.0221
   59CHL1  H19C 6815   3.936   4.589  10.291 -0.5417 -0.4776 -0.1818
   59CHL1    C1 6816   3.983   4.858  10.315 -0.0838 -0.2905  0.6075
   59CHL1   H1A 6817   4.081   4.841  10.267 -0.7420 -2.6288 -0.0089
   59CHL1   H1B 6818   3.961   4.967  10.318  0.1640 -0.2589  1.8576
   59CHL1    C2 6819   3.987   4.809  10.463  0.1494 -0.3459 -0.0961
   59CHL1   H2A 6820   4.055   4.887  10.504 -0.4245  1.6997 -2.7205
   59CHL1   H2B 6821   4.029   4.707  10.471  2.4614  0.5388 -0.0250
   59CHL1   C20 6822   3.859   4.884   9.515  0.1960 -0.6692 -0.0493
   59CHL1   H20 6823   3.854   4.775   9.496  0.6667 -0.8170  0.5924
   59CHL1   C21 6824   4.016   4.915   9.519  0.2300 -0.5778 -0.8988
   59CHL1  H21A 6825   4.028   5.022   9.546  1.6738 -0.9271 -0.0775
   59CHL1  H21B 6826   4.069   4.891   9.424  0.9891 -0.2405 -0.5701
   59CHL1  H21C 6827   4.067   4.860   9.601 -0.4591  0.5586  0.3306
   59CHL1   C22 6828   3.801   4.954   9.392 -0.0640  0.1304  0.0284
   59CHL1  H22A 6829   3.691   4.962   9.407 -0.0843  0.8132 -0.4554
   59CHL1  H22B 6830   3.848   5.055   9.390  1.4761 -0.5646 -0.8092
   59CHL1   C23 6831   3.839   4.878   9.263 -0.2530  0.4912 -0.4688
   59CHL1  H23A 6832   3.949   4.890   9.251 -0.3891  2.9405  0.3848
   59CHL1  H23B 6833   3.812   4.773   9.287 -2.0701  0.5778 -1.8409
   59CHL1   C24 6834   3.755   4.909   9.139 -0.2530  0.1650 -0.2431
   59CHL1  H24A 6835   3.646   4.908   9.164  0.0817  0.3286  1.3761
   59CHL1  H24B 6836   3.777   5.012   9.104 -0.7192  0.1083 -0.7268
   59CHL1   C25 6837   3.797   4.812   9.027 -0.3146 -0.0987  0.1551
   59CHL1   H25 6838   3.808   4.710   9.069 -0.7650  0.6500  2.2143
   59CHL1   C26 6839   3.690   4.793   8.916  0.0385 -0.1435  0.2928
   59CHL1  H26A 6840   3.663   4.887   8.864  2.0943  0.0995 -0.4051
   59CHL1  H26B 6841   3.727   4.724   8.838 -0.7917 -1.7891  1.2867
   59CHL1  H26C 6842   3.595   4.739   8.936 -1.2759  0.8701 -2.7110
   59CHL1   C27 6843   3.933   4.856   8.965  0.2968 -0.2803 -0.8537
   59CHL1  H27A 6844   4.005   4.893   9.041  0.5612 -2.4949  0.0438
   59CHL1  H27B 6845   3.983   4.774   8.910 -0.9186 -1.1009 -0.7743
   59CHL1  H27C 6846   3.916   4.939   8.893 -1.3063  1.5251  1.4231
   60CHL1    C3 6847   0.376   2.961  10.234  0.5474 -0.1487 -0.2608
   60CHL1    H3 6848   0.456   2.889  10.259  3.0207  1.3233 -3.1763
   60CHL1    O3 6849   0.305   2.992  10.356  0.5000  0.8553 -0.2270
   60CHL1   H3' 6850   0.271   3.080  10.342  0.7541  1.0055  0.0861
   60CHL1    C4 6851   0.421   3.096  10.175  0.0434 -0.6362  0.3878
   60CHL1   H4A 6852   0.338   3.170  10.170 -0.3898 -1.1321  0.2288
   60CHL1   H4B 6853   0.499   3.131  10.246  0.9818  0.1303 -0.9863
   60CHL1    C5 6854   0.475   3.088  10.029  0.3818  0.3062 -0.1397
   60CHL1    C6 6855   0.596   3.140  10.007 -0.2093  0.1441  0.5320
   60CHL1    H6 6856   0.644   3.191  10.092 -1.8440  1.2747  0.8280
   60CHL1    C7 6857   0.676   3.129   9.878 -0.1083 -0.1625  0.3876
   60CHL1   H7A 6858   0.721   3.227   9.854  0.3915 -0.7032 -0.9956
   60CHL1   H7B 6859   0.748   3.044   9.881 -2.5117 -2.3378  0.4192
   60CHL1    C8 6860   0.578   3.084   9.763 -0.6644 -0.3907  0.1865
   60CHL1    H8 6861   0.516   3.173   9.741  0.5109  0.7634  1.3780
   60CHL1   C14 6862   0.659   3.052   9.636  0.4961  0.3796 -0.5914
   60CHL1   H14 6863   0.732   2.970   9.655 -0.1319  0.0125  0.3302
   60CHL1   C15 6864   0.753   3.166   9.578 -0.3415 -0.6205  0.7523
   60CHL1  H15A 6865   0.680   3.249   9.571 -0.4974 -0.7721  0.5773
   60CHL1  H15B 6866   0.845   3.188   9.636  0.6986 -2.0448 -0.2803
   60CHL1   C16 6867   0.791   3.123   9.433  0.4823  0.3877  0.2482
   60CHL1  H16A 6868   0.753   3.204   9.367  1.9712  2.8422  2.2229
   60CHL1  H16B 6869   0.897   3.093   9.422  0.5525  0.6999  0.0447
   60CHL1   C17 6870   0.696   2.992   9.411 -0.0743  0.6365  0.3716
   60CHL1   H17 6871   0.743   2.893   9.430  1.7900  0.9548 -2.0997
   60CHL1   C13 6872   0.581   3.006   9.514 -0.1811  0.5156  0.6263
   60CHL1   C18 6873   0.477   3.111   9.458 -0.4702  0.3084  0.4502
   60CHL1  H18A 6874   0.541   3.194   9.421  0.3417 -0.1255  0.8605
   60CHL1  H18B 6875   0.412   3.063   9.381  0.3564  1.6678 -1.1675
   60CHL1  H18C 6876   0.419   3.154   9.542 -1.4336 -1.2709  0.6481
   60CHL1   C12 6877   0.517   2.870   9.564 -0.2889  0.4565  0.0027
   60CHL1  H12A 6878   0.459   2.822   9.482 -0.1453  1.6889 -0.8531
   60CHL1  H12B 6879   0.599   2.798   9.585  0.2180  0.9129 -0.3908
   60CHL1   C11 6880   0.427   2.895   9.683 -0.3754  0.2385 -0.1604
   60CHL1  H11A 6881   0.358   2.975   9.648  0.2906  0.8416 -0.1069
   60CHL1  H11B 6882   0.367   2.806   9.713  1.0271 -0.9769 -0.8646
   60CHL1    C9 6883   0.497   2.960   9.807  0.6092  0.8736  0.1244
   60CHL1    H9 6884   0.578   2.898   9.852  2.1695  2.8796  0.2445
   60CHL1   C10 6885   0.405   2.992   9.931  0.4507  0.3246  0.4662
   60CHL1   C19 6886   0.290   3.076   9.882  0.2139 -0.4720 -0.1336
   60CHL1  H19A 6887   0.239   3.036   9.792 -1.0763  1.7555 -0.4714
   60CHL1  H19B 6888   0.203   3.086   9.951 -1.2652 -2.7302 -1.5312
   60CHL1  H19C 6889   0.323   3.179   9.858  0.3204 -0.1809  1.1851
   60CHL1    C1 6890   0.350   2.861   9.991  0.0564 -0.2532  0.2969
   60CHL1   H1A 6891   0.275   2.811   9.925  1.0758 -1.2265 -0.1484
   60CHL1   H1B 6892   0.442   2.800  10.005  1.0477 -0.6440 -5.2888
   60CHL1    C2 6893   0.288   2.882  10.125 -0.1288  0.1181 -0.1021
   60CHL1   H2A 6894   0.251   2.789  10.175 -0.7119 -0.1553 -1.0263
   60CHL1   H2B 6895   0.199   2.947  10.108 -1.7761 -2.3536 -1.5497
   60CHL1   C20 6896   0.661   2.977   9.260 -0.3172  0.8422 -0.6657
   60CHL1   H20 6897   0.607   3.069   9.233 -3.0708  0.1907  2.0440
   60CHL1   C21 6898   0.578   2.852   9.243  0.3404  0.1270  0.1723
   60CHL1  H21A 6899   0.479   2.878   9.286  0.6248 -0.7564  1.3791
   60CHL1  H21B 6900   0.620   2.759   9.285 -0.2197 -0.1087  0.2122
   60CHL1  H21C 6901   0.565   2.824   9.136 -0.8429  0.6740  0.1523
   60CHL1   C22 6902   0.793   2.969   9.178  0.5272  0.0953 -0.3005
   60CHL1  H22A 6903   0.763   2.937   9.076 -1.1463  0.5404  0.0258
   60CHL1  H22B 6904   0.838   3.071   9.176  0.5768  0.0716 -2.4346
   60CHL1   C23 6905   0.902   2.875   9.227  0.1969  0.0674 -0.0671
   60CHL1  H23A 6906   0.944   2.904   9.326  2.4938 -3.3995  0.1371
   60CHL1  H23B 6907   0.874   2.772   9.257 -3.3220  1.3832  1.7384
   60CHL1   C24 6908   1.031   2.862   9.140 -0.4791 -0.2222  0.0003
   60CHL1  H24A 6909   1.116   2.818   9.196 -1.3279 -0.6843  0.9419
   60CHL1  H24B 6910   1.009   2.804   9.047  2.4056 -1.1511 -0.2042
   60CHL1   C25 6911   1.097   3.005   9.095  0.3586 -0.4594  0.2325
   60CHL1   H25 6912   1.014   3.063   9.047  0.6678 -1.8206 -2.1216
   60CHL1   C26 6913   1.159   3.079   9.220  0.0784 -0.2549 -0.3414
   60CHL1  H26A 6914   1.261   3.041   9.242 -0.0955  0.7715  2.7235
   60CHL1  H26B 6915   1.170   3.188   9.197 -1.2321 -0.4321 -1.9816
   60CHL1  H26C 6916   1.097   3.071   9.312  1.0594 -0.0758  0.3462
   60CHL1   C27 6917   1.203   2.983   8.977 -0.0112 -0.6169 -0.3043
   60CHL1  H27A 6918   1.292   2.929   9.016 -0.0616  0.4566  1.4292
   60CHL1  H27B 6919   1.151   2.939   8.889 -2.0568  1.6194 -0.3124
   60CHL1  H27C 6920   1.246   3.084   8.958  3.5867 -1.7621  0.8264
   61CHL1    C3 6921   4.634   2.494  10.303 -0.4647  0.2283  0.2564
   61CHL1    H3 6922   4.741   2.525  10.301  0.0141 -1.0564  2.5469
   61CHL1    O3 6923   4.579   2.537  10.421 -0.0731 -0.4039 -0.0400
   61CHL1   H3' 6924   4.493   2.493  10.418  0.1989 -1.0333 -3.6382
   61CHL1    C4 6925   4.560   2.567  10.185  0.6772 -0.0334  0.7839
   61CHL1   H4A 6926   4.451   2.553  10.196  0.3676  1.7386  0.2292
   61CHL1   H4B 6927   4.580   2.676  10.195 -1.0746  0.3547  0.3055
   61CHL1    C5 6928   4.605   2.521  10.048 -0.6004  0.3019  0.2303
   61CHL1    C6 6929   4.658   2.606   9.958  0.6708  0.3611 -0.8166
   61CHL1    H6 6930   4.666   2.714   9.976  0.8299  0.0675  1.0642
   61CHL1    C7 6931   4.702   2.565   9.823  0.2008 -0.1026 -0.2148
   61CHL1   H7A 6932   4.662   2.632   9.743  0.9007  1.6343  0.8312
   61CHL1   H7B 6933   4.813   2.567   9.819  0.1484  1.1994 -2.1063
   61CHL1    C8 6934   4.655   2.424   9.781 -0.3685 -0.1453 -0.1085
   61CHL1    H8 6935   4.549   2.419   9.749 -0.0518 -2.0722 -1.0265
   61CHL1   C14 6936   4.751   2.378   9.674 -0.3929  0.4652 -0.2666
   61CHL1   H14 6937   4.848   2.376   9.729 -0.6383  3.6607  0.4400
   61CHL1   C15 6938   4.787   2.474   9.558  0.0880 -0.2404  0.2240
   61CHL1  H15A 6939   4.687   2.521   9.542  0.5493  0.4005 -0.8806
   61CHL1  H15B 6940   4.861   2.554   9.579  1.3172 -1.3028 -0.0107
   61CHL1   C16 6941   4.822   2.379   9.446  0.4310  0.9767  0.2545
   61CHL1  H16A 6942   4.733   2.369   9.381  0.2891  0.0276  0.5808
   61CHL1  H16B 6943   4.909   2.416   9.388  1.5396 -0.8820  0.6560
   61CHL1   C17 6944   4.827   2.240   9.503 -0.4771 -0.2555  0.3327
   61CHL1   H17 6945   4.927   2.235   9.550 -0.9073 -0.9325  1.2277
   61CHL1   C13 6946   4.721   2.236   9.612 -0.9012  0.2793 -0.5436
   61CHL1   C18 6947   4.581   2.228   9.550 -0.1668  0.1269 -0.3678
   61CHL1  H18A 6948   4.508   2.260   9.627  2.0435  2.4217  0.9271
   61CHL1  H18B 6949   4.559   2.304   9.471 -2.1459  1.6758  1.5382
   61CHL1  H18C 6950   4.567   2.121   9.527  2.1067 -0.8854  2.4100
   61CHL1   C12 6951   4.743   2.130   9.728 -0.1051  0.1361 -0.1773
   61CHL1  H12A 6952   4.708   2.033   9.686  0.7462 -0.5562  0.6530
   61CHL1  H12B 6953   4.850   2.131   9.755 -0.0541 -1.2014 -0.2665
   61CHL1   C11 6954   4.659   2.178   9.855 -0.9305  0.1830  0.1323
   61CHL1  H11A 6955   4.552   2.174   9.826 -1.8556  1.2625  2.9714
   61CHL1  H11B 6956   4.669   2.108   9.940 -2.4085 -0.1619  0.0298
   61CHL1    C9 6957   4.683   2.327   9.900  0.6692 -0.4793 -0.9802
   61CHL1    H9 6958   4.790   2.333   9.930  0.4525  2.0545 -0.4873
   61CHL1   C10 6959   4.612   2.369  10.030 -0.1535  0.4244  0.1312
   61CHL1   C19 6960   4.466   2.311  10.030 -0.1568  0.3348  0.7163
   61CHL1  H19A 6961   4.410   2.350   9.942 -2.4659 -1.0240  1.5029
   61CHL1  H19B 6962   4.464   2.201  10.022  0.4195  0.4449 -2.2011
   61CHL1  H19C 6963   4.398   2.343  10.111 -3.0046 -0.7317 -1.1054
   61CHL1    C1 6964   4.690   2.302  10.154  0.1436  0.0568 -0.4742
   61CHL1   H1A 6965   4.666   2.194  10.144 -3.8240  0.6687  0.6871
   61CHL1   H1B 6966   4.799   2.321  10.151  0.7851 -2.5608  1.7767
   61CHL1    C2 6967   4.636   2.342  10.290  0.4286 -0.4872  0.4921
   61CHL1   H2A 6968   4.712   2.299  10.359  1.7894  1.4769  0.3229
   61CHL1   H2B 6969   4.530   2.310  10.293  0.6971 -1.6278 -1.1248
   61CHL1   C20 6970   4.828   2.117   9.410  0.7225 -0.7477 -0.0947
   61CHL1   H20 6971   4.727   2.087   9.377  1.3798 -1.1132 -1.9018
   61CHL1   C21 6972   4.888   1.995   9.481 -0.6518  0.3904 -0.9539
   61CHL1  H21A 6973   4.982   2.039   9.522  0.1752 -1.9662 -0.1740
   61CHL1  H21B 6974   4.917   1.916   9.409  2.0481 -1.6982  2.0981
   61CHL1  H21C 6975   4.830   1.941   9.559 -1.6964  0.7597 -1.4583
   61CHL1   C22 6976   4.909   2.157   9.280 -0.0769  0.1189 -0.4012
   61CHL1  H22A 6977   4.856   2.240   9.228  0.6447  0.2935 -0.8708
   61CHL1  H22B 6978   5.016   2.174   9.303 -0.2899  1.6782 -0.4745
   61CHL1   C23 6979   4.912   2.045   9.177 -0.1125 -0.4507 -0.2198
   61CHL1  H23A 6980   4.985   1.974   9.221 -0.2235  0.5377  1.6901
   61CHL1  H23B 6981   4.812   1.999   9.163 -0.5091  0.5011 -0.5949
   61CHL1   C24 6982   4.986   2.101   9.055  0.4723 -0.5006  0.5458
   61CHL1  H24A 6983   4.919   2.172   9.002  0.5225 -1.2510 -0.5535
   61CHL1  H24B 6984   5.082   2.152   9.081  1.1552  0.2800 -2.9596
   61CHL1   C25 6985   5.013   1.991   8.946 -0.6381  0.1571 -0.1109
   61CHL1   H25 6986   4.919   1.935   8.930 -1.0105 -0.0100  2.2297
   61CHL1   C26 6987   5.062   2.063   8.816  0.1149  0.0923  0.0483
   61CHL1  H26A 6988   4.984   2.138   8.790 -0.2051 -0.1449  0.3107
   61CHL1  H26B 6989   5.143   2.137   8.835 -2.5147  2.8253  1.5474
   61CHL1  H26C 6990   5.083   1.992   8.733 -1.6778 -2.4162  1.5978
   61CHL1   C27 6991   5.113   1.879   8.988 -0.6971 -0.7185  0.3277
   61CHL1  H27A 6992   5.066   1.818   9.069  1.4013 -2.3129  0.4142
   61CHL1  H27B 6993   5.146   1.812   8.906  2.4543 -2.2679  2.6440
   61CHL1  H27C 6994   5.203   1.913   9.043 -0.1740 -1.3188 -0.1384
   62CHL1    C3 6995   2.222   1.098  10.202  0.2742  0.0538  0.1229
   62CHL1    H3 6996   2.332   1.087  10.201  0.1587 -1.3508 -1.2665
   62CHL1    O3 6997   2.172   1.104  10.328 -0.2948 -0.3002 -0.3587
   62CHL1   H3' 6998   2.100   1.041  10.326 -0.3374 -0.3577  1.4685
   62CHL1    C4 6999   2.194   1.230  10.131 -0.6016  0.6332  0.5171
   62CHL1   H4A 7000   2.085   1.246  10.120 -1.0409 -2.2601 -0.2316
   62CHL1   H4B 7001   2.248   1.303  10.195 -0.8302  1.2640 -0.0051
   62CHL1    C5 7002   2.250   1.227   9.989  0.1353  0.0514 -0.2442
   62CHL1    C6 7003   2.336   1.320   9.947 -0.0968  0.4151 -0.1061
   62CHL1    H6 7004   2.358   1.411  10.005  0.3315  1.4097 -1.7746
   62CHL1    C7 7005   2.382   1.331   9.804 -0.0044  0.1711  0.3572
   62CHL1   H7A 7006   2.394   1.431   9.757  1.2456 -0.6184 -1.0368
   62CHL1   H7B 7007   2.488   1.299   9.797 -0.0293  0.4851 -2.2914
   62CHL1    C8 7008   2.300   1.238   9.710 -0.1863  0.1008 -0.1371
   62CHL1    H8 7009   2.200   1.280   9.689 -0.1803 -0.5928 -1.6452
   62CHL1   C14 7010   2.369   1.229   9.569  0.3082 -0.1808  0.1770
   62CHL1   H14 7011   2.469   1.184   9.586  0.5721 -0.8909 -2.7207
   62CHL1   C15 7012   2.389   1.359   9.488 -0.2263 -0.1547 -0.0888
   62CHL1  H15A 7013   2.297   1.421   9.483  0.2235  0.7146  1.5792
   62CHL1  H15B 7014   2.473   1.421   9.528 -0.1544  0.4536 -1.1387
   62CHL1   C16 7015   2.413   1.314   9.338  0.4640  0.6720  0.3118
   62CHL1  H16A 7016   2.345   1.369   9.270 -1.3240  0.7689  2.0842
   62CHL1  H16B 7017   2.515   1.341   9.304  1.3717 -1.2223  1.3844
   62CHL1   C17 7018   2.393   1.161   9.341  0.3921 -1.0263 -0.0103
   62CHL1   H17 7019   2.491   1.113   9.362  0.7446 -0.7145 -0.8898
   62CHL1   C13 7020   2.306   1.132   9.469 -0.1071 -0.6390  0.1797
   62CHL1   C18 7021   2.160   1.172   9.442  0.4053 -0.8063 -0.8570
   62CHL1  H18A 7022   2.147   1.260   9.375 -1.2924 -0.3624  0.0065
   62CHL1  H18B 7023   2.105   1.096   9.383 -1.8702  1.8015 -2.3779
   62CHL1  H18C 7024   2.110   1.200   9.537 -1.3058 -0.5764 -1.7810
   62CHL1   C12 7025   2.312   0.998   9.534  0.4842 -0.1311 -0.1705
   62CHL1  H12A 7026   2.268   0.925   9.463 -2.3054  1.4962 -0.2681
   62CHL1  H12B 7027   2.417   0.972   9.558 -0.5357 -2.5215  2.1874
   62CHL1   C11 7028   2.225   0.988   9.670  0.7651  0.4573 -0.7899
   62CHL1  H11A 7029   2.117   1.000   9.648  1.2695  3.2728 -2.3683
   62CHL1  H11B 7030   2.243   0.888   9.714  0.8763  0.4336 -0.8880
   62CHL1    C9 7031   2.282   1.097   9.777 -0.2892 -0.3040  0.1037
   62CHL1    H9 7032   2.384   1.056   9.792 -0.8839 -1.8111  0.1699
   62CHL1   C10 7033   2.203   1.098   9.907  0.1960 -0.1070 -0.6382
   62CHL1   C19 7034   2.051   1.109   9.881  0.2448 -0.0388 -0.5039
   62CHL1  H19A 7035   2.032   1.200   9.820  1.1465  1.4592  1.3547
   62CHL1  H19B 7036   2.029   1.015   9.824  1.5714 -0.2807 -0.6387
   62CHL1  H19C 7037   1.984   1.125   9.968  0.7312  2.1119 -0.4843
   62CHL1    C1 7038   2.228   0.976   9.995  0.3151  0.3373 -0.1536
   62CHL1   H1A 7039   2.188   0.890   9.938 -0.4529  0.0220  0.8242
   62CHL1   H1B 7040   2.337   0.952   9.994  0.0764 -0.8040 -1.1492
   62CHL1    C2 7041   2.166   0.973  10.134  0.0088 -0.5866 -0.0162
   62CHL1   H2A 7042   2.196   0.889  10.201  0.6201 -1.2904 -1.1421
   62CHL1   H2B 7043   2.055   0.979  10.137 -0.0135 -0.4365 -0.9442
   62CHL1   C20 7044   2.360   1.094   9.209  0.4835 -0.7460 -0.6222
   62CHL1   H20 7045   2.250   1.091   9.217  0.2859  2.1865 -1.2370
   62CHL1   C21 7046   2.418   0.951   9.188  0.3338 -0.4569  0.0423
   62CHL1  H21A 7047   2.379   0.890   9.104  1.9314 -1.6111  0.0883
   62CHL1  H21B 7048   2.411   0.895   9.283  0.8251 -1.2452 -0.3789
   62CHL1  H21C 7049   2.527   0.964   9.173  0.3652  2.2405  1.8000
   62CHL1   C22 7050   2.372   1.180   9.082  0.4944  0.6683  0.4493
   62CHL1  H22A 7051   2.294   1.258   9.089 -0.7924 -0.6564  1.4502
   62CHL1  H22B 7052   2.475   1.223   9.083  0.5014  0.6484  1.4818
   62CHL1   C23 7053   2.351   1.104   8.946  0.1498  0.2218 -0.0705
   62CHL1  H23A 7054   2.356   1.185   8.870  0.2746 -0.7892 -1.1862
   62CHL1  H23B 7055   2.429   1.030   8.919 -1.0765 -0.8244 -0.8527
   62CHL1   C24 7056   2.210   1.044   8.938  0.1009  0.6270 -0.3847
   62CHL1  H24A 7057   2.198   0.952   8.999  0.3653  0.4465 -0.6035
   62CHL1  H24B 7058   2.145   1.123   8.982  0.2156  1.7238 -2.0791
   62CHL1   C25 7059   2.164   1.003   8.800 -0.9282 -0.4393  0.9810
   62CHL1   H25 7060   2.180   1.096   8.740 -2.9983  1.2655  2.9087
   62CHL1   C26 7061   2.244   0.873   8.747  0.2208 -0.1802  0.2352
   62CHL1  H26A 7062   2.345   0.911   8.723  0.1685 -0.3093 -0.1908
   62CHL1  H26B 7063   2.232   0.785   8.814  1.6356 -0.0416  0.6961
   62CHL1  H26C 7064   2.194   0.845   8.652 -0.3130 -0.3050  0.5473
   62CHL1   C27 7065   2.019   0.971   8.801  0.4332  0.5351 -0.5142
   62CHL1  H27A 7066   1.946   1.055   8.806 -0.8232 -0.4985 -1.0256
   62CHL1  H27B 7067   1.991   0.917   8.709  0.7120 -0.9251  0.2363
   62CHL1  H27C 7068   1.994   0.897   8.880  3.5640 -1.1334 -0.9358
   63CHL1    C3 7069   2.161   0.079  10.410 -0.4191  0.1559 -0.0455
   63CHL1    H3 7070   2.053   0.050  10.409  0.0740 -1.8896  0.5627
   63CHL1    O3 7071   2.205   0.108  10.541 -0.0124 -0.1421 -0.3985
   63CHL1   H3' 7072   2.282   0.165  10.533 -0.9899  1.3755  0.6323
   63CHL1    C4 7073   2.241  -0.035  10.360 -0.1185  0.1231  0.3380
   63CHL1   H4A 7074   2.350  -0.016  10.377 -0.0526 -0.5102  0.6501
   63CHL1   H4B 7075   2.220  -0.123  10.425 -1.3194  1.2394  1.5500
   63CHL1    C5 7076   2.224  -0.058  10.204 -0.1873 -0.7838  0.1606
   63CHL1    C6 7077   2.194  -0.181  10.158 -0.1301 -0.0631  0.3489
   63CHL1    H6 7078   2.194  -0.265  10.230  1.8982 -1.8096 -1.5739
   63CHL1    C7 7079   2.200  -0.219  10.015 -0.1616 -0.1678  0.1164
   63CHL1   H7A 7080   2.281  -0.296  10.017  0.6358  0.5981 -1.2849
   63CHL1   H7B 7081   2.105  -0.267   9.981  0.5888 -1.7235  0.0863
   63CHL1    C8 7082   2.231  -0.102   9.919  0.7547  0.9661 -0.1987
   63CHL1    H8 7083   2.342  -0.097   9.920  0.8833 -1.0102  0.5276
   63CHL1   C14 7084   2.178  -0.138   9.781  0.4231  0.0818 -0.0118
   63CHL1   H14 7085   2.069  -0.150   9.801  0.3483 -0.4795 -0.7140
   63CHL1   C15 7086   2.230  -0.265   9.719 -1.0278  0.8500  0.4902
   63CHL1  H15A 7087   2.339  -0.264   9.741 -0.0319  1.5522 -3.6305
   63CHL1  H15B 7088   2.191  -0.355   9.770 -0.8034  1.2075  1.3201
   63CHL1   C16 7089   2.203  -0.258   9.565 -0.2876 -1.0206  0.0664
   63CHL1  H16A 7090   2.276  -0.296   9.490 -0.1731  1.4823 -1.2023
   63CHL1  H16B 7091   2.113  -0.322   9.556 -1.6937  0.6953  1.2155
   63CHL1   C17 7092   2.158  -0.108   9.546  0.0330 -0.4447  0.6349
   63CHL1   H17 7093   2.047  -0.108   9.551 -0.0448 -0.0323 -0.6786
   63CHL1   C13 7094   2.209  -0.029   9.676 -0.0054  0.4440  0.9029
   63CHL1   C18 7095   2.355   0.015   9.661  0.3143 -0.3364  0.3364
   63CHL1  H18A 7096   2.428  -0.064   9.632 -1.1101 -1.4336 -0.4098
   63CHL1  H18B 7097   2.359   0.098   9.588  2.0911 -0.4373  0.2960
   63CHL1  H18C 7098   2.402   0.066   9.747 -0.5420  0.1226  0.5514
   63CHL1   C12 7099   2.131   0.094   9.724  0.1910 -0.4711 -0.2432
   63CHL1  H12A 7100   2.164   0.176   9.657  0.4854  1.4328  2.1111
   63CHL1  H12B 7101   2.022   0.078   9.717  0.0799  0.7596 -1.8689
   63CHL1   C11 7102   2.178   0.137   9.860  0.2904 -0.3391 -0.2755
   63CHL1  H11A 7103   2.269   0.200   9.864  1.4932 -2.0031 -0.5597
   63CHL1  H11B 7104   2.098   0.206   9.895  2.4646  1.5822  1.1329
   63CHL1    C9 7105   2.170   0.022   9.971 -0.3238 -0.7466  0.8625
   63CHL1    H9 7106   2.063  -0.001   9.990 -0.4478 -1.5827 -0.7207
   63CHL1   C10 7107   2.227   0.065  10.111  0.1585  0.0502  0.4518
   63CHL1   C19 7108   2.372   0.118  10.105  0.0102  0.6437  0.3574
   63CHL1  H19A 7109   2.425   0.065  10.023 -1.6084 -1.3612  0.5174
   63CHL1  H19B 7110   2.357   0.222  10.071 -1.9078  0.7071  1.2264
   63CHL1  H19C 7111   2.433   0.116  10.198  1.2905 -1.5808 -0.4655
   63CHL1    C1 7112   2.137   0.177  10.176  0.3565  0.2056 -0.0917
   63CHL1   H1A 7113   2.158   0.273  10.124  2.6255 -0.7951 -1.1720
   63CHL1   H1B 7114   2.034   0.136  10.172  1.1183 -1.7466 -1.3554
   63CHL1    C2 7115   2.179   0.206  10.322  0.1518  0.2950  0.1066
   63CHL1   H2A 7116   2.110   0.287  10.353 -2.5454 -0.9204 -2.2562
   63CHL1   H2B 7117   2.285   0.238  10.328 -0.1956  1.4657  0.1511
   63CHL1   C20 7118   2.205  -0.056   9.406  0.1766  0.5392  0.3832
   63CHL1   H20 7119   2.312  -0.073   9.382  0.2058 -0.3297  1.0935
   63CHL1   C21 7120   2.154   0.086   9.386  0.0061 -0.5095  0.4004
   63CHL1  H21A 7121   2.145   0.107   9.277  2.5645  0.4310  0.3127
   63CHL1  H21B 7122   2.227   0.163   9.420 -0.1565 -0.6407  1.0502
   63CHL1  H21C 7123   2.053   0.101   9.430 -0.5791  1.7307 -1.5258
   63CHL1   C22 7124   2.132  -0.146   9.295  0.1121 -0.0250 -0.6942
   63CHL1  H22A 7125   2.142  -0.251   9.330 -1.7269  0.4794  1.6538
   63CHL1  H22B 7126   2.023  -0.134   9.279 -0.3988 -1.9134  0.9401
   63CHL1   C23 7127   2.207  -0.136   9.164  0.1301 -1.0861 -0.4642
   63CHL1  H23A 7128   2.201  -0.032   9.126  2.3167 -0.3778  0.9661
   63CHL1  H23B 7129   2.314  -0.158   9.186  0.1960  0.0868  0.4261
   63CHL1   C24 7130   2.143  -0.219   9.059 -0.3607  0.5791  0.1469
   63CHL1  H24A 7131   2.178  -0.320   9.089  1.3940  0.6737 -1.3579
   63CHL1  H24B 7132   2.032  -0.213   9.055 -0.4681 -1.4733 -1.9032
   63CHL1   C25 7133   2.206  -0.208   8.920 -0.1469 -0.1613  0.4694
   63CHL1   H25 7134   2.300  -0.150   8.922 -0.4266  0.2722  1.1418
   63CHL1   C26 7135   2.227  -0.349   8.859 -0.7280  0.1707 -0.3488
   63CHL1  H26A 7136   2.154  -0.430   8.876  0.4013 -0.9553 -0.7149
   63CHL1  H26B 7137   2.252  -0.342   8.751  2.4875  0.4311  0.3064
   63CHL1  H26C 7138   2.318  -0.392   8.906  1.0282  3.0231 -0.8587
   63CHL1   C27 7139   2.107  -0.127   8.828 -0.9628 -0.0614  0.0469
   63CHL1  H27A 7140   2.020  -0.189   8.799 -1.2658  1.3932 -2.3543
   63CHL1  H27B 7141   2.075  -0.033   8.878  3.3636  0.9627  1.3336
   63CHL1  H27C 7142   2.170  -0.104   8.740 -1.5685 -0.4387 -0.4886
   64CHL1    C3 7143   6.001   2.426  10.154  0.1207  0.9508  0.1184
   64CHL1    H3 7144   5.949   2.360  10.081 -0.1732 -1.2102  2.1693
   64CHL1    O3 7145   5.992   2.369  10.285  0.2124 -0.1009  0.2823
   64CHL1   H3' 7146   5.963   2.442  10.341 -0.6364 -0.5527  0.4489
   64CHL1    C4 7147   6.150   2.442  10.115 -0.4067 -0.2302  0.4216
   64CHL1   H4A 7148   6.189   2.512  10.191 -0.3252  1.2565 -0.9279
   64CHL1   H4B 7149   6.183   2.336  10.116 -0.6515 -0.3038  0.8780
   64CHL1    C5 7150   6.174   2.499   9.975  1.2825 -0.0140 -0.4497
   64CHL1    C6 7151   6.249   2.426   9.889  0.1591 -0.2487  0.3670
   64CHL1    H6 7152   6.286   2.330   9.928  0.7000  0.4522  1.6545
   64CHL1    C7 7153   6.285   2.474   9.744 -0.0024  0.2940 -0.3242
   64CHL1   H7A 7154   6.392   2.459   9.715  0.1289  0.5930 -0.0010
   64CHL1   H7B 7155   6.227   2.422   9.665 -0.6232 -0.1666  0.4306
   64CHL1    C8 7156   6.259   2.627   9.728  0.0065  0.4078  0.0480
   64CHL1    H8 7157   6.338   2.686   9.779  1.3362 -1.6713  0.4687
   64CHL1   C14 7158   6.263   2.655   9.581  0.4490 -0.0499 -0.6551
   64CHL1   H14 7159   6.184   2.588   9.541  0.2679  0.4176 -1.0876
   64CHL1   C15 7160   6.392   2.626   9.499 -0.2676  0.0157  0.2720
   64CHL1  H15A 7161   6.484   2.646   9.558 -0.0150  0.7066 -0.3342
   64CHL1  H15B 7162   6.406   2.519   9.474  1.4198  0.3522 -0.3184
   64CHL1   C16 7163   6.374   2.703   9.366 -0.1052  0.1190 -0.8339
   64CHL1  H16A 7164   6.467   2.762   9.353 -0.4924  0.8464 -0.3690
   64CHL1  H16B 7165   6.362   2.641   9.275  0.3019  0.5629 -1.1977
   64CHL1   C17 7166   6.247   2.788   9.388  0.2286 -0.4700  0.3841
   64CHL1   H17 7167   6.170   2.715   9.353  0.5997 -1.3646  1.3529
   64CHL1   C13 7168   6.225   2.801   9.544 -0.4949 -0.2230 -0.1233
   64CHL1   C18 7169   6.327   2.899   9.598 -0.1604  0.0166  0.0805
   64CHL1  H18A 7170   6.429   2.890   9.554  0.1717  0.0455  0.8391
   64CHL1  H18B 7171   6.295   2.998   9.559  0.9707 -0.0209 -0.9830
   64CHL1  H18C 7172   6.330   2.904   9.709  1.5762  1.3502  0.0154
   64CHL1   C12 7173   6.085   2.840   9.602 -0.0805 -0.0606 -1.1945
   64CHL1  H12A 7174   6.072   2.950   9.604 -3.3954 -0.3472  1.2685
   64CHL1  H12B 7175   6.020   2.781   9.534 -0.9091 -0.2467 -0.2601
   64CHL1   C11 7176   6.074   2.804   9.750  1.2937  0.0743  0.2717
   64CHL1  H11A 7177   6.139   2.883   9.792  1.3763  0.2272 -0.1395
   64CHL1  H11B 7178   5.970   2.815   9.786  0.7312  0.4715 -1.3898
   64CHL1    C9 7179   6.121   2.661   9.788  0.0474  0.7820 -0.4404
   64CHL1    H9 7180   6.053   2.592   9.733  1.7360 -0.2129 -1.3463
   64CHL1   C10 7181   6.101   2.628   9.945 -0.2125  0.0475 -0.2561
   64CHL1   C19 7182   6.165   2.745  10.028  0.1488  0.5833  1.3537
   64CHL1  H19A 7183   6.267   2.756   9.985 -0.4884  0.3105 -0.2995
   64CHL1  H19B 7184   6.113   2.843  10.020 -1.2406 -0.0526  2.2230
   64CHL1  H19C 7185   6.176   2.712  10.133 -2.8440 -0.7448  1.3329
   64CHL1    C1 7186   5.956   2.616   9.988  0.6671  0.8074  0.4959
   64CHL1   H1A 7187   5.904   2.714   9.982 -1.7081 -0.4673 -2.9100
   64CHL1   H1B 7188   5.891   2.557   9.920 -0.2532  2.3688 -0.0583
   64CHL1    C2 7189   5.934   2.564  10.133 -0.1172 -0.4740  0.1217
   64CHL1   H2A 7190   5.823   2.564  10.144 -0.1955  0.8841 -0.4195
   64CHL1   H2B 7191   5.979   2.625  10.215 -3.0451 -0.9811  2.2803
   64CHL1   C20 7192   6.228   2.913   9.304  0.0242  0.0967 -0.0045
   64CHL1   H20 7193   6.279   2.998   9.354 -1.4837  0.5000  0.9092
   64CHL1   C21 7194   6.083   2.946   9.285 -0.7992  0.1262  0.4546
   64CHL1  H21A 7195   6.032   2.862   9.234 -1.7355  1.0159 -0.1153
   64CHL1  H21B 7196   6.068   3.041   9.229 -0.0635 -0.8534 -1.4904
   64CHL1  H21C 7197   6.036   2.963   9.384  1.2097  0.9352  1.3207
   64CHL1   C22 7198   6.309   2.908   9.170  0.0176 -0.0942  0.3402
   64CHL1  H22A 7199   6.417   2.893   9.193  0.0922 -0.9883 -0.4895
   64CHL1  H22B 7200   6.287   2.818   9.108 -1.4057  1.3544 -1.3725
   64CHL1   C23 7201   6.310   3.032   9.075  0.5001  0.2552  0.8719
   64CHL1  H23A 7202   6.206   3.061   9.048  0.1648 -1.7480 -0.1614
   64CHL1  H23B 7203   6.353   3.131   9.103  1.8800  0.7176 -2.4006
   64CHL1   C24 7204   6.382   3.015   8.937 -0.4483 -0.3778 -0.3436
   64CHL1  H24A 7205   6.488   3.002   8.966 -1.1231  0.1686  2.6682
   64CHL1  H24B 7206   6.358   2.920   8.883  0.3532  0.4857 -2.3236
   64CHL1   C25 7207   6.381   3.140   8.852  0.4015 -0.8713 -0.2170
   64CHL1   H25 7208   6.427   3.223   8.911  0.9054 -2.4945  1.8158
   64CHL1   C26 7209   6.468   3.127   8.725  0.0870  0.1852 -0.2473
   64CHL1  H26A 7210   6.572   3.090   8.735  1.5589  3.1858 -2.7391
   64CHL1  H26B 7211   6.411   3.071   8.649 -0.6131  0.2365  0.2328
   64CHL1  H26C 7212   6.482   3.229   8.683  0.3712 -0.6890 -2.3776
   64CHL1   C27 7213   6.233   3.170   8.814  0.0572 -1.1573  0.5060
   64CHL1  H27A 7214   6.239   3.251   8.739  0.1014 -1.6860 -0.0748
   64CHL1  H27B 7215   6.191   3.076   8.771  2.1612 -0.9273 -2.3467
   64CHL1  H27C 7216   6.167   3.202   8.898 -1.1533 -0.8946 -0.5181
   65CHL1    C3 7217   3.466   4.359  10.192  0.2302  0.1579 -0.9104
   65CHL1    H3 7218   3.385   4.435  10.181  1.3706  2.0037  2.1087
   65CHL1    O3 7219   3.485   4.334  10.332  0.0635 -0.0616  0.4216
   65CHL1   H3' 7220   3.417   4.274  10.363  2.4216 -1.9470  2.3767
   65CHL1    C4 7221   3.433   4.230  10.116 -0.2190  0.1321  0.1975
   65CHL1   H4A 7222   3.523   4.167  10.105 -1.5775 -1.9826  0.6059
   65CHL1   H4B 7223   3.359   4.170  10.174  1.4132 -2.8314 -0.5775
   65CHL1    C5 7224   3.383   4.253   9.975  0.1151 -1.0773  0.3545
   65CHL1    C6 7225   3.259   4.221   9.931 -1.0088  0.6676  0.0169
   65CHL1    H6 7226   3.186   4.179  10.002  2.5081 -1.8164  2.5320
   65CHL1    C7 7227   3.224   4.258   9.788 -0.0939  0.4545 -0.4722
   65CHL1   H7A 7228   3.168   4.172   9.745  0.2446 -0.4967  0.9016
   65CHL1   H7B 7229   3.160   4.349   9.792  2.8389  2.7928 -2.4483
   65CHL1    C8 7230   3.342   4.298   9.692 -0.1559 -0.3516 -0.2254
   65CHL1    H8 7231   3.389   4.201   9.662 -0.9640 -0.8373  0.0612
   65CHL1   C14 7232   3.282   4.368   9.574 -0.4759 -0.7865  0.1692
   65CHL1   H14 7233   3.232   4.462   9.605 -0.4626 -0.8916  0.5135
   65CHL1   C15 7234   3.191   4.281   9.486  0.7687  0.4623 -0.0900
   65CHL1  H15A 7235   3.246   4.188   9.460  0.0149  0.4421 -1.7336
   65CHL1  H15B 7236   3.093   4.257   9.533  0.6229  0.8352 -0.1893
   65CHL1   C16 7237   3.181   4.361   9.355 -0.0059 -0.0492  0.5194
   65CHL1  H16A 7238   3.200   4.295   9.268 -0.1099 -1.2469  1.3748
   65CHL1  H16B 7239   3.077   4.399   9.348  0.1978  0.2983 -0.8147
   65CHL1   C17 7240   3.297   4.462   9.362  0.4140 -0.1131 -0.0962
   65CHL1   H17 7241   3.234   4.546   9.397 -2.1582 -1.7306 -0.6218
   65CHL1   C13 7242   3.391   4.412   9.474  0.2516  1.0188 -0.4121
   65CHL1   C18 7243   3.476   4.293   9.412 -0.2511 -0.2984  0.4551
   65CHL1  H18A 7244   3.516   4.227   9.491  0.0466  0.3687  0.8656
   65CHL1  H18B 7245   3.418   4.221   9.349  0.2736 -1.5803  1.4032
   65CHL1  H18C 7246   3.562   4.343   9.362 -1.3240  1.3905  0.2105
   65CHL1   C12 7247   3.480   4.516   9.544  0.4571  0.0688  0.0332
   65CHL1  H12A 7248   3.567   4.550   9.484  0.0709  2.2029  0.6255
   65CHL1  H12B 7249   3.427   4.609   9.572  1.4668  0.5183  0.4796
   65CHL1   C11 7250   3.543   4.456   9.674 -0.2789  0.2293  0.5585
   65CHL1  H11A 7251   3.611   4.376   9.638 -1.5644 -0.5077 -0.3019
   65CHL1  H11B 7252   3.603   4.527   9.733  0.3963 -0.4889  0.7538
   65CHL1    C9 7253   3.438   4.390   9.766  0.4325  0.1200  0.1902
   65CHL1    H9 7254   3.375   4.472   9.807  0.8137  0.5749 -0.1125
   65CHL1   C10 7255   3.494   4.330   9.894  0.8438 -0.5419  0.1817
   65CHL1   C19 7256   3.617   4.238   9.854 -0.0110 -0.3124 -0.2658
   65CHL1  H19A 7257   3.693   4.293   9.794 -0.1766 -1.5895 -1.6969
   65CHL1  H19B 7258   3.674   4.195   9.940 -0.3985 -0.6358 -0.1665
   65CHL1  H19C 7259   3.581   4.159   9.785  0.1011 -0.1096 -0.5585
   65CHL1    C1 7260   3.556   4.455   9.983 -0.0253  0.2901  0.1060
   65CHL1   H1A 7261   3.652   4.492   9.940  2.1287 -3.6163  1.0179
   65CHL1   H1B 7262   3.481   4.536   9.972  0.8208  0.8299 -2.5542
   65CHL1    C2 7263   3.592   4.423  10.130  0.0259 -0.4966  0.1829
   65CHL1   H2A 7264   3.629   4.518  10.173  3.4839 -1.1774 -0.9207
   65CHL1   H2B 7265   3.676   4.351  10.134  0.9215  0.5250  0.1950
   65CHL1   C20 7266   3.358   4.487   9.224 -0.0641 -1.2105 -0.1002
   65CHL1   H20 7267   3.390   4.391   9.178  1.4674 -1.1418  0.7311
   65CHL1   C21 7268   3.481   4.584   9.246 -0.0282  0.3920  0.0345
   65CHL1  H21A 7269   3.495   4.656   9.162  2.0553  3.8483  3.0195
   65CHL1  H21B 7270   3.575   4.538   9.283  0.3830  1.6706  0.6706
   65CHL1  H21C 7271   3.456   4.663   9.320 -1.7836 -0.0478 -0.0327
   65CHL1   C22 7272   3.255   4.546   9.116  0.6080 -0.0341 -0.0474
   65CHL1  H22A 7273   3.168   4.476   9.114  0.4790  0.1344 -0.3066
   65CHL1  H22B 7274   3.219   4.647   9.145 -0.2890 -0.7347  1.3773
   65CHL1   C23 7275   3.315   4.554   8.983 -0.3163  0.8834 -0.2568
   65CHL1  H23A 7276   3.389   4.637   8.983 -2.2896  2.7262 -1.6532
   65CHL1  H23B 7277   3.374   4.462   8.961  0.1951  0.2163  3.2195
   65CHL1   C24 7278   3.209   4.598   8.863 -1.0904 -0.5916  0.2157
   65CHL1  H24A 7279   3.142   4.510   8.853  1.0883 -2.3235  0.1296
   65CHL1  H24B 7280   3.160   4.697   8.875 -2.8043 -1.5001  1.0876
   65CHL1   C25 7281   3.277   4.596   8.724  0.1431 -0.2295 -0.0369
   65CHL1   H25 7282   3.367   4.661   8.731  0.8478 -0.8013 -2.7777
   65CHL1   C26 7283   3.323   4.461   8.679  0.4491  0.5757  0.0011
   65CHL1  H26A 7284   3.244   4.382   8.681  3.1449 -2.3573 -0.7030
   65CHL1  H26B 7285   3.372   4.462   8.580 -0.2060 -0.8218 -0.3649
   65CHL1  H26C 7286   3.395   4.420   8.753  1.7998  3.6612  0.5379
   65CHL1   C27 7287   3.184   4.663   8.622 -0.3848  0.6980 -0.0232
   65CHL1  H27A 7288   3.245   4.714   8.545  0.8554 -0.7981 -0.0603
   65CHL1  H27B 7289   3.114   4.583   8.590 -2.6985  2.1025  1.1740
   65CHL1  H27C 7290   3.120   4.738   8.674 -1.4650 -0.4696  0.3710
   66CHL1    C3 7291   0.428   4.598  10.614 -0.2546 -0.2731 -0.1340
   66CHL1    H3 7292   0.411   4.488  10.624  1.4643 -0.4189  2.2478
   66CHL1    O3 7293   0.412   4.664  10.739  0.4010  0.3516 -0.1430
   66CHL1   H3' 7294   0.416   4.758  10.719 -2.4138  0.1783 -2.0612
   66CHL1    C4 7295   0.563   4.626  10.556 -0.6285 -0.3670  1.0240
   66CHL1   H4A 7296   0.571   4.737  10.555 -1.1103 -0.2539 -2.2749
   66CHL1   H4B 7297   0.648   4.582  10.612  0.8450 -1.7569 -2.0371
   66CHL1    C5 7298   0.572   4.590  10.409 -0.9877  1.3615  0.6233
   66CHL1    C6 7299   0.672   4.507  10.376 -0.0695  0.2517  0.6698
   66CHL1    H6 7300   0.753   4.479  10.445  1.5262 -1.7859 -1.8508
   66CHL1    C7 7301   0.689   4.470  10.231 -0.1836 -0.3531  0.0470
   66CHL1   H7A 7302   0.795   4.484  10.199 -0.6678  0.6986 -1.1183
   66CHL1   H7B 7303   0.651   4.367  10.216 -0.6971 -0.5123  2.1133
   66CHL1    C8 7304   0.612   4.564  10.126 -0.2341 -0.7716 -0.2355
   66CHL1    H8 7305   0.664   4.662  10.120 -0.4879 -0.6501 -0.4371
   66CHL1   C14 7306   0.607   4.495   9.988  0.3730 -0.4516  0.1335
   66CHL1   H14 7307   0.550   4.405  10.020 -1.3307 -0.1310 -1.7945
   66CHL1   C15 7308   0.743   4.439   9.935 -0.6414 -0.8325 -0.5816
   66CHL1  H15A 7309   0.814   4.520   9.960 -0.0480 -1.9602  1.6421
   66CHL1  H15B 7310   0.782   4.347   9.985  1.4143  0.8235  1.0276
   66CHL1   C16 7311   0.706   4.412   9.791 -0.1484 -0.3797 -0.2945
   66CHL1  H16A 7312   0.788   4.456   9.730  0.2641 -0.7446 -0.0117
   66CHL1  H16B 7313   0.699   4.304   9.765 -0.4593 -0.3641 -0.2816
   66CHL1   C17 7314   0.568   4.472   9.760  0.3720  0.5143  0.1807
   66CHL1   H17 7315   0.487   4.396   9.760  0.7612  0.0375 -2.1420
   66CHL1   C13 7316   0.545   4.573   9.876 -0.4357 -0.1855  0.4116
   66CHL1   C18 7317   0.622   4.708   9.851  0.8488  0.4090 -0.3789
   66CHL1  H18A 7318   0.722   4.678   9.811  0.4520 -2.2501  0.4148
   66CHL1  H18B 7319   0.572   4.774   9.778  2.8420  0.8992 -1.3933
   66CHL1  H18C 7320   0.646   4.769   9.940 -1.8753  3.2996 -1.4334
   66CHL1   C12 7321   0.400   4.602   9.914  0.3316  0.2579  0.0011
   66CHL1  H12A 7322   0.342   4.670   9.848  0.8069  0.6258 -0.0444
   66CHL1  H12B 7323   0.357   4.500   9.909 -0.2478  0.3718  1.7331
   66CHL1   C11 7324   0.382   4.661  10.061 -0.4241 -0.8397  0.3849
   66CHL1  H11A 7325   0.412   4.768  10.054  1.7146 -1.3181  1.4330
   66CHL1  H11B 7326   0.276   4.664  10.091 -0.0216  0.7330  1.8103
   66CHL1    C9 7327   0.468   4.588  10.170  0.5922 -0.5491  0.0973
   66CHL1    H9 7328   0.423   4.487  10.164  0.4552 -0.3998 -4.0451
   66CHL1   C10 7329   0.462   4.644  10.310 -0.0068  0.3202 -0.2913
   66CHL1   C19 7330   0.478   4.798  10.304 -0.1737 -0.7758 -0.0111
   66CHL1  H19A 7331   0.573   4.829  10.256 -1.9441  4.4116 -0.8202
   66CHL1  H19B 7332   0.394   4.841  10.246 -0.8857 -0.2903  1.3237
   66CHL1  H19C 7333   0.481   4.856  10.398  0.5706  0.8178 -0.9797
   66CHL1    C1 7334   0.332   4.594  10.377 -0.0513 -0.0335 -0.0613
   66CHL1   H1A 7335   0.252   4.620  10.304 -0.8849 -1.2625  0.3742
   66CHL1   H1B 7336   0.328   4.483  10.372 -2.5953  0.0459 -1.5226
   66CHL1    C2 7337   0.310   4.637  10.517 -0.1011 -1.0436  0.3767
   66CHL1   H2A 7338   0.218   4.586  10.551 -1.8472  0.0256 -2.4707
   66CHL1   H2B 7339   0.301   4.748  10.529  2.7445 -0.9128  2.3726
   66CHL1   C20 7340   0.557   4.537   9.618  0.3671 -0.1547 -0.1048
   66CHL1   H20 7341   0.625   4.625   9.617 -1.1583  1.0561  0.1820
   66CHL1   C21 7342   0.414   4.582   9.583  0.3874 -0.0436  0.1652
   66CHL1  H21A 7343   0.335   4.505   9.597 -0.1814  0.7395  1.5595
   66CHL1  H21B 7344   0.407   4.588   9.473  0.8322 -2.5078 -0.0565
   66CHL1  H21C 7345   0.378   4.675   9.634  1.4420 -0.6078  2.0413
   66CHL1   C22 7346   0.606   4.441   9.501 -0.4674 -0.1286 -0.5369
   66CHL1  H22A 7347   0.694   4.381   9.531  0.6895  0.6294 -2.3024
   66CHL1  H22B 7348   0.515   4.376   9.497 -0.6693  0.0755  0.4588
   66CHL1   C23 7349   0.632   4.508   9.369  0.5390  0.3771 -0.2442
   66CHL1  H23A 7350   0.546   4.569   9.335  0.3434  1.3764  1.8733
   66CHL1  H23B 7351   0.712   4.585   9.383 -0.3999  1.1117  1.3316
   66CHL1   C24 7352   0.667   4.403   9.261  0.7444 -0.7581 -0.5001
   66CHL1  H24A 7353   0.754   4.343   9.295  0.1164 -1.8362 -0.7619
   66CHL1  H24B 7354   0.587   4.327   9.268 -1.4847  1.3946 -1.4499
   66CHL1   C25 7355   0.671   4.458   9.111 -0.0460  1.0447 -0.1491
   66CHL1   H25 7356   0.593   4.534   9.090 -0.4116  0.8050  0.3410
   66CHL1   C26 7357   0.812   4.520   9.088 -0.1214  0.4113  0.4218
   66CHL1  H26A 7358   0.885   4.461   9.146 -0.4237  0.2332  0.6267
   66CHL1  H26B 7359   0.839   4.530   8.981  0.9733  1.1911  0.7471
   66CHL1  H26C 7360   0.811   4.621   9.135  1.6334  1.8660 -2.4243
   66CHL1   C27 7361   0.652   4.350   9.003  0.1156 -0.5740 -0.0810
   66CHL1  H27A 7362   0.738   4.281   9.011 -0.2863 -1.0616  0.0996
   66CHL1  H27B 7363   0.557   4.292   9.014  0.3136 -0.6737  1.2667
   66CHL1  H27C 7364   0.630   4.405   8.908  0.1595  2.1034  1.3582
   67CHL1    C3 7365   6.581   5.272  10.307  0.0409 -0.0886 -0.0919
   67CHL1    H3 7366   6.690   5.282  10.287  0.5675  0.2178  2.6215
   67CHL1    O3 7367   6.559   5.265  10.450 -0.1271  0.6591  0.1068
   67CHL1   H3' 7368   6.472   5.225  10.445 -0.1445  0.7753 -0.5112
   67CHL1    C4 7369   6.507   5.389  10.240 -0.1221  0.2141  0.2187
   67CHL1   H4A 7370   6.405   5.361  10.273 -0.1429 -0.8505 -0.6992
   67CHL1   H4B 7371   6.558   5.480  10.280  0.4458 -0.0071  0.0136
   67CHL1    C5 7372   6.509   5.394  10.090  0.2922 -0.5129 -0.2643
   67CHL1    C6 7373   6.551   5.508  10.028  0.5403  0.1500  0.0886
   67CHL1    H6 7374   6.577   5.599  10.084 -1.0104  1.6977 -1.5871
   67CHL1    C7 7375   6.540   5.528   9.881  0.0762  0.7561 -0.7549
   67CHL1   H7A 7376   6.506   5.630   9.854 -0.6344  0.4410 -1.0797
   67CHL1   H7B 7377   6.645   5.517   9.848  0.6844  3.1511  0.1324
   67CHL1    C8 7378   6.448   5.415   9.818  0.5439 -0.6428 -0.2239
   67CHL1    H8 7379   6.342   5.445   9.830 -0.0997 -1.7924 -2.4696
   67CHL1   C14 7380   6.476   5.404   9.666 -0.0802 -0.2034 -0.2478
   67CHL1   H14 7381   6.586   5.390   9.655  0.1048  1.3452 -0.5569
   67CHL1   C15 7382   6.472   5.536   9.590 -0.2718  0.6558  0.7603
   67CHL1  H15A 7383   6.371   5.579   9.608 -0.9458 -0.0514 -1.1465
   67CHL1  H15B 7384   6.550   5.610   9.616 -0.0791  1.0615 -0.8775
   67CHL1   C16 7385   6.483   5.497   9.446  0.0402  0.7703 -0.3321
   67CHL1  H16A 7386   6.400   5.536   9.384  0.7215  1.6305 -0.7161
   67CHL1  H16B 7387   6.584   5.521   9.407  1.0627  0.3085  1.8793
   67CHL1   C17 7388   6.481   5.337   9.446 -0.1007  0.0423 -0.2459
   67CHL1   H17 7389   6.578   5.284   9.452 -0.1784  0.0189  1.2499
   67CHL1   C13 7390   6.411   5.296   9.583 -0.0170 -0.0637  0.3718
   67CHL1   C18 7391   6.259   5.293   9.562  0.5398 -0.4939 -0.8209
   67CHL1  H18A 7392   6.218   5.390   9.528  0.5434  0.7608  2.3784
   67CHL1  H18B 7393   6.221   5.213   9.495 -2.5146  1.0796 -1.1357
   67CHL1  H18C 7394   6.202   5.277   9.657  1.5445  1.5935  0.1922
   67CHL1   C12 7395   6.464   5.163   9.644 -0.2533  0.4554  0.4566
   67CHL1  H12A 7396   6.429   5.072   9.591  0.3580  0.7026 -0.3996
   67CHL1  H12B 7397   6.575   5.160   9.637 -0.2656 -0.4114  0.4900
   67CHL1   C11 7398   6.430   5.161   9.793 -0.3704  0.0543 -0.4313
   67CHL1  H11A 7399   6.319   5.167   9.798 -0.4559  2.0803 -2.8558
   67CHL1  H11B 7400   6.463   5.065   9.837 -1.2588 -0.3730 -0.6762
   67CHL1    C9 7401   6.482   5.282   9.885 -0.4709  0.5029  0.0958
   67CHL1    H9 7402   6.591   5.275   9.870 -0.3288  0.3859  1.0771
   67CHL1   C10 7403   6.455   5.265  10.032  0.6995 -0.6832 -0.0650
   67CHL1   C19 7404   6.297   5.252  10.043  0.1482 -0.5502  0.8719
   67CHL1  H19A 7405   6.254   5.345  10.000  0.9425 -0.6410 -0.1775
   67CHL1  H19B 7406   6.252   5.164   9.991 -0.8864  0.8453 -0.6915
   67CHL1  H19C 7407   6.263   5.253  10.149 -0.1101 -2.1877  0.8314
   67CHL1    C1 7408   6.526   5.145  10.094  0.2132  0.9887 -0.0712
   67CHL1   H1A 7409   6.472   5.052  10.069  0.0115  0.9251  0.5940
   67CHL1   H1B 7410   6.629   5.136  10.053  0.3272  0.0365  0.4055
   67CHL1    C2 7411   6.539   5.140  10.252  0.4473 -0.0736 -0.0667
   67CHL1   H2A 7412   6.610   5.061  10.283  0.4102 -0.6134 -1.2768
   67CHL1   H2B 7413   6.439   5.118  10.295  0.0703 -2.3333 -1.8879
   67CHL1   C20 7414   6.417   5.273   9.319  0.1019 -0.7003  0.6378
   67CHL1   H20 7415   6.311   5.305   9.315  0.3636  0.1332  0.1070
   67CHL1   C21 7416   6.430   5.120   9.316  0.2971 -0.1761 -0.5497
   67CHL1  H21A 7417   6.386   5.086   9.220  0.7929 -0.1175 -0.8004
   67CHL1  H21B 7418   6.369   5.076   9.398  0.3623 -0.2410 -0.5359
   67CHL1  H21C 7419   6.533   5.077   9.315 -1.0994 -3.8427 -0.2143
   67CHL1   C22 7420   6.487   5.329   9.190  0.4074  0.0462  0.3050
   67CHL1  H22A 7421   6.496   5.440   9.198  1.7701 -0.0266  0.0692
   67CHL1  H22B 7422   6.594   5.297   9.194  0.7056  1.0436  0.6120
   67CHL1   C23 7423   6.415   5.292   9.057  0.4158  0.4094 -0.3692
   67CHL1  H23A 7424   6.398   5.183   9.050  2.8357 -0.0158 -0.3876
   67CHL1  H23B 7425   6.318   5.347   9.056 -0.4671 -0.8914 -4.6943
   67CHL1   C24 7426   6.496   5.336   8.932  0.4375 -0.3001 -0.4537
   67CHL1  H24A 7427   6.498   5.447   8.935  0.3472 -0.1853 -2.7086
   67CHL1  H24B 7428   6.601   5.302   8.928  0.3512 -0.5354 -0.7688
   67CHL1   C25 7429   6.434   5.293   8.796  0.0683  0.8844 -0.5077
   67CHL1   H25 7430   6.432   5.182   8.802 -1.1789  0.7820 -1.9969
   67CHL1   C26 7431   6.287   5.339   8.779  0.6580 -0.1830  0.0631
   67CHL1  H26A 7432   6.286   5.450   8.768  1.5894  0.3263  3.8217
   67CHL1  H26B 7433   6.262   5.297   8.679  1.8430 -0.7895  0.0016
   67CHL1  H26C 7434   6.212   5.301   8.851  1.1185 -1.8975 -0.3084
   67CHL1   C27 7435   6.528   5.326   8.673 -0.5099 -0.2673  0.6513
   67CHL1  H27A 7436   6.626   5.275   8.688  0.1010  0.8856  0.7006
   67CHL1  H27B 7437   6.488   5.295   8.574  2.3858  0.3251 -0.8306
   67CHL1  H27C 7438   6.547   5.435   8.674  1.3702 -0.4287 -2.8297
   68CHL1    C3 7439   4.032   5.998  10.207 -0.5646  0.1840 -0.4031
   68CHL1    H3 7440   3.935   5.944  10.218 -0.8872  0.6312 -1.0006
   68CHL1    O3 7441   4.085   6.015  10.340  0.1795 -0.4585  1.0443
   68CHL1   H3' 7442   4.102   5.924  10.364 -1.1245 -1.5849 -1.8010
   68CHL1    C4 7443   4.122   5.897  10.131  0.4120  0.8229 -0.0390
   68CHL1   H4A 7444   4.221   5.946  10.144  0.3418  0.5454  1.7847
   68CHL1   H4B 7445   4.131   5.798  10.180 -0.6284  0.0083 -1.4326
   68CHL1    C5 7446   4.070   5.872   9.993  0.1995 -1.0793  0.0464
   68CHL1    C6 7447   4.039   5.751   9.948 -0.0168  0.7362  1.0303
   68CHL1    H6 7448   4.065   5.663  10.008  0.5028 -1.3453 -1.9965
   68CHL1    C7 7449   3.997   5.721   9.806  0.0096  0.0754 -0.0144
   68CHL1   H7A 7450   4.055   5.633   9.770 -1.9477 -0.9521 -0.7841
   68CHL1   H7B 7451   3.889   5.698   9.804 -0.1174  0.6885 -0.4994
   68CHL1    C8 7452   4.021   5.839   9.709 -0.0617 -1.2401  0.0783
   68CHL1    H8 7453   4.131   5.840   9.694  0.0490  0.4808  0.7392
   68CHL1   C14 7454   3.951   5.823   9.574 -0.2453  0.7926  0.5566
   68CHL1   H14 7455   3.842   5.812   9.596 -0.3481 -0.0500 -0.2971
   68CHL1   C15 7456   3.988   5.699   9.495  0.2779 -0.3558 -0.2250
   68CHL1  H15A 7457   4.097   5.683   9.513 -0.0540 -0.1631  2.4295
   68CHL1  H15B 7458   3.936   5.614   9.543 -0.5829 -2.3799 -4.2804
   68CHL1   C16 7459   3.964   5.727   9.348  0.1553  0.3264 -0.2042
   68CHL1  H16A 7460   4.064   5.715   9.302  1.6717  0.1012  2.9324
   68CHL1  H16B 7461   3.887   5.665   9.297  0.0015  0.6563 -0.3846
   68CHL1   C17 7462   3.918   5.878   9.347 -0.6208  0.5567 -0.2904
   68CHL1   H17 7463   3.808   5.880   9.356 -0.5818  3.0774  0.2752
   68CHL1   C13 7464   3.984   5.935   9.479  0.6444 -0.4844  0.7099
   68CHL1   C18 7465   4.141   5.951   9.467 -0.5904  0.0977  0.5869
   68CHL1  H18A 7466   4.183   5.992   9.562 -0.0676 -0.5044  0.6221
   68CHL1  H18B 7467   4.198   5.861   9.436 -1.2446 -0.2716  0.4486
   68CHL1  H18C 7468   4.160   6.031   9.392  0.1458  1.3770  2.0615
   68CHL1   C12 7469   3.920   6.062   9.540 -0.0945 -0.1117 -0.2436
   68CHL1  H12A 7470   3.928   6.154   9.478 -2.5789  0.3285 -0.0386
   68CHL1  H12B 7471   3.810   6.046   9.551 -0.3927  1.6559 -0.3489
   68CHL1   C11 7472   3.983   6.095   9.677  0.0066 -0.2685  0.2404
   68CHL1  H11A 7473   4.080   6.147   9.664  0.8943 -1.6817  0.9679
   68CHL1  H11B 7474   3.923   6.171   9.732 -0.3882 -0.1757 -0.3045
   68CHL1    C9 7475   3.978   5.973   9.775  0.3201 -0.2578 -0.0992
   68CHL1    H9 7476   3.870   5.951   9.794  0.5983 -3.0786 -1.3520
   68CHL1   C10 7477   4.057   6.005   9.910 -0.8631  0.0206  0.0586
   68CHL1   C19 7478   4.199   6.057   9.869 -0.2522 -0.1082  0.1185
   68CHL1  H19A 7479   4.183   6.161   9.836  2.7988 -0.6417 -3.7728
   68CHL1  H19B 7480   4.278   6.053   9.947 -0.7021 -1.1454  0.5521
   68CHL1  H19C 7481   4.230   5.996   9.781 -1.8810  0.3884 -0.8315
   68CHL1    C1 7482   3.977   6.108   9.987 -0.6360  0.4240  0.3736
   68CHL1   H1A 7483   3.981   6.208   9.939 -1.9112  0.1875 -0.2792
   68CHL1   H1B 7484   3.872   6.072   9.974 -0.4889  0.4796 -1.1341
   68CHL1    C2 7485   4.026   6.129  10.138  0.1478 -0.0022 -0.2850
   68CHL1   H2A 7486   3.973   6.204  10.200  1.2433 -1.2840  2.3992
   68CHL1   H2B 7487   4.129   6.168  10.128  0.3608 -0.2352  0.8318
   68CHL1   C20 7488   3.940   5.954   9.214  0.6939  0.3058  0.0874
   68CHL1   H20 7489   4.044   5.995   9.215  0.8467 -0.0354 -0.8222
   68CHL1   C21 7490   3.859   6.080   9.198 -0.2200 -0.5295 -0.1506
   68CHL1  H21A 7491   3.870   6.130   9.099  2.7342 -0.0438  0.3346
   68CHL1  H21B 7492   3.903   6.152   9.270  1.4762 -1.0837 -0.5878
   68CHL1  H21C 7493   3.752   6.070   9.227 -0.5628  0.1447 -1.1256
   68CHL1   C22 7494   3.922   5.862   9.091  0.5084  0.2276 -0.1703
   68CHL1  H22A 7495   3.982   5.768   9.095  0.9744  0.5501  2.0053
   68CHL1  H22B 7496   3.816   5.830   9.085  0.9468 -1.1733 -0.9433
   68CHL1   C23 7497   3.964   5.926   8.960 -0.4183 -0.6098  0.0366
   68CHL1  H23A 7498   3.902   6.014   8.932 -0.2224 -0.4306  0.1640
   68CHL1  H23B 7499   4.066   5.969   8.969  0.3298 -2.4525  0.8735
   68CHL1   C24 7500   3.963   5.818   8.855 -0.0605  0.1980  0.2098
   68CHL1  H24A 7501   4.041   5.741   8.874  1.1871  1.2525 -0.4643
   68CHL1  H24B 7502   3.863   5.769   8.861  0.4382 -1.4319 -2.7942
   68CHL1   C25 7503   3.960   5.869   8.706 -1.0270 -0.6250  0.4162
   68CHL1   H25 7504   4.065   5.904   8.697 -1.0052 -0.3346  1.6061
   68CHL1   C26 7505   3.937   5.748   8.611 -0.1918  0.2061 -0.1269
   68CHL1  H26A 7506   3.969   5.786   8.512 -0.9898  0.3959 -0.3127
   68CHL1  H26B 7507   4.000   5.659   8.634  0.3297  0.4275 -0.6799
   68CHL1  H26C 7508   3.832   5.713   8.615 -0.0947 -0.5307 -2.5870
   68CHL1   C27 7509   3.861   5.980   8.668  0.0542 -0.0524 -0.1861
   68CHL1  H27A 7510   3.849   5.980   8.557  0.7377 -0.6020 -0.2686
   68CHL1  H27B 7511   3.759   5.961   8.709 -0.7547 -1.7205 -2.7185
   68CHL1  H27C 7512   3.905   6.079   8.691  2.3505 -0.7285 -1.3621
   69CHL1    C3 7513   4.130   1.909   6.853  0.1539  0.4956  0.1595
   69CHL1    H3 7514   4.235   1.905   6.889  0.5053  0.4754 -0.8367
   69CHL1    O3 7515   4.141   1.902   6.710  0.4072 -0.5893 -0.5422
   69CHL1   H3' 7516   4.200   1.826   6.707  3.4194  1.5732 -2.2508
   69CHL1    C4 7517   4.057   1.781   6.913 -0.1123 -0.0587 -0.2962
   69CHL1   H4A 7518   3.958   1.783   6.861 -0.0642  0.2430 -0.3780
   69CHL1   H4B 7519   4.110   1.704   6.854 -0.6289 -0.3940 -0.3252
   69CHL1    C5 7520   4.070   1.778   7.070 -0.6175  0.3202 -0.0134
   69CHL1    C6 7521   4.144   1.691   7.145  0.9817  0.4231  0.7728
   69CHL1    H6 7522   4.203   1.611   7.099 -1.0671 -0.6580 -0.1126
   69CHL1    C7 7523   4.149   1.690   7.293  0.4024 -0.2216 -0.0736
   69CHL1   H7A 7524   4.120   1.588   7.327 -1.7015  0.2039 -0.4645
   69CHL1   H7B 7525   4.246   1.705   7.344 -0.4362  1.0687  1.1914
   69CHL1    C8 7526   4.033   1.779   7.360 -0.1967  0.2110  0.7922
   69CHL1    H8 7527   3.943   1.716   7.348  0.2822 -0.5677  1.1824
   69CHL1   C14 7528   4.058   1.798   7.508  0.1610 -0.4482 -0.4574
   69CHL1   H14 7529   4.154   1.854   7.519 -0.3824  0.4077  0.0265
   69CHL1   C15 7530   4.089   1.677   7.606  0.3757 -0.4098  0.6431
   69CHL1  H15A 7531   4.022   1.600   7.563  0.9253 -0.8425  0.5414
   69CHL1  H15B 7532   4.198   1.653   7.600 -0.0847 -2.3885 -1.1143
   69CHL1   C16 7533   4.059   1.736   7.741 -0.2268 -0.1649  0.7040
   69CHL1  H16A 7534   3.984   1.682   7.803  0.7369 -2.6647 -0.2310
   69CHL1  H16B 7535   4.153   1.744   7.800 -1.3985  0.3929  2.5952
   69CHL1   C17 7536   4.000   1.884   7.719 -0.5888 -0.8548  0.0254
   69CHL1   H17 7537   4.084   1.957   7.725  0.4460 -1.9407 -0.6324
   69CHL1   C13 7538   3.951   1.887   7.573  0.5767 -1.1668 -0.1875
   69CHL1   C18 7539   3.811   1.820   7.567  0.1534 -0.1199  0.7694
   69CHL1  H18A 7540   3.821   1.724   7.622 -0.4210 -0.7310 -0.1720
   69CHL1  H18B 7541   3.732   1.877   7.620  0.3712  0.8332  0.0791
   69CHL1  H18C 7542   3.755   1.816   7.471 -2.1527 -1.0248  2.0724
   69CHL1   C12 7543   3.948   2.022   7.504 -0.3740  0.1205  0.0038
   69CHL1  H12A 7544   3.870   2.090   7.545  0.5961  0.4484  1.3779
   69CHL1  H12B 7545   4.043   2.080   7.514 -0.7640  0.8666 -0.5332
   69CHL1   C11 7546   3.913   2.015   7.360 -0.0255  0.0424 -0.0973
   69CHL1  H11A 7547   3.808   1.979   7.357 -0.3305  0.7231  1.2388
   69CHL1  H11B 7548   3.909   2.109   7.302 -1.0435 -1.3550 -2.4435
   69CHL1    C9 7549   4.012   1.915   7.281  0.2872 -0.7997 -0.2902
   69CHL1    H9 7550   4.108   1.971   7.287 -0.0266  0.0745 -2.3812
   69CHL1   C10 7551   3.996   1.904   7.128 -0.8343  0.5809  0.0725
   69CHL1   C19 7552   3.848   1.890   7.092  0.1721  0.4171  1.1506
   69CHL1  H19A 7553   3.809   1.792   7.128  1.4501 -0.0049  1.4411
   69CHL1  H19B 7554   3.792   1.979   7.127  0.6563  0.9788  0.5076
   69CHL1  H19C 7555   3.826   1.885   6.983  0.2753  0.9613  1.1040
   69CHL1    C1 7556   4.069   2.029   7.057  0.4612  0.4209  0.7550
   69CHL1   H1A 7557   4.022   2.121   7.099 -0.5373  0.1005  0.3814
   69CHL1   H1B 7558   4.177   2.032   7.083  0.9639 -1.2164 -0.9503
   69CHL1    C2 7559   4.066   2.037   6.903 -0.3873  0.1526 -0.8022
   69CHL1   H2A 7560   4.128   2.123   6.870 -0.8188  0.4301 -0.9008
   69CHL1   H2B 7561   3.966   2.050   6.857  0.3738  1.1174 -2.2787
   69CHL1   C20 7562   3.908   1.922   7.838  0.1749  0.0284 -0.1366
   69CHL1   H20 7563   3.820   1.855   7.825 -1.0645  1.1593  1.9279
   69CHL1   C21 7564   3.869   2.070   7.821 -0.0100 -0.2761  0.4711
   69CHL1  H21A 7565   3.814   2.097   7.915  0.1909 -0.0166  0.5163
   69CHL1  H21B 7566   3.800   2.091   7.736  4.4894  2.9790 -2.8760
   69CHL1  H21C 7567   3.956   2.138   7.821 -1.3616  1.5578  1.1620
   69CHL1   C22 7568   3.970   1.900   7.979  0.0631 -0.3407  0.1577
   69CHL1  H22A 7569   3.900   1.931   8.061  1.4563  0.5501  1.0606
   69CHL1  H22B 7570   3.989   1.793   8.001  1.2049 -0.0060  0.9157
   69CHL1   C23 7571   4.092   1.991   8.012 -0.5064  0.3276 -0.0169
   69CHL1  H23A 7572   4.165   1.981   7.930  0.3414  0.9909  0.6376
   69CHL1  H23B 7573   4.065   2.098   8.025  0.6168  0.3723  2.7720
   69CHL1   C24 7574   4.160   1.945   8.143  0.0881  0.5826 -0.0203
   69CHL1  H24A 7575   4.084   1.947   8.224  0.9126  1.4433  0.7701
   69CHL1  H24B 7576   4.176   1.836   8.123 -0.6566  0.9454 -2.9296
   69CHL1   C25 7577   4.297   2.000   8.180 -0.0325 -0.3116 -0.6958
   69CHL1   H25 7578   4.356   2.000   8.086 -1.0442  0.1872 -1.3466
   69CHL1   C26 7579   4.285   2.137   8.241 -0.0742  0.0234  0.7861
   69CHL1  H26A 7580   4.234   2.215   8.180  1.0338  0.8407  0.8842
   69CHL1  H26B 7581   4.227   2.127   8.335 -0.4889  0.0035  0.5302
   69CHL1  H26C 7582   4.393   2.159   8.252 -0.0713  0.6358 -0.3706
   69CHL1   C27 7583   4.373   1.910   8.288 -0.4287  0.2950  0.3738
   69CHL1  H27A 7584   4.301   1.881   8.367 -1.0609 -0.1999 -0.3662
   69CHL1  H27B 7585   4.395   1.812   8.241 -1.9225  0.0255  0.1854
   69CHL1  H27C 7586   4.473   1.950   8.315 -0.7049  0.3860  1.2878
   70CHL1    C3 7587   3.003   4.566   6.949 -0.4884  0.1034  0.2143
   70CHL1    H3 7588   3.054   4.480   6.998 -0.8157 -1.1623 -1.5503
   70CHL1    O3 7589   3.069   4.585   6.824  0.1236  0.0163  0.5667
   70CHL1   H3' 7590   2.995   4.620   6.774 -0.2063  1.0248  1.6890
   70CHL1    C4 7591   2.858   4.522   6.913 -0.4243 -0.3752  0.1623
   70CHL1   H4A 7592   2.798   4.591   6.850 -0.2670 -0.1934  0.2126
   70CHL1   H4B 7593   2.864   4.432   6.847  1.3705  0.1435 -0.4194
   70CHL1    C5 7594   2.775   4.490   7.039 -0.2111 -0.4685 -0.4654
   70CHL1    C6 7595   2.720   4.369   7.065  0.1185 -0.7541  0.5800
   70CHL1    H6 7596   2.714   4.314   6.970 -0.9627 -0.1104  0.2507
   70CHL1    C7 7597   2.655   4.315   7.193 -0.1234 -0.4204  0.1899
   70CHL1   H7A 7598   2.562   4.255   7.180  0.5599 -1.4059 -0.2742
   70CHL1   H7B 7599   2.719   4.245   7.251  0.0647  2.5426  3.9445
   70CHL1    C8 7600   2.625   4.430   7.299  0.3099 -0.0173 -0.5102
   70CHL1    H8 7601   2.530   4.478   7.270 -0.7545 -1.8099 -0.1409
   70CHL1   C14 7602   2.594   4.374   7.439  0.4507  0.3485  0.3188
   70CHL1   H14 7603   2.685   4.327   7.482  0.8688  1.0953  0.2728
   70CHL1   C15 7604   2.484   4.272   7.444  0.2183  1.2192  0.0818
   70CHL1  H15A 7605   2.395   4.303   7.385  1.0377  0.8710 -1.3894
   70CHL1  H15B 7606   2.512   4.170   7.408  0.9069  0.8707  1.5339
   70CHL1   C16 7607   2.437   4.266   7.592 -0.1594 -0.3259  0.5628
   70CHL1  H16A 7608   2.330   4.294   7.589 -0.3937 -1.2632 -1.1658
   70CHL1  H16B 7609   2.441   4.162   7.633 -1.1727 -0.8831 -0.6834
   70CHL1   C17 7610   2.520   4.380   7.662  0.4420 -0.3708  0.3103
   70CHL1   H17 7611   2.615   4.327   7.685 -0.1485 -2.1394 -1.1237
   70CHL1   C13 7612   2.553   4.473   7.542  0.0164 -0.2570 -0.1136
   70CHL1   C18 7613   2.427   4.560   7.513  0.1852  0.4400 -0.7415
   70CHL1  H18A 7614   2.425   4.599   7.409  1.3121  3.2527  0.1679
   70CHL1  H18B 7615   2.344   4.487   7.513  1.1329 -0.7033 -2.4302
   70CHL1  H18C 7616   2.406   4.640   7.587 -0.1533 -1.9840  1.9599
   70CHL1   C12 7617   2.673   4.569   7.554 -0.4631  0.1510  0.1220
   70CHL1  H12A 7618   2.640   4.656   7.616 -0.7582  0.5560 -0.5865
   70CHL1  H12B 7619   2.761   4.518   7.597 -0.0567  0.7187 -0.0222
   70CHL1   C11 7620   2.714   4.635   7.420 -0.6089  0.5257 -1.0081
   70CHL1  H11A 7621   2.648   4.715   7.380  0.5378  2.5784  0.9177
   70CHL1  H11B 7622   2.813   4.683   7.433  1.5693 -4.0468  1.5298
   70CHL1    C9 7623   2.744   4.531   7.309  0.2812 -0.7762 -0.5912
   70CHL1    H9 7624   2.828   4.467   7.343 -0.8653 -1.3360  1.3774
   70CHL1   C10 7625   2.783   4.591   7.156  0.5452 -0.2934 -0.7742
   70CHL1   C19 7626   2.676   4.704   7.120  0.0867 -0.7080 -1.1603
   70CHL1  H19A 7627   2.671   4.716   7.010 -2.5445  1.2684 -0.9221
   70CHL1  H19B 7628   2.572   4.670   7.138  0.1349 -0.0248  0.6292
   70CHL1  H19C 7629   2.696   4.800   7.173 -1.2040 -0.2496 -1.4795
   70CHL1    C1 7630   2.931   4.658   7.168  0.2159  0.3769 -0.2789
   70CHL1   H1A 7631   2.916   4.739   7.243 -1.4008  1.0605 -1.2956
   70CHL1   H1B 7632   2.987   4.580   7.223 -0.9203  1.2081  2.2239
   70CHL1    C2 7633   3.001   4.688   7.035 -0.1884  0.0601  0.0445
   70CHL1   H2A 7634   3.108   4.715   7.052 -0.2310  0.2704 -0.0230
   70CHL1   H2B 7635   2.947   4.775   6.992  0.9597  0.6402 -0.2587
   70CHL1   C20 7636   2.459   4.430   7.796  0.2690 -0.1459 -0.1463
   70CHL1   H20 7637   2.365   4.480   7.766  0.6316  1.9181  1.9407
   70CHL1   C21 7638   2.555   4.526   7.871 -0.0235 -0.2068 -0.1761
   70CHL1  H21A 7639   2.606   4.604   7.811  0.7843  0.3562  1.2041
   70CHL1  H21B 7640   2.629   4.468   7.930 -1.0160 -0.4634  0.8617
   70CHL1  H21C 7641   2.486   4.580   7.939  0.1002  0.5278 -0.6278
   70CHL1   C22 7642   2.418   4.312   7.893  1.5910 -0.5170  0.3839
   70CHL1  H22A 7643   2.347   4.237   7.852  1.5398 -1.4418  2.0907
   70CHL1  H22B 7644   2.514   4.264   7.921  0.5788 -2.0174  1.4317
   70CHL1   C23 7645   2.345   4.359   8.025  0.0798  0.0116  0.6260
   70CHL1  H23A 7646   2.395   4.450   8.065  2.4410 -0.0792 -1.8185
   70CHL1  H23B 7647   2.244   4.384   7.988  0.2804  0.3260  0.2907
   70CHL1   C24 7648   2.345   4.247   8.133  0.2705  0.0755  0.0697
   70CHL1  H24A 7649   2.309   4.152   8.090  0.8214  1.3364 -3.6524
   70CHL1  H24B 7650   2.449   4.239   8.173  0.5002  1.4292 -0.1857
   70CHL1   C25 7651   2.252   4.274   8.251 -0.4165 -0.1480  0.0529
   70CHL1   H25 7652   2.144   4.288   8.226 -0.3873  1.4334  0.6964
   70CHL1   C26 7653   2.247   4.150   8.347  0.0478  0.0725  0.1154
   70CHL1  H26A 7654   2.352   4.116   8.360  0.0722 -0.7126 -1.7608
   70CHL1  H26B 7655   2.201   4.167   8.446  0.0541  1.2931 -0.0747
   70CHL1  H26C 7656   2.194   4.065   8.300  0.6237 -0.7561  0.9340
   70CHL1   C27 7657   2.290   4.402   8.328 -0.3596 -0.2707  0.1385
   70CHL1  H27A 7658   2.378   4.376   8.392 -1.2821 -1.1811  1.0796
   70CHL1  H27B 7659   2.314   4.477   8.249 -0.6612 -1.9107 -1.5840
   70CHL1  H27C 7660   2.210   4.436   8.397 -0.1584  0.8275 -0.1536
   71CHL1    C3 7661   0.473   0.552   7.090  0.6715  0.2440  0.0524
   71CHL1    H3 7662   0.369   0.572   7.126  1.2155  2.7772  0.3851
   71CHL1    O3 7663   0.475   0.543   6.952 -0.1295 -0.0135  0.7927
   71CHL1   H3' 7664   0.446   0.625   6.912 -0.3161 -0.5596 -0.2143
   71CHL1    C4 7665   0.568   0.662   7.142 -0.3164  0.4526  0.3024
   71CHL1   H4A 7666   0.665   0.631   7.096 -1.6709 -1.2665 -1.5722
   71CHL1   H4B 7667   0.535   0.758   7.096 -0.7324 -0.4750 -1.4294
   71CHL1    C5 7668   0.554   0.664   7.293  0.0903  0.0270  0.1360
   71CHL1    C6 7669   0.531   0.779   7.356  0.1239  0.0379  0.2047
   71CHL1    H6 7670   0.522   0.870   7.295  2.6157  0.9400  1.0519
   71CHL1    C7 7671   0.521   0.801   7.504  0.3404 -0.2958  0.3070
   71CHL1   H7A 7672   0.566   0.897   7.538  0.9435 -0.1517 -0.8332
   71CHL1   H7B 7673   0.419   0.809   7.547 -0.0002  0.4457 -0.5953
   71CHL1    C8 7674   0.586   0.685   7.585  0.3134  0.5063  0.3583
   71CHL1    H8 7675   0.696   0.693   7.575  0.2860 -0.0061 -0.4899
   71CHL1   C14 7676   0.543   0.682   7.733  0.1577 -0.2175  0.0243
   71CHL1   H14 7677   0.435   0.657   7.723  0.0445  0.7505 -1.5808
   71CHL1   C15 7678   0.561   0.810   7.810  0.9031  0.0463  0.4015
   71CHL1  H15A 7679   0.662   0.851   7.792  1.7839 -1.8099  0.9447
   71CHL1  H15B 7680   0.474   0.876   7.789  0.1257 -1.4064 -1.2213
   71CHL1   C16 7681   0.544   0.768   7.958 -1.1678 -0.0195  0.1480
   71CHL1  H16A 7682   0.633   0.806   8.013 -0.8544 -0.1583 -0.2625
   71CHL1  H16B 7683   0.452   0.795   8.014 -0.6590 -0.2881  1.1332
   71CHL1   C17 7684   0.541   0.608   7.956  0.0975  1.0688  0.1873
   71CHL1   H17 7685   0.434   0.577   7.961  0.5941 -0.7155  0.0693
   71CHL1   C13 7686   0.599   0.566   7.820 -0.2667 -0.7501 -0.5365
   71CHL1   C18 7687   0.756   0.576   7.820 -0.0495 -0.2758 -0.3022
   71CHL1  H18A 7688   0.783   0.662   7.885 -1.0443  0.7820 -1.2569
   71CHL1  H18B 7689   0.790   0.484   7.872  2.9085 -0.1751 -1.8203
   71CHL1  H18C 7690   0.810   0.570   7.724  3.1220 -0.3957  1.3489
   71CHL1   C12 7691   0.542   0.434   7.764 -0.2237  0.0753 -0.6969
   71CHL1  H12A 7692   0.583   0.343   7.815  0.9260 -0.2187 -2.0974
   71CHL1  H12B 7693   0.435   0.442   7.793 -0.2366  0.1494 -0.7656
   71CHL1   C11 7694   0.563   0.422   7.611 -0.3435 -0.0763  0.2675
   71CHL1  H11A 7695   0.674   0.409   7.604 -0.2887  0.8119 -0.8657
   71CHL1  H11B 7696   0.520   0.327   7.574 -2.8148  1.4359 -1.0506
   71CHL1    C9 7697   0.530   0.548   7.521  0.2237  0.6132 -0.6286
   71CHL1    H9 7698   0.420   0.557   7.521  0.2804  1.8535  1.4033
   71CHL1   C10 7699   0.570   0.526   7.373  0.3496 -0.2369 -1.1798
   71CHL1   C19 7700   0.721   0.500   7.360 -0.4893  1.0993  0.3882
   71CHL1  H19A 7701   0.777   0.580   7.413 -0.3485  0.8785  0.5701
   71CHL1  H19B 7702   0.743   0.395   7.388 -3.3876  0.4488  0.5290
   71CHL1  H19C 7703   0.757   0.519   7.256  1.3449  2.8299  1.2680
   71CHL1    C1 7704   0.482   0.415   7.310  0.1810  0.4692  0.1414
   71CHL1   H1A 7705   0.514   0.316   7.349 -1.4146 -0.7880 -1.5281
   71CHL1   H1B 7706   0.375   0.429   7.338  0.4372  2.2469  0.3440
   71CHL1    C2 7707   0.503   0.411   7.154 -0.4989  0.5274 -0.2645
   71CHL1   H2A 7708   0.438   0.336   7.104 -2.1094  0.1581  2.2145
   71CHL1   H2B 7709   0.607   0.394   7.119 -0.1025  0.4600  0.9127
   71CHL1   C20 7710   0.604   0.550   8.089 -0.4933  0.5847  0.0704
   71CHL1   H20 7711   0.713   0.572   8.085 -0.8664  2.8580  1.2737
   71CHL1   C21 7712   0.602   0.396   8.105  0.4952  0.3762 -0.8674
   71CHL1  H21A 7713   0.504   0.343   8.110  0.1870  0.8028 -2.1039
   71CHL1  H21B 7714   0.675   0.369   8.184 -1.0468 -0.8059  0.2236
   71CHL1  H21C 7715   0.641   0.339   8.018 -1.5382 -1.6710 -0.5616
   71CHL1   C22 7716   0.537   0.624   8.209 -0.2383 -0.1361  0.4788
   71CHL1  H22A 7717   0.557   0.732   8.196  2.9765 -0.8737 -1.9796
   71CHL1  H22B 7718   0.428   0.605   8.202 -0.3903  1.2734 -1.7888
   71CHL1   C23 7719   0.597   0.578   8.341 -0.5024 -0.9206  0.3397
   71CHL1  H23A 7720   0.579   0.471   8.363 -0.9639 -1.2788 -1.6665
   71CHL1  H23B 7721   0.706   0.594   8.351 -0.6545 -0.5706  1.6166
   71CHL1   C24 7722   0.531   0.669   8.453 -0.2697 -0.2990 -0.8889
   71CHL1  H24A 7723   0.580   0.768   8.439 -0.8973  0.3521  1.2630
   71CHL1  H24B 7724   0.423   0.693   8.444  0.0622  2.4371  1.1537
   71CHL1   C25 7725   0.552   0.624   8.600 -0.5516  0.3723 -0.7217
   71CHL1   H25 7726   0.512   0.521   8.613 -1.2312  0.1838 -3.5352
   71CHL1   C26 7727   0.692   0.622   8.638 -0.5133 -0.0731  0.3233
   71CHL1  H26A 7728   0.742   0.720   8.625 -1.1813  0.1040 -1.1283
   71CHL1  H26B 7729   0.701   0.593   8.744  0.2923  1.5781  0.7432
   71CHL1  H26C 7730   0.748   0.554   8.570 -1.3516 -1.1500  0.6746
   71CHL1   C27 7731   0.470   0.709   8.695  0.5825 -0.0259  0.0521
   71CHL1  H27A 7732   0.485   0.819   8.684 -0.8427  0.3659  1.6424
   71CHL1  H27B 7733   0.367   0.684   8.661  0.3087  0.1382  0.7472
   71CHL1  H27C 7734   0.479   0.679   8.801  1.3956 -2.3868 -0.6218
   72CHL1    C3 7735   1.171   4.717   7.227 -0.0460 -0.3688 -0.6291
   72CHL1    H3 7736   1.098   4.789   7.269  1.1125 -0.3742  1.5589
   72CHL1    O3 7737   1.177   4.734   7.083  0.1949 -0.1709 -0.6901
   72CHL1   H3' 7738   1.256   4.784   7.062  2.5177 -3.1360  0.4179
   72CHL1    C4 7739   1.312   4.748   7.291  0.2834 -0.0813 -0.2289
   72CHL1   H4A 7740   1.381   4.674   7.245 -3.1751 -2.4567 -2.0535
   72CHL1   H4B 7741   1.342   4.853   7.268 -0.9617  0.0358 -1.4869
   72CHL1    C5 7742   1.308   4.744   7.444 -0.6483  0.0734  0.3237
   72CHL1    C6 7743   1.335   4.853   7.525 -0.6693 -0.4758  0.6644
   72CHL1    H6 7744   1.364   4.947   7.476  0.4773 -1.7826 -1.2752
   72CHL1    C7 7745   1.346   4.851   7.673 -0.1289  0.1264 -0.4288
   72CHL1   H7A 7746   1.448   4.887   7.700  1.1907 -1.0716 -3.2899
   72CHL1   H7B 7747   1.282   4.928   7.719  0.5469  0.4688 -0.0376
   72CHL1    C8 7748   1.333   4.711   7.736 -0.1244  0.3826 -1.0589
   72CHL1    H8 7749   1.433   4.662   7.732  0.7357  2.0807 -1.3622
   72CHL1   C14 7750   1.287   4.734   7.881  0.0678 -0.3361 -0.5666
   72CHL1   H14 7751   1.191   4.791   7.881  0.6685  0.7495 -2.1126
   72CHL1   C15 7752   1.382   4.820   7.973  0.4178 -0.3762  0.1738
   72CHL1  H15A 7753   1.485   4.786   7.952  1.2944  0.9309  2.0838
   72CHL1  H15B 7754   1.371   4.929   7.955 -1.0916 -0.6310 -0.5948
   72CHL1   C16 7755   1.344   4.783   8.117  0.1457 -0.2429  0.0708
   72CHL1  H16A 7756   1.431   4.737   8.168  1.2419  3.3913  1.7763
   72CHL1  H16B 7757   1.309   4.865   8.183 -0.6995  0.5053 -1.2440
   72CHL1   C17 7758   1.223   4.682   8.100 -0.0893  0.4083  0.1034
   72CHL1   H17 7759   1.134   4.745   8.076 -0.1272  0.2688 -0.1215
   72CHL1   C13 7760   1.257   4.604   7.963  0.1443 -0.2947  0.3484
   72CHL1   C18 7761   1.378   4.509   7.988  0.0747  0.3717  0.2592
   72CHL1  H18A 7762   1.421   4.465   7.896  1.2080  0.9938  0.4715
   72CHL1  H18B 7763   1.460   4.568   8.035  0.7511 -0.4628  0.1498
   72CHL1  H18C 7764   1.345   4.431   8.060 -1.5954  1.5799  0.8888
   72CHL1   C12 7765   1.147   4.531   7.884 -0.4930  0.5975  0.0045
   72CHL1  H12A 7766   1.111   4.432   7.921  3.1074 -0.1420  2.0609
   72CHL1  H12B 7767   1.062   4.602   7.883 -0.0096  1.2471  1.5362
   72CHL1   C11 7768   1.189   4.502   7.739  0.2101 -0.0520  0.4775
   72CHL1  H11A 7769   1.277   4.435   7.737  0.2995  0.0749 -0.1559
   72CHL1  H11B 7770   1.107   4.438   7.697  2.4194 -2.7712  0.0193
   72CHL1    C9 7771   1.228   4.632   7.661  0.0394  0.1180  0.5687
   72CHL1    H9 7772   1.132   4.689   7.660  0.9830  1.7579 -0.3951
   72CHL1   C10 7773   1.258   4.612   7.508 -0.7424 -0.2387 -0.0669
   72CHL1   C19 7774   1.375   4.514   7.486 -0.5479 -0.1793  0.0049
   72CHL1  H19A 7775   1.350   4.407   7.503 -0.0729 -0.6058 -1.8206
   72CHL1  H19B 7776   1.399   4.504   7.378 -2.0615 -1.4712 -0.2424
   72CHL1  H19C 7777   1.467   4.542   7.541  0.3347 -1.3655 -0.8383
   72CHL1    C1 7778   1.128   4.562   7.427 -0.3316 -0.6322  0.0715
   72CHL1   H1A 7779   1.103   4.459   7.461  0.1025 -0.5225  0.7426
   72CHL1   H1B 7780   1.047   4.632   7.456  1.4141  1.3354  0.4666
   72CHL1    C2 7781   1.131   4.575   7.269 -0.4187  0.7897 -0.5576
   72CHL1   H2A 7782   1.040   4.544   7.215  1.5290 -1.8519 -2.5434
   72CHL1   H2B 7783   1.220   4.523   7.229  1.4012  2.4447  1.0705
   72CHL1   C20 7784   1.212   4.608   8.230  1.1039 -0.2130  0.1269
   72CHL1   H20 7785   1.307   4.559   8.261  1.0913 -0.1743  0.2275
   72CHL1   C21 7786   1.108   4.491   8.223  0.6965 -0.1892  0.1463
   72CHL1  H21A 7787   1.007   4.527   8.192  0.3742  0.0823  1.4432
   72CHL1  H21B 7788   1.099   4.429   8.315 -3.4838  0.3289  0.2761
   72CHL1  H21C 7789   1.130   4.439   8.128  0.5490  0.0554 -0.0225
   72CHL1   C22 7790   1.188   4.713   8.345 -0.4046  0.6695 -0.3056
   72CHL1  H22A 7791   1.284   4.758   8.376 -0.5134  0.8925 -0.2929
   72CHL1  H22B 7792   1.115   4.790   8.313  1.0912  3.1202  1.7853
   72CHL1   C23 7793   1.122   4.647   8.476  0.6734 -0.1354 -0.6481
   72CHL1  H23A 7794   1.018   4.617   8.452  0.6891  1.1569 -2.5994
   72CHL1  H23B 7795   1.175   4.553   8.502  1.9625  0.5256 -0.8021
   72CHL1   C24 7796   1.124   4.757   8.590 -0.0953  0.9267 -0.0762
   72CHL1  H24A 7797   1.231   4.789   8.595  0.2521 -0.3799  3.4006
   72CHL1  H24B 7798   1.064   4.846   8.565  0.3780  1.5247  0.8596
   72CHL1   C25 7799   1.075   4.718   8.729 -0.3532  0.4263 -0.0331
   72CHL1   H25 7800   1.084   4.806   8.797  0.2006 -0.4068  0.9966
   72CHL1   C26 7801   0.931   4.685   8.714 -0.7609  0.1329  0.3254
   72CHL1  H26A 7802   0.924   4.582   8.672 -0.1085  0.3957 -0.4613
   72CHL1  H26B 7803   0.879   4.671   8.811  0.1326 -1.6307  0.5963
   72CHL1  H26C 7804   0.879   4.764   8.655 -0.6311  1.7460  2.2703
   72CHL1   C27 7805   1.142   4.598   8.788 -0.7474  1.2797  0.1273
   72CHL1  H27A 7806   1.087   4.538   8.863  2.3048  0.0682  1.5534
   72CHL1  H27B 7807   1.157   4.521   8.710  2.2611 -0.0646  1.8364
   72CHL1  H27C 7808   1.237   4.614   8.843  0.2130 -1.3752 -0.5993
   73CHL1    C3 7809   2.801   2.850   6.963 -0.2029  0.2776  0.0520
   73CHL1    H3 7810   2.805   2.959   6.982 -0.2762  0.9745 -3.3748
   73CHL1    O3 7811   2.762   2.827   6.826  0.1284 -0.3091 -0.2905
   73CHL1   H3' 7812   2.742   2.733   6.827  2.2637 -0.8211  0.9328
   73CHL1    C4 7813   2.942   2.793   6.980 -0.0502 -0.5786  1.1781
   73CHL1   H4A 7814   2.941   2.688   6.945 -0.0044  0.0227 -0.7454
   73CHL1   H4B 7815   3.009   2.842   6.905 -2.4949  1.4228  0.1589
   73CHL1    C5 7816   2.998   2.808   7.114 -0.2402 -0.5091 -0.1652
   73CHL1    C6 7817   3.107   2.880   7.139  0.2597  0.1754 -0.5593
   73CHL1    H6 7818   3.150   2.936   7.055 -2.0618  2.0680 -0.5815
   73CHL1    C7 7819   3.170   2.906   7.276 -0.2672  0.5631 -0.1270
   73CHL1   H7A 7820   3.281   2.901   7.275 -0.2691  0.4522  0.2131
   73CHL1   H7B 7821   3.150   3.009   7.312  2.5020  1.0255  0.2750
   73CHL1    C8 7822   3.108   2.812   7.384  0.3365  0.1595 -0.4505
   73CHL1    H8 7823   3.155   2.712   7.370 -0.1362 -0.2390  0.6433
   73CHL1   C14 7824   3.145   2.844   7.526 -0.4093  0.5115 -0.1640
   73CHL1   H14 7825   3.106   2.947   7.542 -1.6906  0.2168 -1.1839
   73CHL1   C15 7826   3.289   2.871   7.559 -0.1605  0.2383 -0.2375
   73CHL1  H15A 7827   3.353   2.790   7.520 -0.8474 -1.0781  1.2642
   73CHL1  H15B 7828   3.309   2.970   7.512  0.9212  0.1398 -0.0026
   73CHL1   C16 7829   3.301   2.870   7.707 -0.1901  0.4724 -0.2544
   73CHL1  H16A 7830   3.373   2.792   7.741  0.3364  1.3912  0.7879
   73CHL1  H16B 7831   3.337   2.963   7.755  1.2452  1.4041 -2.9481
   73CHL1   C17 7832   3.162   2.818   7.762 -0.6980 -0.0117 -0.1047
   73CHL1   H17 7833   3.091   2.896   7.795 -3.1563 -1.9296 -0.6079
   73CHL1   C13 7834   3.092   2.753   7.643  0.2161 -0.2913  0.5406
   73CHL1   C18 7835   3.149   2.607   7.622 -0.2946 -0.4624  0.5116
   73CHL1  H18A 7836   3.259   2.622   7.617 -0.6327  1.8341 -1.5713
   73CHL1  H18B 7837   3.125   2.542   7.709 -1.4786 -0.4752  0.2020
   73CHL1  H18C 7838   3.117   2.552   7.531  1.0988  0.9544 -0.8748
   73CHL1   C12 7839   2.937   2.754   7.642  0.1265  0.4976 -0.2710
   73CHL1  H12A 7840   2.897   2.673   7.706  2.0136  0.7885  1.3699
   73CHL1  H12B 7841   2.886   2.849   7.669 -0.5323  0.0049  0.2352
   73CHL1   C11 7842   2.891   2.719   7.495  0.1827  0.3332  0.0956
   73CHL1  H11A 7843   2.917   2.611   7.485  1.9362  0.4430  2.5690
   73CHL1  H11B 7844   2.781   2.734   7.488  0.2422  0.3332 -1.0529
   73CHL1    C9 7845   2.952   2.797   7.375  0.1476 -0.1134  0.4175
   73CHL1    H9 7846   2.898   2.893   7.390 -0.2193 -0.2848  0.2150
   73CHL1   C10 7847   2.915   2.748   7.230  0.6794  0.6983  0.0511
   73CHL1   C19 7848   2.930   2.588   7.228 -0.1651 -0.4938  0.4445
   73CHL1  H19A 7849   2.935   2.551   7.123 -1.2723  1.1762 -0.2321
   73CHL1  H19B 7850   3.025   2.566   7.282 -1.0649  0.7786  2.6496
   73CHL1  H19C 7851   2.847   2.543   7.286  0.3487  1.0631  2.5279
   73CHL1    C1 7852   2.759   2.772   7.199 -0.4282 -0.0475 -1.2559
   73CHL1   H1A 7853   2.701   2.699   7.259  0.6008  0.4258  0.3844
   73CHL1   H1B 7854   2.721   2.868   7.241 -1.2839 -1.4876  1.5236
   73CHL1    C2 7855   2.715   2.764   7.055 -0.3512  0.4805  0.5083
   73CHL1   H2A 7856   2.606   2.784   7.046 -1.1563 -2.9388  1.2652
   73CHL1   H2B 7857   2.721   2.663   7.009  1.2924 -0.2400  2.1876
   73CHL1   C20 7858   3.189   2.735   7.893 -0.3649  0.3509  0.7108
   73CHL1   H20 7859   3.249   2.648   7.859 -1.6286  0.1564 -1.1884
   73CHL1   C21 7860   3.051   2.693   7.940  0.6845  0.7420  0.2637
   73CHL1  H21A 7861   3.040   2.638   8.036  2.4988 -0.2053 -0.0224
   73CHL1  H21B 7862   3.017   2.624   7.861  0.3083 -2.1230  2.7628
   73CHL1  H21C 7863   2.992   2.787   7.932  0.3020  0.4049 -1.1542
   73CHL1   C22 7864   3.269   2.809   8.000  0.5403  0.2705  0.3089
   73CHL1  H22A 7865   3.263   2.747   8.092 -0.7929 -0.5781 -0.3144
   73CHL1  H22B 7866   3.376   2.822   7.973  0.0764  2.5096 -0.6450
   73CHL1   C23 7867   3.218   2.948   8.039  0.8373 -0.1683  0.1231
   73CHL1  H23A 7868   3.217   3.023   7.957 -2.8768 -0.6518 -0.4364
   73CHL1  H23B 7869   3.110   2.948   8.065  1.1465 -2.9518  1.6827
   73CHL1   C24 7870   3.300   3.004   8.159  0.0945  0.0557 -0.1322
   73CHL1  H24A 7871   3.276   2.944   8.249 -0.7711  2.2143  1.1599
   73CHL1  H24B 7872   3.407   2.975   8.146  0.4831  2.1050 -2.1083
   73CHL1   C25 7873   3.275   3.146   8.207  0.2997  0.3089  0.5892
   73CHL1   H25 7874   3.309   3.224   8.137  1.1019  0.4367  1.1039
   73CHL1   C26 7875   3.132   3.167   8.236  0.2377  0.2170  0.3128
   73CHL1  H26A 7876   3.074   3.179   8.141  1.1899 -1.1827 -0.4868
   73CHL1  H26B 7877   3.079   3.094   8.300 -1.8628  0.4085 -1.0964
   73CHL1  H26C 7878   3.117   3.266   8.284 -0.6446  0.0976  0.3148
   73CHL1   C27 7879   3.344   3.162   8.346 -0.0528  0.0502  0.0608
   73CHL1  H27A 7880   3.330   3.270   8.371 -0.2187 -0.0854  0.5657
   73CHL1  H27B 7881   3.289   3.103   8.422 -1.2049  0.9129 -0.0604
   73CHL1  H27C 7882   3.451   3.134   8.347  0.2703  1.2091 -0.1370
   74CHL1    C3 7883   0.990   0.872   7.070  0.0563 -0.6412  0.8230
   74CHL1    H3 7884   0.880   0.885   7.059 -0.0315 -1.1553  1.0726
   74CHL1    O3 7885   1.039   0.856   6.941  0.0677 -0.0160  0.7960
   74CHL1   H3' 7886   1.133   0.841   6.952  0.0068  0.2107  1.7103
   74CHL1    C4 7887   1.059   0.996   7.120 -0.7199 -0.0572 -0.2571
   74CHL1   H4A 7888   1.168   1.001   7.099 -0.9339  2.3753 -1.1412
   74CHL1   H4B 7889   1.020   1.082   7.061 -0.0752 -0.8602 -1.9249
   74CHL1    C5 7890   1.021   1.008   7.268 -0.2760 -0.1381 -0.3237
   74CHL1    C6 7891   0.960   1.118   7.307  0.1776 -0.3889 -0.3197
   74CHL1    H6 7892   0.929   1.189   7.229 -3.1625 -0.3267  0.9177
   74CHL1    C7 7893   0.928   1.149   7.447 -0.1804 -0.2283 -0.7095
   74CHL1   H7A 7894   0.953   1.250   7.486  0.9797 -1.3373  1.5853
   74CHL1   H7B 7895   0.817   1.150   7.460 -0.2303  0.8623 -1.1209
   74CHL1    C8 7896   1.001   1.051   7.550  0.1283  0.1240 -0.4543
   74CHL1    H8 7897   1.108   1.082   7.544  0.2696 -0.3845 -0.6157
   74CHL1   C14 7898   0.936   1.063   7.691  0.2245 -0.0331  0.8035
   74CHL1   H14 7899   0.830   1.035   7.671 -0.2918  1.6975  0.9440
   74CHL1   C15 7900   0.924   1.200   7.762  0.2527  0.6079  0.1578
   74CHL1  H15A 7901   1.028   1.239   7.756  0.1617  1.1661  1.7537
   74CHL1  H15B 7902   0.848   1.265   7.713 -0.3549 -0.6789 -0.6670
   74CHL1   C16 7903   0.888   1.165   7.907 -0.3676  0.4929  0.0600
   74CHL1  H16A 7904   0.953   1.225   7.973  0.7197  0.6349 -1.1122
   74CHL1  H16B 7905   0.780   1.177   7.931 -0.0542 -0.2582  2.0645
   74CHL1   C17 7906   0.916   1.014   7.922 -0.3812  0.0613 -0.0142
   74CHL1   H17 7907   0.820   0.960   7.913  0.4515 -1.6674  1.0197
   74CHL1   C13 7908   0.995   0.964   7.795 -0.1681 -0.0759 -0.0298
   74CHL1   C18 7909   1.144   0.986   7.824  0.1494  0.0646  0.1820
   74CHL1  H18A 7910   1.168   1.084   7.869 -0.9688  0.5585 -0.2578
   74CHL1  H18B 7911   1.172   0.906   7.897  1.1389  2.3797  2.4906
   74CHL1  H18C 7912   1.200   0.971   7.729  1.6467  1.1277  0.8548
   74CHL1   C12 7913   0.977   0.825   7.741  0.3710 -0.1463 -0.5809
   74CHL1  H12A 7914   1.016   0.748   7.811  0.2003  1.0887  0.9229
   74CHL1  H12B 7915   0.869   0.805   7.727  0.0482 -0.3342  1.7167
   74CHL1   C11 7916   1.045   0.805   7.612  0.0203  0.4690  0.9248
   74CHL1  H11A 7917   1.155   0.806   7.621  0.2618 -0.5589 -1.3461
   74CHL1  H11B 7918   1.021   0.705   7.571  0.4035  1.1963 -1.1686
   74CHL1    C9 7919   0.995   0.903   7.501  0.3888 -1.2171  0.0588
   74CHL1    H9 7920   0.887   0.878   7.492  0.0228  0.5458 -0.9545
   74CHL1   C10 7921   1.054   0.891   7.359 -0.0829  0.4054 -0.0973
   74CHL1   C19 7922   1.209   0.885   7.384  0.4934 -0.6166  0.0006
   74CHL1  H19A 7923   1.243   0.785   7.420  0.8373 -0.6693 -0.4609
   74CHL1  H19B 7924   1.258   0.891   7.285 -0.9715 -2.6814 -0.9110
   74CHL1  H19C 7925   1.246   0.956   7.461  0.0213 -0.7840  0.3867
   74CHL1    C1 7926   0.989   0.765   7.296 -0.1030  0.2209 -0.5680
   74CHL1   H1A 7927   1.022   0.677   7.355 -1.3242  0.0280 -0.1365
   74CHL1   H1B 7928   0.878   0.767   7.308  0.0839  0.7632  1.4740
   74CHL1    C2 7929   1.031   0.746   7.151 -0.1672 -0.0284 -0.2100
   74CHL1   H2A 7930   0.981   0.650   7.122  0.5193 -0.1927 -0.8893
   74CHL1   H2B 7931   1.142   0.738   7.142 -0.0477  1.5812 -0.3365
   74CHL1   C20 7932   0.960   0.978   8.064 -0.2451 -1.1009  0.6583
   74CHL1   H20 7933   1.056   1.028   8.089 -0.5632  0.8747 -1.7021
   74CHL1   C21 7934   0.981   0.829   8.069 -0.4496  0.6568  1.2316
   74CHL1  H21A 7935   1.060   0.788   8.003 -0.6173  0.3290  1.2333
   74CHL1  H21B 7936   0.894   0.772   8.029  2.7315 -0.8568 -4.8534
   74CHL1  H21C 7937   1.008   0.799   8.172  0.9807  0.8519  0.9364
   74CHL1   C22 7938   0.855   1.011   8.163 -0.3734  0.4804 -0.5667
   74CHL1  H22A 7939   0.790   1.099   8.141 -1.7381  0.1564  1.8457
   74CHL1  H22B 7940   0.773   0.937   8.157  1.6978 -1.8778 -1.2385
   74CHL1   C23 7941   0.912   1.025   8.312  0.6903  0.0047 -0.6077
   74CHL1  H23A 7942   0.977   0.938   8.337  0.0454  0.0362  1.3465
   74CHL1  H23B 7943   0.963   1.123   8.319 -0.8682  0.7676  0.9498
   74CHL1   C24 7944   0.803   1.050   8.419  0.1785 -0.3128  0.4946
   74CHL1  H24A 7945   0.733   1.131   8.391  1.1879  0.4072  0.0400
   74CHL1  H24B 7946   0.749   0.958   8.452 -0.5482  0.2776  1.0146
   74CHL1   C25 7947   0.863   1.090   8.554  0.0758  0.3441  0.0432
   74CHL1   H25 7948   0.914   1.188   8.546 -0.8010  0.7062 -1.8069
   74CHL1   C26 7949   0.745   1.084   8.658 -0.5333  0.3068  0.4089
   74CHL1  H26A 7950   0.668   1.163   8.640  1.1640  1.8338 -0.4567
   74CHL1  H26B 7951   0.705   0.980   8.657 -0.4984  0.2885 -1.1350
   74CHL1  H26C 7952   0.797   1.099   8.755 -0.2525  1.6732  0.0704
   74CHL1   C27 7953   0.962   0.986   8.606 -0.1013  0.4079 -1.0912
   74CHL1  H27A 7954   0.926   0.881   8.603  0.1772  0.3245 -1.5508
   74CHL1  H27B 7955   1.055   0.992   8.546  1.2386  1.6768  0.9996
   74CHL1  H27C 7956   0.998   1.013   8.708  0.4774 -1.1978 -0.8474
   75CHL1    C3 7957   3.189   1.580   6.519  0.0631 -0.3209  0.2378
   75CHL1    H3 7958   3.103   1.536   6.573  0.7377 -0.7757  0.9589
   75CHL1    O3 7959   3.167   1.564   6.379  0.5340 -0.1735  0.1422
   75CHL1   H3' 7960   3.146   1.472   6.365 -0.2114  0.0741 -0.4721
   75CHL1    C4 7961   3.195   1.725   6.566 -0.0308  0.0485  0.0423
   75CHL1   H4A 7962   3.286   1.767   6.518  1.7642 -2.4104  1.1031
   75CHL1   H4B 7963   3.103   1.771   6.524 -0.5578 -0.5972  0.4758
   75CHL1    C5 7964   3.206   1.726   6.714 -0.1391 -0.5358  0.3490
   75CHL1    C6 7965   3.117   1.796   6.786  0.3717  1.1692  0.9961
   75CHL1    H6 7966   3.037   1.850   6.734 -0.8131  0.4612  2.0125
   75CHL1    C7 7967   3.126   1.803   6.932  0.2736 -0.6172  0.0374
   75CHL1   H7A 7968   3.094   1.900   6.975  1.0952 -0.4079  0.1972
   75CHL1   H7B 7969   3.057   1.726   6.973 -0.2439 -0.4746 -0.5595
   75CHL1    C8 7970   3.272   1.765   6.989 -0.3433 -0.0607  0.5130
   75CHL1    H8 7971   3.347   1.839   6.953 -1.7888  0.0801 -2.5728
   75CHL1   C14 7972   3.264   1.740   7.141 -0.9794  0.6777 -0.5200
   75CHL1   H14 7973   3.188   1.660   7.154 -1.0837  1.0974  1.8918
   75CHL1   C15 7974   3.200   1.853   7.217 -0.2069  0.1794 -0.1674
   75CHL1  H15A 7975   3.231   1.944   7.162  1.4407  0.5875  1.3474
   75CHL1  H15B 7976   3.090   1.835   7.226 -0.1465  0.2638  0.9049
   75CHL1   C16 7977   3.259   1.843   7.360 -0.5166 -0.3125  0.0992
   75CHL1  H16A 7978   3.327   1.930   7.375 -1.6240  0.2767  1.9144
   75CHL1  H16B 7979   3.172   1.850   7.428  0.0507  0.6605  0.7450
   75CHL1   C17 7980   3.349   1.717   7.358 -0.2924  0.6985  0.7385
   75CHL1   H17 7981   3.282   1.629   7.365  3.2658 -2.5693 -1.9033
   75CHL1   C13 7982   3.393   1.703   7.208  0.3467 -0.6988 -0.7050
   75CHL1   C18 7983   3.496   1.813   7.179  0.2562 -0.0792 -0.6098
   75CHL1  H18A 7984   3.500   1.816   7.069 -1.3306 -2.3081 -0.7940
   75CHL1  H18B 7985   3.476   1.914   7.222  0.7007 -0.6012  0.9166
   75CHL1  H18C 7986   3.593   1.777   7.219  0.6467 -1.1028 -2.4031
   75CHL1   C12 7987   3.434   1.572   7.157 -0.2098  0.4693  0.3811
   75CHL1  H12A 7988   3.541   1.557   7.185 -0.1523 -1.2689 -0.6102
   75CHL1  H12B 7989   3.366   1.496   7.201 -0.8645  2.0553  2.2046
   75CHL1   C11 7990   3.441   1.578   6.999 -0.1957  0.3363 -0.8491
   75CHL1  H11A 7991   3.532   1.640   6.982  0.6055 -0.2091  1.1547
   75CHL1  H11B 7992   3.468   1.475   6.968  0.2729  0.9591 -2.6586
   75CHL1    C9 7993   3.315   1.634   6.928 -0.1398 -0.9070  0.3568
   75CHL1    H9 7994   3.231   1.566   6.952  0.4075 -1.5399  0.5170
   75CHL1   C10 7995   3.324   1.636   6.770  0.2537 -0.5710 -0.1025
   75CHL1   C19 7996   3.445   1.722   6.738 -0.5024  0.4131  0.0411
   75CHL1  H19A 7997   3.472   1.739   6.632  3.1818  2.3441  1.1326
   75CHL1  H19B 7998   3.445   1.825   6.780 -2.1497  0.5936 -0.3439
   75CHL1  H19C 7999   3.541   1.681   6.776  1.2945  3.4881 -0.7807
   75CHL1    C1 8000   3.326   1.500   6.703 -0.2896 -0.1506 -0.2864
   75CHL1   H1A 8001   3.431   1.472   6.725 -0.3371 -0.5310 -0.5439
   75CHL1   H1B 8002   3.266   1.429   6.764 -0.4131  0.5862  0.4728
   75CHL1    C2 8003   3.308   1.498   6.555 -0.0045  0.7579  0.3421
   75CHL1   H2A 8004   3.291   1.390   6.536  0.9157  0.5847  0.4848
   75CHL1   H2B 8005   3.400   1.520   6.497 -1.4615 -0.5858 -2.7461
   75CHL1   C20 8006   3.447   1.722   7.469 -0.5564 -0.2127  0.2877
   75CHL1   H20 8007   3.512   1.811   7.453  0.6694 -1.0775  0.3002
   75CHL1   C21 8008   3.542   1.599   7.464 -0.0901 -0.0286 -0.5270
   75CHL1  H21A 8009   3.489   1.501   7.468  0.4818 -0.3079  0.4536
   75CHL1  H21B 8010   3.609   1.606   7.552 -0.3119  0.3381 -0.3897
   75CHL1  H21C 8011   3.600   1.595   7.369  0.1530  1.5213 -0.4690
   75CHL1   C22 8012   3.384   1.729   7.613  0.8635 -0.3268 -0.4036
   75CHL1  H22A 8013   3.300   1.801   7.619  0.9435 -0.3223  1.2147
   75CHL1  H22B 8014   3.340   1.629   7.632 -0.4372  0.4474  0.8663
   75CHL1   C23 8015   3.483   1.777   7.724 -0.1622 -0.2334  0.1291
   75CHL1  H23A 8016   3.575   1.715   7.733  1.3787  2.0871  1.1799
   75CHL1  H23B 8017   3.511   1.876   7.682 -0.5892 -0.5420 -0.9208
   75CHL1   C24 8018   3.405   1.783   7.853 -0.2490 -0.5054 -0.3367
   75CHL1  H24A 8019   3.307   1.834   7.839 -1.2780 -2.5031 -0.7953
   75CHL1  H24B 8020   3.385   1.677   7.879 -0.5537 -0.4209 -0.2290
   75CHL1   C25 8021   3.491   1.841   7.966 -0.4682  0.3629  0.3530
   75CHL1   H25 8022   3.422   1.843   8.053 -1.9633 -3.2003 -0.5718
   75CHL1   C26 8023   3.608   1.745   8.010 -0.0695 -0.5764 -0.0994
   75CHL1  H26A 8024   3.582   1.637   8.002 -0.4644 -0.6515  1.6842
   75CHL1  H26B 8025   3.691   1.756   7.936 -0.6709 -0.3575 -0.7494
   75CHL1  H26C 8026   3.633   1.769   8.116  0.6210 -0.0675 -0.3669
   75CHL1   C27 8027   3.529   1.983   7.934  0.0358 -0.6791  0.1670
   75CHL1  H27A 8028   3.594   1.996   7.844 -2.6423  1.1612 -1.6496
   75CHL1  H27B 8029   3.439   2.041   7.903 -0.3463 -1.2489  0.2107
   75CHL1  H27C 8030   3.578   2.031   8.021  0.8698 -0.1447 -0.5663
   76CHL1    C3 8031   4.215   4.584   7.312 -0.6420 -0.4771  0.1794
   76CHL1    H3 8032   4.303   4.536   7.360 -0.1296 -0.7003 -0.9389
   76CHL1    O3 8033   4.217   4.558   7.168  0.0732  0.0100 -0.1837
   76CHL1   H3' 8034   4.128   4.576   7.137 -0.3275 -1.1334  0.2076
   76CHL1    C4 8035   4.077   4.537   7.370  0.5935 -0.0694  0.2081
   76CHL1   H4A 8036   4.000   4.584   7.306  0.9181  0.2124  0.0195
   76CHL1   H4B 8037   4.054   4.430   7.351 -2.7704  0.2304  1.8212
   76CHL1    C5 8038   4.060   4.566   7.516  0.6682 -0.4804 -0.5110
   76CHL1    C6 8039   4.030   4.470   7.603  0.4388 -0.1456  0.7257
   76CHL1    H6 8040   4.034   4.367   7.563 -1.7272  1.3138 -3.9148
   76CHL1    C7 8041   4.013   4.493   7.746  0.4449 -0.0895  0.0725
   76CHL1   H7A 8042   3.922   4.439   7.782 -0.7232 -0.4004 -3.0843
   76CHL1   H7B 8043   4.102   4.460   7.803  0.1218  0.4681  0.9254
   76CHL1    C8 8044   3.997   4.639   7.788 -0.9499 -0.2877 -0.3309
   76CHL1    H8 8045   3.892   4.669   7.772 -1.7880 -3.4676 -1.6240
   76CHL1   C14 8046   4.025   4.650   7.933 -0.3185 -0.1683  0.2393
   76CHL1   H14 8047   4.134   4.629   7.947 -0.3832  0.0446  1.1249
   76CHL1   C15 8048   3.947   4.554   8.028  0.4353 -0.0075 -0.1123
   76CHL1  H15A 8049   3.842   4.551   7.994 -0.1204  0.4237  1.5189
   76CHL1  H15B 8050   3.993   4.453   8.038 -0.3758 -0.4802 -0.9714
   76CHL1   C16 8051   3.957   4.624   8.169  0.1381  0.3745 -0.4314
   76CHL1  H16A 8052   3.848   4.638   8.191 -0.3131 -1.4677 -1.3316
   76CHL1  H16B 8053   4.007   4.551   8.236 -1.3593 -0.8691 -0.5928
   76CHL1   C17 8054   4.041   4.751   8.136  0.4795 -0.9978 -0.1405
   76CHL1   H17 8055   4.147   4.719   8.141  1.2290  1.1858 -0.8548
   76CHL1   C13 8056   4.015   4.789   7.986  0.1518 -0.2124  0.9739
   76CHL1   C18 8057   3.877   4.850   7.967 -0.2721  0.6004  0.1594
   76CHL1  H18A 8058   3.841   4.860   7.863 -1.7066 -1.0990  0.4462
   76CHL1  H18B 8059   3.801   4.797   8.029  1.8622 -0.5246  1.9574
   76CHL1  H18C 8060   3.882   4.952   8.012 -1.4317  0.2821  1.0588
   76CHL1   C12 8061   4.120   4.886   7.915 -0.3031 -0.2144 -0.1150
   76CHL1  H12A 8062   4.100   4.990   7.949 -2.2181 -1.3584  2.6125
   76CHL1  H12B 8063   4.220   4.846   7.940 -1.2887 -0.3111  4.5637
   76CHL1   C11 8064   4.104   4.879   7.764  0.0028  0.4621 -0.3102
   76CHL1  H11A 8065   4.011   4.928   7.730 -0.9583 -1.3792 -0.4605
   76CHL1  H11B 8066   4.192   4.933   7.723 -0.1136  1.9618  1.3190
   76CHL1    C9 8067   4.099   4.727   7.717  0.2964  0.2676 -0.0784
   76CHL1    H9 8068   4.197   4.682   7.745  1.1363  1.4116 -1.0835
   76CHL1   C10 8069   4.089   4.714   7.565 -0.6413  0.1779 -0.4777
   76CHL1   C19 8070   3.973   4.795   7.509  0.0033  0.7499  0.0512
   76CHL1  H19A 8071   3.886   4.781   7.577  1.8129 -0.0431  2.3334
   76CHL1  H19B 8072   4.014   4.898   7.519  0.4574  0.3760  3.2241
   76CHL1  H19C 8073   3.948   4.768   7.404  1.5224 -2.1568  0.3368
   76CHL1    C1 8074   4.226   4.754   7.499  0.4032  0.0704  0.2904
   76CHL1   H1A 8075   4.261   4.856   7.523  2.8438  0.0389 -2.5498
   76CHL1   H1B 8076   4.299   4.682   7.541 -1.1642 -1.7585  0.0387
   76CHL1    C2 8077   4.231   4.732   7.348 -0.5075  0.9490  0.3767
   76CHL1   H2A 8078   4.334   4.768   7.326 -0.6335  1.4453  0.5963
   76CHL1   H2B 8079   4.160   4.799   7.295  1.3755  1.3534 -1.7943
   76CHL1   C20 8080   4.025   4.866   8.249  0.2380 -0.2750  0.1885
   76CHL1   H20 8081   3.923   4.907   8.232  0.5015  0.1923 -0.2775
   76CHL1   C21 8082   4.125   4.983   8.233  0.1206  0.4106 -0.3329
   76CHL1  H21A 8083   4.109   5.048   8.323 -0.8596 -1.1919  0.6905
   76CHL1  H21B 8084   4.114   5.035   8.136 -3.4447 -0.0999 -0.3387
   76CHL1  H21C 8085   4.226   4.936   8.225 -1.1355 -2.2062 -1.7876
   76CHL1   C22 8086   4.027   4.803   8.387 -1.1662 -0.6409  0.6916
   76CHL1  H22A 8087   3.992   4.885   8.453  1.9551  2.3419 -1.0449
   76CHL1  H22B 8088   3.955   4.719   8.401 -0.6920 -0.8663  2.0220
   76CHL1   C23 8089   4.168   4.755   8.436  0.0012  0.3131 -0.6419
   76CHL1  H23A 8090   4.190   4.655   8.393  2.9555 -0.3842  2.0674
   76CHL1  H23B 8091   4.245   4.832   8.414 -0.4254  1.2140  0.8323
   76CHL1   C24 8092   4.186   4.744   8.593  0.4153 -0.1274 -0.4979
   76CHL1  H24A 8093   4.158   4.840   8.641  1.3188  1.3498 -2.7629
   76CHL1  H24B 8094   4.131   4.663   8.644  0.6958  1.1929  2.0406
   76CHL1   C25 8095   4.333   4.713   8.639  0.3827 -0.5084 -0.2223
   76CHL1   H25 8096   4.375   4.815   8.627  0.0063 -0.4116 -0.7986
   76CHL1   C26 8097   4.344   4.691   8.791 -0.2400 -0.2546 -0.1742
   76CHL1  H26A 8098   4.452   4.678   8.813 -0.3201 -2.2217 -0.7789
   76CHL1  H26B 8099   4.286   4.775   8.835  0.1145 -0.5021  0.7897
   76CHL1  H26C 8100   4.295   4.595   8.817  0.9314 -0.5493  1.0935
   76CHL1   C27 8101   4.395   4.608   8.554 -0.5449  0.4085  0.4478
   76CHL1  H27A 8102   4.411   4.651   8.452  0.7587  1.0311  0.8863
   76CHL1  H27B 8103   4.485   4.578   8.611 -0.6928  0.7840  0.8817
   76CHL1  H27C 8104   4.327   4.521   8.552 -1.5134  1.1535  0.4674
   77CHL1    C3 8105   0.727   2.408   6.994 -0.3551  0.8225  0.3830
   77CHL1    H3 8106   0.762   2.308   6.960 -0.5609  1.5546 -2.2220
   77CHL1    O3 8107   0.737   2.498   6.891 -0.3014 -0.5039  0.4829
   77CHL1   H3' 8108   0.658   2.551   6.881  0.9450  1.1075 -2.1953
   77CHL1    C4 8109   0.583   2.381   7.043 -0.3838  0.1686 -0.0246
   77CHL1   H4A 8110   0.529   2.475   7.066 -2.0483 -0.5416 -0.8301
   77CHL1   H4B 8111   0.529   2.329   6.960 -1.3899  1.5003 -0.2458
   77CHL1    C5 8112   0.578   2.287   7.162 -0.3589 -0.0664  0.0546
   77CHL1    C6 8113   0.510   2.171   7.177  0.1134 -0.0727  0.3062
   77CHL1    H6 8114   0.464   2.123   7.089  0.3605 -0.3631  0.3336
   77CHL1    C7 8115   0.498   2.089   7.295 -0.1413  0.0859  0.1531
   77CHL1   H7A 8116   0.395   2.046   7.300 -0.1514  0.0018 -0.7196
   77CHL1   H7B 8117   0.568   2.003   7.291 -0.7306 -0.3515 -1.2411
   77CHL1    C8 8118   0.545   2.162   7.420 -0.1622 -0.3514 -0.1154
   77CHL1    H8 8119   0.473   2.242   7.448  1.4775  0.8690  0.7930
   77CHL1   C14 8120   0.558   2.068   7.537 -0.1796 -0.5716 -0.3306
   77CHL1   H14 8121   0.637   1.994   7.511 -0.6972 -1.6740  1.1347
   77CHL1   C15 8122   0.428   1.984   7.563  0.0826  0.2264 -0.2711
   77CHL1  H15A 8123   0.347   2.060   7.556 -1.0796 -0.8132  1.1280
   77CHL1  H15B 8124   0.414   1.899   7.493 -1.1634 -1.0508  1.4532
   77CHL1   C16 8125   0.447   1.952   7.712  0.2535  0.0928  0.5055
   77CHL1  H16A 8126   0.374   2.003   7.778  1.3742  2.1057  0.2864
   77CHL1  H16B 8127   0.464   1.843   7.723  0.6406  0.2097  1.1538
   77CHL1   C17 8128   0.593   2.011   7.757 -0.2745  0.0888  0.0442
   77CHL1   H17 8129   0.668   1.937   7.725  0.2381  1.3294 -1.8182
   77CHL1   C13 8130   0.614   2.128   7.662  1.1707 -0.2863 -0.4108
   77CHL1   C18 8131   0.516   2.242   7.704  0.6672 -0.1654 -1.0624
   77CHL1  H18A 8132   0.502   2.321   7.627 -2.4635  0.3643 -0.0915
   77CHL1  H18B 8133   0.414   2.204   7.725  1.2770 -1.4345 -0.2784
   77CHL1  H18C 8134   0.553   2.298   7.793 -3.3042  0.5506  0.3658
   77CHL1   C12 8135   0.753   2.173   7.639 -0.2926 -0.9280 -0.3037
   77CHL1  H12A 8136   0.785   2.233   7.727 -1.4787 -0.2980 -0.2779
   77CHL1  H12B 8137   0.821   2.086   7.636  1.5573  0.3778  1.1097
   77CHL1   C11 8138   0.756   2.275   7.523 -0.8592 -0.5789  0.2550
   77CHL1  H11A 8139   0.711   2.363   7.573 -2.0230 -0.9171 -0.1790
   77CHL1  H11B 8140   0.861   2.306   7.504 -0.9518 -0.1497  0.4354
   77CHL1    C9 8141   0.684   2.228   7.393 -0.3851 -0.2011 -0.5779
   77CHL1    H9 8142   0.741   2.142   7.351 -1.4691 -0.8125 -0.8401
   77CHL1   C10 8143   0.667   2.338   7.282 -0.2606  0.0354  0.3074
   77CHL1   C19 8144   0.596   2.464   7.333 -0.0506 -0.3132  0.4600
   77CHL1  H19A 8145   0.561   2.536   7.256  1.8945  0.1808 -0.0075
   77CHL1  H19B 8146   0.503   2.436   7.388 -1.3999  2.1643 -0.4125
   77CHL1  H19C 8147   0.665   2.517   7.402  0.9514 -1.6968  0.5587
   77CHL1    C1 8148   0.815   2.362   7.229  0.3800  0.3059  0.8067
   77CHL1   H1A 8149   0.881   2.404   7.307 -1.2925  2.6379  1.0917
   77CHL1   H1B 8150   0.871   2.269   7.210  0.7413  0.8921 -1.3363
   77CHL1    C2 8151   0.827   2.452   7.103 -0.1433 -0.7292  0.4972
   77CHL1   H2A 8152   0.930   2.446   7.062 -1.1492  0.3928 -2.3987
   77CHL1   H2B 8153   0.804   2.560   7.121 -0.0307 -0.3114 -1.5774
   77CHL1   C20 8154   0.605   2.041   7.908 -0.1310 -0.3367  0.0957
   77CHL1   H20 8155   0.558   2.140   7.927 -0.2654 -0.6740  1.6837
   77CHL1   C21 8156   0.756   2.042   7.938  0.5776  0.0053  0.3750
   77CHL1  H21A 8157   0.786   2.077   8.039  0.5787  1.3537 -0.0734
   77CHL1  H21B 8158   0.811   2.096   7.858  0.8314  0.6703  0.9804
   77CHL1  H21C 8159   0.797   1.940   7.925  1.4703  0.5316 -1.3058
   77CHL1   C22 8160   0.532   1.940   7.996 -0.1241 -0.3972 -0.0261
   77CHL1  H22A 8161   0.421   1.949   7.988 -0.0320  0.5385 -0.3406
   77CHL1  H22B 8162   0.558   1.840   7.955 -0.4527 -1.0121  1.2258
   77CHL1   C23 8163   0.563   1.945   8.143  0.1651 -0.7630 -0.4625
   77CHL1  H23A 8164   0.661   1.901   8.173  0.0286 -0.8193 -0.1003
   77CHL1  H23B 8165   0.548   2.046   8.186 -1.2023 -0.4364 -1.6332
   77CHL1   C24 8166   0.470   1.846   8.208  0.0205  0.1007  1.5170
   77CHL1  H24A 8167   0.365   1.864   8.174  0.2517 -0.2668  0.5672
   77CHL1  H24B 8168   0.499   1.743   8.181  0.0340  0.0974  1.5444
   77CHL1   C25 8169   0.474   1.849   8.361  0.1491 -0.2064  0.1059
   77CHL1   H25 8170   0.485   1.953   8.398 -1.4059  0.8417 -2.1747
   77CHL1   C26 8171   0.339   1.804   8.421  0.0713 -0.3888  0.8404
   77CHL1  H26A 8172   0.253   1.862   8.380  1.7353  2.3247  0.9545
   77CHL1  H26B 8173   0.319   1.698   8.396 -1.7661 -0.1511  1.0996
   77CHL1  H26C 8174   0.343   1.807   8.532  0.8135 -0.5224  0.8192
   77CHL1   C27 8175   0.592   1.770   8.413 -0.4830  0.1662 -0.1485
   77CHL1  H27A 8176   0.583   1.763   8.524 -0.5162  0.2584 -0.1446
   77CHL1  H27B 8177   0.586   1.667   8.372 -3.1545  0.9972 -2.0609
   77CHL1  H27C 8178   0.692   1.816   8.397  0.5140 -2.2145 -1.2624
   78CHL1    C3 8179   5.519   5.708   6.811  0.5033 -0.7335  0.1635
   78CHL1    H3 8180   5.627   5.735   6.816  0.4117 -0.5691  2.2549
   78CHL1    O3 8181   5.482   5.726   6.678 -0.2754  0.1708  0.2646
   78CHL1   H3' 8182   5.412   5.791   6.672  0.2018  0.6056 -1.2811
   78CHL1    C4 8183   5.512   5.563   6.852 -0.1297 -0.0407 -0.8761
   78CHL1   H4A 8184   5.410   5.527   6.824  0.6211 -2.6666 -0.5350
   78CHL1   H4B 8185   5.597   5.513   6.800  1.2964 -0.2235  1.5060
   78CHL1    C5 8186   5.525   5.545   7.004  0.6429 -0.7202 -0.4671
   78CHL1    C6 8187   5.596   5.453   7.067 -0.3788 -0.8325 -0.3380
   78CHL1    H6 8188   5.662   5.383   7.014 -0.3485 -0.8170 -0.3202
   78CHL1    C7 8189   5.601   5.418   7.207 -0.9795  0.7326 -0.4052
   78CHL1   H7A 8190   5.561   5.315   7.216 -1.5658  1.1076  2.0062
   78CHL1   H7B 8191   5.702   5.422   7.252 -1.2903  0.0316  0.3734
   78CHL1    C8 8192   5.501   5.510   7.295 -0.5164  0.1483  0.5968
   78CHL1    H8 8193   5.397   5.472   7.289 -0.3789  0.0004 -1.4151
   78CHL1   C14 8194   5.546   5.519   7.445  0.1559  0.6368  0.1435
   78CHL1   H14 8195   5.643   5.572   7.440 -0.2528  1.2878 -2.2809
   78CHL1   C15 8196   5.579   5.387   7.529 -0.6803 -0.0524  0.9843
   78CHL1  H15A 8197   5.505   5.305   7.515  1.8832 -2.2072 -0.8488
   78CHL1  H15B 8198   5.670   5.335   7.493 -0.9340 -2.3854  3.3659
   78CHL1   C16 8199   5.587   5.439   7.676  0.1528  0.0568 -0.1526
   78CHL1  H16A 8200   5.508   5.392   7.740 -0.5409  2.6514  1.0373
   78CHL1  H16B 8201   5.685   5.410   7.718 -0.0209  0.0861  0.2835
   78CHL1   C17 8202   5.565   5.593   7.667 -0.4586  0.1824  0.4688
   78CHL1   H17 8203   5.667   5.632   7.643  0.6622 -2.7894 -0.0799
   78CHL1   C13 8204   5.471   5.608   7.541 -0.4445  0.1027 -0.4358
   78CHL1   C18 8205   5.332   5.552   7.579 -0.5309 -0.6980 -0.7720
   78CHL1  H18A 8206   5.278   5.623   7.646  2.5648  0.1828  1.0072
   78CHL1  H18B 8207   5.278   5.536   7.484 -1.2493 -1.0708 -0.3052
   78CHL1  H18C 8208   5.338   5.458   7.638  1.8734  0.4010  0.9083
   78CHL1   C12 8209   5.457   5.748   7.476 -0.5044 -0.2815 -0.5113
   78CHL1  H12A 8210   5.399   5.820   7.537 -0.2475 -1.5044  1.2573
   78CHL1  H12B 8211   5.557   5.797   7.474  0.2333 -1.7374 -1.7811
   78CHL1   C11 8212   5.401   5.744   7.336 -0.5265  0.1124  0.0793
   78CHL1  H11A 8213   5.296   5.709   7.348  0.5451 -2.8736  1.6292
   78CHL1  H11B 8214   5.378   5.842   7.289  0.5405  0.0974 -0.4966
   78CHL1    C9 8215   5.485   5.656   7.235  0.2276  0.1830 -0.2047
   78CHL1    H9 8216   5.590   5.690   7.223  0.4571 -0.4177  0.0385
   78CHL1   C10 8217   5.438   5.646   7.085  0.5082  0.3040 -0.2689
   78CHL1   C19 8218   5.284   5.626   7.068 -0.2949  0.3807 -0.1618
   78CHL1  H19A 8219   5.257   5.523   7.098 -0.2608  0.4073 -0.0372
   78CHL1  H19B 8220   5.233   5.703   7.130 -2.5541  0.0138 -1.4779
   78CHL1  H19C 8221   5.256   5.637   6.961  1.6436  1.8272 -0.5743
   78CHL1    C1 8222   5.468   5.795   7.039 -0.7401  0.3315 -0.7416
   78CHL1   H1A 8223   5.409   5.865   7.101 -2.0892 -0.5801 -0.9621
   78CHL1   H1B 8224   5.574   5.816   7.064 -1.1195  0.7702  0.5540
   78CHL1    C2 8225   5.437   5.816   6.895 -0.2012  0.9919  0.5382
   78CHL1   H2A 8226   5.469   5.917   6.862 -0.7771  1.0044 -0.0020
   78CHL1   H2B 8227   5.328   5.815   6.870  0.2953  1.0184 -1.8654
   78CHL1   C20 8228   5.538   5.657   7.804 -0.2586  0.0305 -0.3202
   78CHL1   H20 8229   5.437   5.620   7.832 -0.6249  0.4298 -1.0711
   78CHL1   C21 8230   5.520   5.811   7.793  0.0490  0.1323  0.4008
   78CHL1  H21A 8231   5.427   5.832   7.736 -0.4560  0.1252  1.2001
   78CHL1  H21B 8232   5.601   5.865   7.740 -0.4654 -0.5994 -1.1746
   78CHL1  H21C 8233   5.500   5.850   7.895  1.2302 -0.3367  0.8290
   78CHL1   C22 8234   5.635   5.631   7.924  0.2235  0.1939  0.1759
   78CHL1  H22A 8235   5.705   5.545   7.910 -1.6712 -1.6297  1.2778
   78CHL1  H22B 8236   5.699   5.722   7.929  2.0967 -0.9541 -1.2224
   78CHL1   C23 8237   5.557   5.631   8.054 -0.1232  0.3474  0.1490
   78CHL1  H23A 8238   5.513   5.731   8.069  1.1369  0.7087  1.7874
   78CHL1  H23B 8239   5.468   5.564   8.052 -0.4441  0.7873 -1.1049
   78CHL1   C24 8240   5.650   5.604   8.178  0.0755 -0.5639 -0.1841
   78CHL1  H24A 8241   5.716   5.517   8.159 -1.3802 -1.6360 -0.5458
   78CHL1  H24B 8242   5.727   5.683   8.185 -0.0571 -0.5556  1.8336
   78CHL1   C25 8243   5.573   5.588   8.310  0.2677  0.1207  0.1885
   78CHL1   H25 8244   5.500   5.505   8.300 -0.6603  1.0227 -0.8706
   78CHL1   C26 8245   5.666   5.554   8.426  0.2015  0.2863  0.1255
   78CHL1  H26A 8246   5.602   5.515   8.508  1.0919  0.8262  1.1094
   78CHL1  H26B 8247   5.747   5.482   8.403  1.0385  1.7452 -1.7766
   78CHL1  H26C 8248   5.700   5.655   8.461 -1.5384  1.6155 -1.7928
   78CHL1   C27 8249   5.484   5.710   8.335 -0.7672  0.2718  0.4980
   78CHL1  H27A 8250   5.556   5.795   8.332  0.4575 -0.6801  1.6631
   78CHL1  H27B 8251   5.419   5.730   8.247  0.6056 -1.9266 -1.1288
   78CHL1  H27C 8252   5.432   5.692   8.432  0.5359 -2.7099  0.7635
   79CHL1    C3 8253   5.115   4.469   6.999 -0.3322  0.0083 -0.5998
   79CHL1    H3 8254   5.006   4.491   6.993 -0.3018  0.0507 -1.0061
   79CHL1    O3 8255   5.164   4.473   6.862  0.4620  0.0437 -0.5680
   79CHL1   H3' 8256   5.257   4.497   6.866  0.1511  1.1041  1.4313
   79CHL1    C4 8257   5.191   4.576   7.073 -0.1000  0.3377  0.1163
   79CHL1   H4A 8258   5.297   4.543   7.069 -0.7725 -1.9084 -0.8541
   79CHL1   H4B 8259   5.184   4.674   7.021  0.5358 -0.9770 -2.6002
   79CHL1    C5 8260   5.148   4.585   7.221  0.7137  0.7371  0.0839
   79CHL1    C6 8261   5.098   4.689   7.280  0.3256  1.0695 -0.1169
   79CHL1    H6 8262   5.095   4.787   7.231 -1.0197  2.3916  2.4000
   79CHL1    C7 8263   5.056   4.689   7.425 -0.1495  0.6809  0.5195
   79CHL1   H7A 8264   5.095   4.776   7.481 -1.7090 -0.0242  2.8884
   79CHL1   H7B 8265   4.945   4.693   7.435 -0.4041 -2.1202 -0.3178
   79CHL1    C8 8266   5.109   4.567   7.511  0.2625  0.9497  1.0171
   79CHL1    H8 8267   5.219   4.568   7.523  0.3711 -1.3797  0.6487
   79CHL1   C14 8268   5.030   4.565   7.639 -0.3426 -0.1890  0.7478
   79CHL1   H14 8269   4.921   4.554   7.619 -0.6831  1.4061  1.5695
   79CHL1   C15 8270   5.032   4.691   7.729  0.1883 -0.0386 -0.0487
   79CHL1  H15A 8271   5.136   4.730   7.735  0.5018 -0.6266 -1.3762
   79CHL1  H15B 8272   4.970   4.769   7.681  0.4199  1.6352  2.2030
   79CHL1   C16 8273   4.990   4.639   7.864 -0.2788 -0.3783  0.2911
   79CHL1  H16A 8274   5.063   4.673   7.940 -0.9828  0.1247  0.7636
   79CHL1  H16B 8275   4.894   4.683   7.901  0.3837 -1.0255  2.9924
   79CHL1   C17 8276   4.991   4.487   7.856 -0.4370 -0.4071  1.0137
   79CHL1   H17 8277   4.884   4.464   7.837 -1.2772  2.7080  1.4248
   79CHL1   C13 8278   5.070   4.450   7.728  0.4463  0.7901  0.5758
   79CHL1   C18 8279   5.219   4.453   7.761 -0.4773 -0.1834 -0.5877
   79CHL1  H18A 8280   5.243   4.544   7.821  1.0288 -0.5072 -0.6561
   79CHL1  H18B 8281   5.243   4.369   7.830 -1.1952 -1.6164 -2.0212
   79CHL1  H18C 8282   5.287   4.442   7.674  0.4412 -0.7274  0.1826
   79CHL1   C12 8283   5.043   4.320   7.650 -0.2877 -0.0409 -0.1526
   79CHL1  H12A 8284   5.091   4.233   7.701  0.2608 -0.8063 -1.9100
   79CHL1  H12B 8285   4.932   4.320   7.653 -0.2871  0.6595  0.0517
   79CHL1   C11 8286   5.102   4.310   7.507  0.0932  0.0747 -0.9500
   79CHL1  H11A 8287   5.208   4.290   7.534 -0.7780 -0.2573  2.8279
   79CHL1  H11B 8288   5.068   4.218   7.457  0.7583 -1.6717  1.6276
   79CHL1    C9 8289   5.078   4.440   7.426 -0.9510  0.2339  0.2784
   79CHL1    H9 8290   4.972   4.438   7.392 -0.4992 -1.2736 -1.2092
   79CHL1   C10 8291   5.155   4.446   7.296 -0.1041 -0.2118  0.4954
   79CHL1   C19 8292   5.305   4.421   7.323  0.6516  0.3562  0.1089
   79CHL1  H19A 8293   5.325   4.323   7.371 -1.1394  0.8827  2.1067
   79CHL1  H19B 8294   5.368   4.415   7.232  0.7688  0.1636  0.2030
   79CHL1  H19C 8295   5.349   4.499   7.389  1.7087 -0.6284  0.5861
   79CHL1    C1 8296   5.092   4.337   7.206 -0.1211  0.3816  1.1134
   79CHL1   H1A 8297   5.133   4.244   7.251 -1.0685  1.4696  4.5832
   79CHL1   H1B 8298   4.981   4.324   7.207 -0.0545 -0.2379  2.0840
   79CHL1    C2 8299   5.133   4.333   7.057 -0.0271  0.1793 -0.5285
   79CHL1   H2A 8300   5.076   4.256   7.001 -1.0272  0.5759 -0.0933
   79CHL1   H2B 8301   5.237   4.298   7.042  0.4369  1.0508  0.4928
   79CHL1   C20 8302   5.026   4.412   7.993  0.1297  0.0210 -0.0198
   79CHL1   H20 8303   5.134   4.417   8.018 -0.3910 -0.3959  2.6170
   79CHL1   C21 8304   4.987   4.266   7.966 -0.8598  0.5878  0.4519
   79CHL1  H21A 8305   4.891   4.251   7.912 -0.1811  0.6498 -0.8184
   79CHL1  H21B 8306   4.974   4.206   8.058 -1.3558  0.3136  0.2061
   79CHL1  H21C 8307   5.061   4.208   7.907 -0.4063 -0.0402  1.6098
   79CHL1   C22 8308   4.929   4.461   8.105 -0.8569  0.6448 -0.1637
   79CHL1  H22A 8309   4.945   4.570   8.118  2.8139  0.0980  1.0512
   79CHL1  H22B 8310   4.828   4.422   8.079 -0.1787 -1.8737  0.7432
   79CHL1   C23 8311   4.958   4.411   8.250 -0.1912  0.2616 -0.2610
   79CHL1  H23A 8312   4.983   4.302   8.245  0.2152  0.4142 -3.5112
   79CHL1  H23B 8313   5.052   4.462   8.278 -0.1119  0.3620 -0.6997
   79CHL1   C24 8314   4.858   4.437   8.361 -0.4852  0.1735 -0.0346
   79CHL1  H24A 8315   4.847   4.545   8.381  1.3239  0.1043  1.6817
   79CHL1  H24B 8316   4.762   4.388   8.334 -0.1380 -1.0029  0.7570
   79CHL1   C25 8317   4.903   4.383   8.495 -0.1036 -0.1515  0.9877
   79CHL1   H25 8318   4.915   4.272   8.489 -1.3069 -0.2333 -0.3669
   79CHL1   C26 8319   5.029   4.449   8.549 -0.6062 -1.1038 -0.9830
   79CHL1  H26A 8320   5.124   4.439   8.492  0.4619 -2.2226  0.9237
   79CHL1  H26B 8321   5.011   4.559   8.553  2.2086 -0.6020 -0.1903
   79CHL1  H26C 8322   5.059   4.410   8.648  0.9106  0.4618 -0.7735
   79CHL1   C27 8323   4.782   4.397   8.595  0.2229  0.6085  0.0850
   79CHL1  H27A 8324   4.759   4.506   8.597 -0.6661  0.4275  0.2177
   79CHL1  H27B 8325   4.692   4.346   8.554  2.0642 -1.4995 -1.5455
   79CHL1  H27C 8326   4.817   4.354   8.692 -0.0960 -0.3844 -0.2285
   80CHL1    C3 8327   0.812   1.584   7.300 -0.0946  0.7827 -0.3354
   80CHL1    H3 8328   0.768   1.484   7.321 -0.8662  0.9137 -1.2423
   80CHL1    O3 8329   0.781   1.607   7.165  0.5813  0.4196  0.5845
   80CHL1   H3' 8330   0.849   1.563   7.113  0.1042  0.9610 -0.5219
   80CHL1    C4 8331   0.735   1.687   7.386  0.0693 -0.3160 -0.4363
   80CHL1   H4A 8332   0.762   1.788   7.347 -0.5575  0.3618  0.8343
   80CHL1   H4B 8333   0.631   1.658   7.364 -0.1966 -1.0537  1.5667
   80CHL1    C5 8334   0.766   1.671   7.537 -1.0395 -1.6799 -0.4649
   80CHL1    C6 8335   0.669   1.649   7.626  0.5013 -0.3968 -0.4046
   80CHL1    H6 8336   0.570   1.634   7.580  0.5808  1.9700 -1.4827
   80CHL1    C7 8337   0.688   1.624   7.774  0.5249  0.1193  0.1021
   80CHL1   H7A 8338   0.611   1.674   7.837  0.6361  1.5964 -0.8826
   80CHL1   H7B 8339   0.671   1.517   7.799  1.0162 -0.0708 -0.3714
   80CHL1    C8 8340   0.830   1.647   7.819 -0.8796  0.0743 -0.1388
   80CHL1    H8 8341   0.853   1.754   7.835 -1.7299  0.1149  0.8559
   80CHL1   C14 8342   0.854   1.582   7.949 -0.4124  0.1861  0.1944
   80CHL1   H14 8343   0.859   1.472   7.933  3.4004  0.5064 -2.1246
   80CHL1   C15 8344   0.740   1.578   8.050 -0.1893 -0.4729  0.1261
   80CHL1  H15A 8345   0.723   1.683   8.082  3.3125 -0.3981  2.3784
   80CHL1  H15B 8346   0.646   1.527   8.021 -0.1852 -0.8376  0.7292
   80CHL1   C16 8347   0.809   1.509   8.172  0.0827  0.1387  0.0148
   80CHL1  H16A 8348   0.792   1.567   8.265  1.6391 -0.9019  0.9864
   80CHL1  H16B 8349   0.777   1.403   8.188 -1.5580  0.1459 -2.5530
   80CHL1   C17 8350   0.963   1.523   8.143 -0.7103 -0.6488  0.2298
   80CHL1   H17 8351   0.999   1.425   8.105 -1.1011 -0.5300 -0.4566
   80CHL1   C13 8352   0.984   1.617   8.017 -0.1421 -0.0062 -0.1283
   80CHL1   C18 8353   0.998   1.764   8.057 -1.0855  0.4293  0.1709
   80CHL1  H18A 8354   1.019   1.834   7.974  3.2558 -1.1912 -0.3643
   80CHL1  H18B 8355   0.909   1.793   8.117 -2.9976  0.8301 -2.6572
   80CHL1  H18C 8356   1.090   1.770   8.119 -0.3640  0.3498 -0.8646
   80CHL1   C12 8357   1.095   1.580   7.918 -0.1819  0.5360 -0.6007
   80CHL1  H12A 8358   1.189   1.621   7.961  0.1874  0.6002 -1.4450
   80CHL1  H12B 8359   1.100   1.469   7.916  0.3573  0.5386 -2.7657
   80CHL1   C11 8360   1.076   1.629   7.773 -0.0639 -0.2126  0.6543
   80CHL1  H11A 8361   1.100   1.738   7.769  2.6118 -0.7771 -0.8254
   80CHL1  H11B 8362   1.153   1.573   7.717  0.9679  0.1012  1.7222
   80CHL1    C9 8363   0.938   1.603   7.712 -0.3295  0.0408 -1.0926
   80CHL1    H9 8364   0.925   1.492   7.705 -2.6717  0.1621  0.3431
   80CHL1   C10 8365   0.916   1.671   7.569 -0.1985  0.6346  0.2256
   80CHL1   C19 8366   0.976   1.812   7.569  0.4292  0.3485 -0.3874
   80CHL1  H19A 8367   1.086   1.806   7.576  0.2221 -2.6532  2.8585
   80CHL1  H19B 8368   0.938   1.876   7.486 -2.6955 -0.8300 -0.0272
   80CHL1  H19C 8369   0.947   1.869   7.659 -0.5813 -0.8927  0.1016
   80CHL1    C1 8370   0.996   1.579   7.467 -0.4284 -0.6361 -0.4596
   80CHL1   H1A 8371   1.104   1.595   7.488 -0.3939 -0.8524 -0.4754
   80CHL1   H1B 8372   0.973   1.474   7.494  1.3024 -0.8812  0.2248
   80CHL1    C2 8373   0.960   1.593   7.323 -0.2621  0.5089  0.2048
   80CHL1   H2A 8374   1.009   1.510   7.268 -1.8461 -0.7332  0.6090
   80CHL1   H2B 8375   1.000   1.681   7.268 -0.0590  0.3763  0.1392
   80CHL1   C20 8376   1.054   1.558   8.265 -0.1153 -0.1718 -0.6800
   80CHL1   H20 8377   1.143   1.595   8.209 -2.0395  2.3504 -2.2911
   80CHL1   C21 8378   1.076   1.429   8.340 -0.2058  0.3179 -0.9702
   80CHL1  H21A 8379   1.117   1.351   8.273  2.4772  0.7146  0.0739
   80CHL1  H21B 8380   0.979   1.403   8.387 -0.5897 -0.4347 -2.1383
   80CHL1  H21C 8381   1.158   1.431   8.415 -2.2588  0.5038  1.4068
   80CHL1   C22 8382   1.016   1.675   8.368 -0.2354  0.1641  0.1260
   80CHL1  H22A 8383   0.935   1.735   8.321 -1.0997 -0.8556  0.2884
   80CHL1  H22B 8384   0.952   1.635   8.449  1.1105  1.0962  1.7204
   80CHL1   C23 8385   1.133   1.765   8.413 -0.4240 -0.0426 -0.3303
   80CHL1  H23A 8386   1.209   1.778   8.333  0.3108  0.9151  0.5043
   80CHL1  H23B 8387   1.078   1.859   8.435 -1.2438 -0.1355 -1.8416
   80CHL1   C24 8388   1.193   1.715   8.542 -0.5705 -0.4484 -0.1128
   80CHL1  H24A 8389   1.113   1.717   8.620  1.3906 -0.3190  1.9773
   80CHL1  H24B 8390   1.213   1.607   8.530  2.2730  0.0134 -0.0378
   80CHL1   C25 8391   1.314   1.794   8.588  0.1248  0.0834 -0.5027
   80CHL1   H25 8392   1.390   1.794   8.507 -1.2565  2.1893 -1.8997
   80CHL1   C26 8393   1.273   1.930   8.627  0.1128 -0.4808  0.4221
   80CHL1  H26A 8394   1.247   1.984   8.534  0.8611 -1.4026 -0.3396
   80CHL1  H26B 8395   1.186   1.926   8.697  1.3325  1.4545  2.1771
   80CHL1  H26C 8396   1.354   1.987   8.677 -0.0558 -1.5069  1.9378
   80CHL1   C27 8397   1.367   1.728   8.716  0.0336  0.2585  0.3336
   80CHL1  H27A 8398   1.407   1.628   8.688 -0.0819  0.5166 -0.8030
   80CHL1  H27B 8399   1.447   1.795   8.754  0.9729 -0.5702 -0.1352
   80CHL1  H27C 8400   1.284   1.713   8.788 -1.1005  1.9453 -0.5537
   81CHL1    C3 8401   6.037   1.424   6.860  0.0305 -0.0515 -0.8797
   81CHL1    H3 8402   6.148   1.420   6.865  0.0809  1.3871 -0.5750
   81CHL1    O3 8403   6.004   1.438   6.726  0.2405  0.8057  0.6484
   81CHL1   H3' 8404   6.038   1.362   6.678  1.3198  0.2410  2.2382
   81CHL1    C4 8405   5.971   1.302   6.914  0.0566 -0.2624 -0.1993
   81CHL1   H4A 8406   5.862   1.310   6.891  0.0867  1.0434  0.0630
   81CHL1   H4B 8407   6.014   1.218   6.856  1.4162  0.7457 -0.6977
   81CHL1    C5 8408   5.993   1.292   7.069  0.0591 -0.5249  1.2485
   81CHL1    C6 8409   6.053   1.185   7.115 -0.2601  0.5181 -0.3509
   81CHL1    H6 8410   6.076   1.096   7.055  1.0973 -0.6371  1.7198
   81CHL1    C7 8411   6.095   1.167   7.259 -0.5946 -0.8047  0.7404
   81CHL1   H7A 8412   6.081   1.059   7.283 -3.3578 -0.5090  0.8159
   81CHL1   H7B 8413   6.199   1.202   7.274 -0.3011 -1.4082  0.2003
   81CHL1    C8 8414   6.008   1.248   7.347  0.1934  0.0947 -0.4975
   81CHL1    H8 8415   5.906   1.204   7.341 -0.0630  0.6880 -0.5996
   81CHL1   C14 8416   6.055   1.243   7.491 -0.2986  0.3053 -0.6420
   81CHL1   H14 8417   6.155   1.290   7.496  1.0679 -2.3821 -0.4806
   81CHL1   C15 8418   6.088   1.112   7.558 -0.2982 -0.8484 -0.3963
   81CHL1  H15A 8419   6.013   1.030   7.550 -0.4254 -0.6638 -1.1135
   81CHL1  H15B 8420   6.186   1.079   7.517 -0.4534 -1.9939  0.1219
   81CHL1   C16 8421   6.095   1.146   7.709  0.2277 -0.9292  0.1019
   81CHL1  H16A 8422   6.026   1.079   7.765  1.7018 -1.2818  1.5608
   81CHL1  H16B 8423   6.200   1.141   7.744 -0.3318 -1.0890  1.8298
   81CHL1   C17 8424   6.051   1.295   7.726  0.0634 -0.1391 -0.3825
   81CHL1   H17 8425   6.145   1.353   7.729 -0.8090  1.3155  2.0983
   81CHL1   C13 8426   5.973   1.329   7.596 -0.5928  0.1324 -0.2287
   81CHL1   C18 8427   5.828   1.292   7.600  0.0895 -0.0530 -0.6117
   81CHL1  H18A 8428   5.832   1.200   7.661  0.4179  0.4251  0.1059
   81CHL1  H18B 8429   5.766   1.364   7.657 -0.1380 -0.3494 -0.4850
   81CHL1  H18C 8430   5.781   1.288   7.499 -1.3988  1.3855 -0.0239
   81CHL1   C12 8431   5.996   1.470   7.547  0.2452  0.1999  0.3017
   81CHL1  H12A 8432   5.941   1.544   7.609 -0.4409  0.1102 -0.1847
   81CHL1  H12B 8433   6.105   1.488   7.552  0.2096  0.3670  0.4759
   81CHL1   C11 8434   5.964   1.497   7.401 -0.0632 -0.5252  0.4203
   81CHL1  H11A 8435   5.854   1.485   7.393 -0.0683 -2.1024  2.1903
   81CHL1  H11B 8436   5.998   1.594   7.359  1.5384 -1.1062  0.2930
   81CHL1    C9 8437   6.013   1.388   7.299 -0.2246  0.0151 -0.6959
   81CHL1    H9 8438   6.120   1.418   7.294 -0.5502  1.8118  1.3544
   81CHL1   C10 8439   5.955   1.411   7.157 -0.1869  0.4737  0.1326
   81CHL1   C19 8440   5.805   1.410   7.160  0.2484  0.6312 -0.0814
   81CHL1  H19A 8441   5.775   1.324   7.224  5.0884  1.4247  3.8659
   81CHL1  H19B 8442   5.760   1.501   7.204  1.4397  1.3370 -0.2977
   81CHL1  H19C 8443   5.757   1.392   7.061 -0.1311 -1.8170  0.4695
   81CHL1    C1 8444   6.023   1.537   7.088  0.6116 -0.5036 -0.4436
   81CHL1   H1A 8445   5.981   1.620   7.148  0.3073 -1.8232  1.2382
   81CHL1   H1B 8446   6.131   1.537   7.114  0.5092  5.9983  1.7797
   81CHL1    C2 8447   5.986   1.548   6.938 -0.9280  0.0275  0.3984
   81CHL1   H2A 8448   6.033   1.635   6.888 -0.6302 -0.4527 -0.1635
   81CHL1   H2B 8449   5.879   1.568   6.917 -0.7854  1.1462  0.6555
   81CHL1   C20 8450   5.981   1.322   7.853 -0.1842 -0.5806 -0.1511
   81CHL1   H20 8451   5.881   1.274   7.860  0.4858 -1.8984  1.2248
   81CHL1   C21 8452   5.970   1.477   7.869  0.2815  0.7712 -0.0637
   81CHL1  H21A 8453   5.943   1.500   7.974 -1.8022 -1.2794 -0.0598
   81CHL1  H21B 8454   5.886   1.519   7.810 -0.6232 -1.2976 -0.3546
   81CHL1  H21C 8455   6.062   1.537   7.856  0.8247 -0.2159 -0.9611
   81CHL1   C22 8456   6.059   1.271   7.976  0.3695 -0.1165 -0.1520
   81CHL1  H22A 8457   6.093   1.168   7.953  2.1611  0.6487 -1.1746
   81CHL1  H22B 8458   6.146   1.332   8.011  1.3673 -0.8521 -1.2643
   81CHL1   C23 8459   5.969   1.265   8.094  0.2704 -0.0052 -0.1911
   81CHL1  H23A 8460   5.924   1.361   8.126 -0.7385 -0.0152 -1.5212
   81CHL1  H23B 8461   5.887   1.191   8.080  1.0786 -0.5796 -2.3214
   81CHL1   C24 8462   6.051   1.234   8.219  0.0488  0.7379 -0.3612
   81CHL1  H24A 8463   6.135   1.167   8.189 -0.2513  0.4530 -0.5682
   81CHL1  H24B 8464   6.102   1.322   8.263 -0.2166 -0.2751  2.0990
   81CHL1   C25 8465   5.969   1.168   8.328 -0.2499  0.2785  0.1401
   81CHL1   H25 8466   5.899   1.097   8.278 -0.2612  1.2933 -1.3604
   81CHL1   C26 8467   6.051   1.082   8.433 -0.2676 -0.2512  0.5332
   81CHL1  H26A 8468   5.998   1.068   8.530  0.5166 -0.7169  0.9025
   81CHL1  H26B 8469   6.080   0.986   8.385  1.6822  0.2791  0.5610
   81CHL1  H26C 8470   6.141   1.145   8.449 -0.5116  0.6723 -1.4430
   81CHL1   C27 8471   5.893   1.281   8.404 -0.2770  0.5019 -0.3216
   81CHL1  H27A 8472   5.818   1.241   8.476  0.4685  1.2023  0.8738
   81CHL1  H27B 8473   5.968   1.344   8.456 -0.5535  1.0015 -0.5189
   81CHL1  H27C 8474   5.839   1.347   8.333  0.5006  1.3764 -0.1137
   82CHL1    C3 8475   6.815   2.002   7.249 -0.2025  0.4953  0.0301
   82CHL1    H3 8476   6.759   1.908   7.227  1.4515 -0.3100 -0.8988
   82CHL1    O3 8477   6.874   2.055   7.132  0.8010  0.1656 -0.1025
   82CHL1   H3' 8478   6.942   2.000   7.093 -0.1021 -0.8264 -0.3424
   82CHL1    C4 8479   6.721   2.112   7.309  0.6276  0.5221 -0.5678
   82CHL1   H4A 8480   6.773   2.209   7.314  0.6070  0.4756  1.5435
   82CHL1   H4B 8481   6.641   2.113   7.231 -0.1833 -3.3630 -0.0344
   82CHL1    C5 8482   6.664   2.085   7.445 -0.4341  0.0620  0.2501
   82CHL1    C6 8483   6.534   2.091   7.461  1.1566  0.1782  0.2382
   82CHL1    H6 8484   6.462   2.111   7.380  1.6574 -0.1383 -0.2933
   82CHL1    C7 8485   6.470   2.081   7.601 -0.8104  0.4870 -0.3376
   82CHL1   H7A 8486   6.388   2.152   7.624 -1.9041 -1.0783  0.7635
   82CHL1   H7B 8487   6.424   1.980   7.606  1.1369 -0.3849  1.1000
   82CHL1    C8 8488   6.578   2.086   7.714  0.0530 -0.2111  1.1805
   82CHL1    H8 8489   6.592   2.195   7.732 -2.9104  0.2645  1.0822
   82CHL1   C14 8490   6.529   2.025   7.846 -1.0798 -0.7571 -1.1737
   82CHL1   H14 8491   6.513   1.920   7.813 -0.6872 -0.8247 -1.1640
   82CHL1   C15 8492   6.389   2.066   7.903 -0.0181  0.2752  0.5040
   82CHL1  H15A 8493   6.375   2.175   7.892  1.2541  0.3653 -0.4527
   82CHL1  H15B 8494   6.308   2.014   7.848  0.6178  1.1041 -1.3016
   82CHL1   C16 8495   6.392   2.016   8.049 -0.4291  0.0134  0.1492
   82CHL1  H16A 8496   6.372   2.101   8.117 -0.3282 -0.7272  1.1294
   82CHL1  H16B 8497   6.318   1.936   8.072  1.0553 -1.3365  0.4235
   82CHL1   C17 8498   6.538   1.961   8.071  0.1373  0.4652  0.0407
   82CHL1   H17 8499   6.534   1.855   8.039 -1.8852 -0.2355  2.3283
   82CHL1   C13 8500   6.622   2.024   7.962 -0.0447 -0.3389  0.6570
   82CHL1   C18 8501   6.661   2.166   8.000 -0.9271 -0.3247 -0.0907
   82CHL1  H18A 8502   6.713   2.158   8.098 -0.2585 -0.6880 -0.4682
   82CHL1  H18B 8503   6.731   2.216   7.930  0.9376  0.2445  2.0621
   82CHL1  H18C 8504   6.584   2.243   8.021  0.3695  0.8453  0.5016
   82CHL1   C12 8505   6.743   1.937   7.923 -0.4112 -0.1286  0.0674
   82CHL1  H12A 8506   6.811   1.942   8.012  0.3570  1.8313 -0.5717
   82CHL1  H12B 8507   6.709   1.832   7.910  0.4040 -0.5638  1.1831
   82CHL1   C11 8508   6.807   1.991   7.796  0.9418 -0.0639  0.5194
   82CHL1  H11A 8509   6.854   2.090   7.816  1.1197 -0.2011  0.7742
   82CHL1  H11B 8510   6.880   1.916   7.758 -0.7620 -2.8002  2.3449
   82CHL1    C9 8511   6.709   2.014   7.679  1.0059  0.1389 -0.5815
   82CHL1    H9 8512   6.679   1.911   7.651  0.9570  0.0645 -0.2653
   82CHL1   C10 8513   6.771   2.061   7.550  0.0744 -0.0131  0.4767
   82CHL1   C19 8514   6.860   2.187   7.568 -0.3919 -0.3370 -0.1067
   82CHL1  H19A 8515   6.793   2.258   7.622  2.1496  0.3154  2.3834
   82CHL1  H19B 8516   6.951   2.169   7.629 -0.9054 -2.5833  0.0651
   82CHL1  H19C 8517   6.895   2.230   7.472  0.6035  1.3083  0.9437
   82CHL1    C1 8518   6.865   1.950   7.489 -0.3448  0.8568 -0.6988
   82CHL1   H1A 8519   6.950   1.923   7.555 -0.4075  0.1087 -0.9054
   82CHL1   H1B 8520   6.807   1.855   7.485  0.6711  0.1157  1.0855
   82CHL1    C2 8521   6.926   1.977   7.349 -0.5135  0.4308  0.0921
   82CHL1   H2A 8522   7.000   1.902   7.315  1.0561  3.0425 -2.7374
   82CHL1   H2B 8523   6.989   2.066   7.367 -0.9548  0.7341  0.1375
   82CHL1   C20 8524   6.597   1.966   8.210  0.0793  0.2438  0.2274
   82CHL1   H20 8525   6.707   1.985   8.202  0.3654 -0.9276  1.0679
   82CHL1   C21 8526   6.578   1.824   8.278  0.0464  0.0794  0.0439
   82CHL1  H21A 8527   6.622   1.744   8.214 -0.7669 -3.2118  3.2592
   82CHL1  H21B 8528   6.470   1.800   8.283  0.3118 -1.9848 -2.3336
   82CHL1  H21C 8529   6.634   1.814   8.373  1.2136  0.6933 -0.5463
   82CHL1   C22 8530   6.533   2.070   8.311 -0.4378 -0.7328 -0.1168
   82CHL1  H22A 8531   6.540   2.168   8.260  0.2889 -0.0005  1.3317
   82CHL1  H22B 8532   6.427   2.038   8.326 -0.3151 -0.2451  2.1656
   82CHL1   C23 8533   6.603   2.078   8.450 -0.0620 -0.0592  0.9877
   82CHL1  H23A 8534   6.618   1.977   8.493 -1.1281 -0.8827 -0.5065
   82CHL1  H23B 8535   6.708   2.110   8.433  0.4480 -0.1220  3.5402
   82CHL1   C24 8536   6.514   2.158   8.545 -0.2046 -0.2540  0.7700
   82CHL1  H24A 8537   6.571   2.165   8.640 -0.4351  2.5622  0.7800
   82CHL1  H24B 8538   6.509   2.267   8.521  0.8703 -0.4897 -0.6450
   82CHL1   C25 8539   6.368   2.126   8.569  0.3203  0.1103 -0.4729
   82CHL1   H25 8540   6.320   2.139   8.470  0.7375 -0.9847 -0.8308
   82CHL1   C26 8541   6.346   1.980   8.630  0.1306  0.1026 -0.8038
   82CHL1  H26A 8542   6.413   1.904   8.584 -0.7763 -2.2707  1.5699
   82CHL1  H26B 8543   6.345   1.978   8.741  0.3690  0.1044 -0.8008
   82CHL1  H26C 8544   6.243   1.951   8.600  0.4219 -2.1377  0.2219
   82CHL1   C27 8545   6.306   2.220   8.676  0.4576 -0.3572  0.1886
   82CHL1  H27A 8546   6.315   2.323   8.636  1.0963  0.2429  1.7881
   82CHL1  H27B 8547   6.196   2.203   8.678  0.2985  0.4550 -1.0101
   82CHL1  H27C 8548   6.361   2.221   8.773  0.7432  1.2049  0.0448
   83CHL1    C3 8549   4.126   2.622   6.832  0.0503  0.3923  0.4699
   83CHL1    H3 8550   4.170   2.520   6.825  0.6543  0.7125 -0.6290
   83CHL1    O3 8551   4.099   2.648   6.694 -1.1476  0.0524 -0.4357
   83CHL1   H3' 8552   4.091   2.561   6.656 -1.7064  0.2737 -0.8394
   83CHL1    C4 8553   3.998   2.605   6.916 -0.4605 -0.5049  0.7288
   83CHL1   H4A 8554   3.940   2.699   6.913  0.4737  0.0517 -1.0119
   83CHL1   H4B 8555   3.933   2.524   6.876  0.3009 -1.5913  1.6300
   83CHL1    C5 8556   4.030   2.568   7.059  0.2003 -0.3518  0.2375
   83CHL1    C6 8557   3.974   2.453   7.112 -0.3103 -0.0603 -0.8922
   83CHL1    H6 8558   3.895   2.398   7.058 -2.7529  1.2723  1.1183
   83CHL1    C7 8559   3.997   2.406   7.259  0.9857 -0.3466 -0.0932
   83CHL1   H7A 8560   3.909   2.380   7.321  2.0924 -2.0078  0.8467
   83CHL1   H7B 8561   4.057   2.314   7.250  1.3418  0.0763 -2.7145
   83CHL1    C8 8562   4.069   2.518   7.340 -0.0023  0.4331 -0.5649
   83CHL1    H8 8563   3.992   2.595   7.360 -0.0054  0.7197 -1.6163
   83CHL1   C14 8564   4.119   2.454   7.472 -0.4833  0.6318 -1.0932
   83CHL1   H14 8565   4.189   2.373   7.442 -0.4901 -1.7535  4.2200
   83CHL1   C15 8566   4.021   2.378   7.559  0.3479 -0.4381  0.3834
   83CHL1  H15A 8567   3.938   2.453   7.556  2.3373  1.8557 -0.4742
   83CHL1  H15B 8568   3.981   2.284   7.517  1.1573  0.0307 -1.5344
   83CHL1   C16 8569   4.097   2.356   7.690 -0.6590 -0.0551 -0.1598
   83CHL1  H16A 8570   4.020   2.383   7.766 -0.1574 -0.9883  0.7078
   83CHL1  H16B 8571   4.114   2.247   7.684 -0.8037 -0.0293 -1.2521
   83CHL1   C17 8572   4.221   2.446   7.678 -0.3635 -0.8097  0.3031
   83CHL1   H17 8573   4.296   2.373   7.640 -0.2127 -2.2383  3.0633
   83CHL1   C13 8574   4.195   2.549   7.566 -0.1589 -0.7381  0.2596
   83CHL1   C18 8575   4.106   2.669   7.603 -0.4727 -0.2462  0.5682
   83CHL1  H18A 8576   4.165   2.724   7.679  0.6134  0.6136 -0.8317
   83CHL1  H18B 8577   4.066   2.742   7.528 -1.3074  0.7113  1.8977
   83CHL1  H18C 8578   4.018   2.637   7.662 -2.0908 -1.8078 -2.4095
   83CHL1   C12 8579   4.312   2.605   7.485 -0.6486  0.2063 -0.2188
   83CHL1  H12A 8580   4.381   2.666   7.548  0.6123  1.0323 -2.2777
   83CHL1  H12B 8581   4.364   2.518   7.440  1.1581  0.1425  1.8081
   83CHL1   C11 8582   4.274   2.678   7.354 -0.2041 -0.3060  0.6641
   83CHL1  H11A 8583   4.219   2.770   7.384 -1.8566 -1.1241  0.2673
   83CHL1  H11B 8584   4.372   2.704   7.309 -0.6048 -2.3485 -1.5765
   83CHL1    C9 8585   4.188   2.590   7.258  0.2577  0.1277 -0.4431
   83CHL1    H9 8586   4.254   2.508   7.222 -1.6570 -0.6855 -2.3721
   83CHL1   C10 8587   4.132   2.655   7.127 -0.7954  0.8023 -0.0943
   83CHL1   C19 8588   4.071   2.796   7.174  0.1452  0.3951  0.2671
   83CHL1  H19A 8589   4.034   2.784   7.278  1.3540 -0.0277  0.6662
   83CHL1  H19B 8590   4.152   2.872   7.180  0.3998  0.2128 -0.6690
   83CHL1  H19C 8591   3.990   2.828   7.105 -0.4651  2.2910  1.7882
   83CHL1    C1 8592   4.260   2.679   7.037 -0.1713  0.0970  0.3687
   83CHL1   H1A 8593   4.317   2.762   7.084  0.6981  0.6723 -1.6185
   83CHL1   H1B 8594   4.318   2.586   7.020  0.8889  1.0821 -1.7512
   83CHL1    C2 8595   4.222   2.726   6.893  1.1795 -0.3739  0.1103
   83CHL1   H2A 8596   4.316   2.737   6.836  0.1328  0.5018 -1.5051
   83CHL1   H2B 8597   4.166   2.822   6.899  0.4725 -0.4408 -3.4173
   83CHL1   C20 8598   4.292   2.506   7.807 -0.7400  0.8902 -0.1911
   83CHL1   H20 8599   4.343   2.601   7.784 -0.0699  0.5551 -0.1002
   83CHL1   C21 8600   4.414   2.416   7.850  0.0673 -0.4973  0.7702
   83CHL1  H21A 8601   4.498   2.405   7.778 -0.4026 -0.1351  0.1535
   83CHL1  H21B 8602   4.370   2.315   7.858 -1.8370  0.2239 -0.0162
   83CHL1  H21C 8603   4.473   2.454   7.936 -0.6317  0.0919  1.0000
   83CHL1   C22 8604   4.197   2.523   7.932  0.5450 -0.5229  0.5387
   83CHL1  H22A 8605   4.105   2.582   7.913 -0.2815 -1.4845  1.4411
   83CHL1  H22B 8606   4.159   2.425   7.968  0.6370 -0.3488  1.1270
   83CHL1   C23 8607   4.267   2.613   8.040  0.7270 -0.2354 -0.5204
   83CHL1  H23A 8608   4.301   2.542   8.118 -5.0860 -2.1572  0.7665
   83CHL1  H23B 8609   4.363   2.658   8.008  1.1014 -0.2009  0.6087
   83CHL1   C24 8610   4.169   2.715   8.100  0.6235  0.0131  0.8718
   83CHL1  H24A 8611   4.125   2.782   8.023 -0.5987 -1.5026  0.2111
   83CHL1  H24B 8612   4.090   2.664   8.159 -2.2226  1.0852 -1.7245
   83CHL1   C25 8613   4.233   2.815   8.196  0.4638 -0.1837 -0.0653
   83CHL1   H25 8614   4.304   2.876   8.136 -1.6095  1.8789 -0.5829
   83CHL1   C26 8615   4.133   2.900   8.276  0.2623  0.0692 -0.0760
   83CHL1  H26A 8616   4.080   2.965   8.202 -0.3047  1.2015  1.2740
   83CHL1  H26B 8617   4.075   2.835   8.345 -1.1450  2.0185  0.6752
   83CHL1  H26C 8618   4.184   2.985   8.326  0.8553  0.7534 -1.7493
   83CHL1   C27 8619   4.313   2.741   8.309 -0.0011 -0.5046  0.5279
   83CHL1  H27A 8620   4.350   2.833   8.359 -1.6613  0.1744  0.5693
   83CHL1  H27B 8621   4.243   2.686   8.375  0.2603 -2.2098 -0.5333
   83CHL1  H27C 8622   4.385   2.668   8.266 -0.2641 -0.1387 -0.5682
   84CHL1    C3 8623   5.204   6.704   6.906 -0.3184 -0.3602 -0.5849
   84CHL1    H3 8624   5.136   6.617   6.920 -0.7959 -0.1808 -1.6932
   84CHL1    O3 8625   5.241   6.713   6.767  0.5808  0.0859  0.3898
   84CHL1   H3' 8626   5.312   6.653   6.746  0.9595  0.6820 -0.0488
   84CHL1    C4 8627   5.130   6.822   6.948 -0.6332  0.5694 -0.6393
   84CHL1   H4A 8628   5.185   6.915   6.920  0.3014  0.7848  1.7128
   84CHL1   H4B 8629   5.043   6.827   6.879 -0.9742  2.5296 -0.1317
   84CHL1    C5 8630   5.086   6.836   7.091  0.3185 -0.1534 -0.1785
   84CHL1    C6 8631   4.958   6.851   7.129 -0.5316 -0.4041 -0.2009
   84CHL1    H6 8632   4.878   6.855   7.054 -0.0432 -1.7006 -0.8184
   84CHL1    C7 8633   4.922   6.854   7.275 -0.0958 -0.8756 -0.3150
   84CHL1   H7A 8634   4.845   6.929   7.301  0.3392 -0.2083 -0.9191
   84CHL1   H7B 8635   4.881   6.754   7.300 -0.2554 -0.8704 -0.5450
   84CHL1    C8 8636   5.037   6.886   7.376 -0.0206  0.6413  0.2005
   84CHL1    H8 8637   5.072   6.991   7.365  0.6990  0.2587 -1.4900
   84CHL1   C14 8638   4.999   6.854   7.518  0.6847 -0.1687 -0.5631
   84CHL1   H14 8639   4.974   6.746   7.526 -2.3053  0.4869  0.2958
   84CHL1   C15 8640   4.877   6.928   7.576 -0.2481  0.0061  0.0549
   84CHL1  H15A 8641   4.880   7.037   7.557 -0.1666 -0.0415 -0.2162
   84CHL1  H15B 8642   4.782   6.878   7.549  0.8439 -2.1884 -0.0122
   84CHL1   C16 8643   4.896   6.900   7.733 -0.4476  0.1553  1.2369
   84CHL1  H16A 8644   4.869   6.993   7.788 -1.2165  0.9430 -0.3832
   84CHL1  H16B 8645   4.835   6.811   7.758 -0.8294 -0.6186 -2.0359
   84CHL1   C17 8646   5.050   6.863   7.754  1.0386  0.5654 -0.0164
   84CHL1   H17 8647   5.046   6.753   7.768 -2.0763  0.6970  0.8573
   84CHL1   C13 8648   5.112   6.887   7.615  0.9467  0.4915  0.9425
   84CHL1   C18 8649   5.150   7.037   7.611  0.5537  0.2156  0.1679
   84CHL1  H18A 8650   5.207   7.064   7.520  0.3762 -2.8085 -0.9365
   84CHL1  H18B 8651   5.066   7.107   7.631  0.6040  0.3310 -0.0215
   84CHL1  H18C 8652   5.219   7.052   7.697  0.5560  1.3265 -0.0108
   84CHL1   C12 8653   5.228   6.795   7.587  0.4132  0.1221  0.2332
   84CHL1  H12A 8654   5.312   6.795   7.660  0.6549 -1.9568  0.0178
   84CHL1  H12B 8655   5.188   6.692   7.597  0.1603  0.1176 -0.7062
   84CHL1   C11 8656   5.274   6.821   7.447 -0.8466  0.2790  0.0120
   84CHL1  H11A 8657   5.325   6.919   7.434  0.8539 -0.6265 -0.5488
   84CHL1  H11B 8658   5.347   6.745   7.411 -0.3430  0.1041  1.3601
   84CHL1    C9 8659   5.162   6.804   7.336 -0.0268 -0.1752  0.1996
   84CHL1    H9 8660   5.136   6.696   7.346  1.9576 -0.6522  0.8584
   84CHL1   C10 8661   5.204   6.824   7.191  0.8857  0.1553 -0.3254
   84CHL1   C19 8662   5.295   6.949   7.180  0.4726 -0.3402  0.5778
   84CHL1  H19A 8663   5.310   6.984   7.076  0.0054  2.1950  1.2892
   84CHL1  H19B 8664   5.249   7.038   7.228 -3.1085 -1.6186 -0.2137
   84CHL1  H19C 8665   5.390   6.922   7.232  1.4881  2.6136  0.4665
   84CHL1    C1 8666   5.297   6.702   7.144 -0.2687  0.5172  0.3102
   84CHL1   H1A 8667   5.391   6.697   7.203 -0.6399 -0.9173  0.8291
   84CHL1   H1B 8668   5.244   6.607   7.168  0.8120 -0.8620 -2.3271
   84CHL1    C2 8669   5.330   6.690   6.989 -0.3271 -0.8183 -0.8853
   84CHL1   H2A 8670   5.391   6.597   6.984 -1.3177 -1.5787  0.4510
   84CHL1   H2B 8671   5.393   6.778   6.964  0.5828 -0.4047  2.4119
   84CHL1   C20 8672   5.112   6.925   7.886 -0.0627 -0.8417  0.2807
   84CHL1   H20 8673   5.123   7.036   7.876  1.1473 -0.8023  1.6344
   84CHL1   C21 8674   5.259   6.872   7.900 -0.1167  0.2334 -0.5359
   84CHL1  H21A 8675   5.264   6.765   7.871  3.0245  0.6299 -1.8220
   84CHL1  H21B 8676   5.302   6.885   8.001  0.5694  5.0072 -1.1785
   84CHL1  H21C 8677   5.312   6.931   7.822 -0.0962 -0.7730 -1.3004
   84CHL1   C22 8678   5.030   6.895   8.014  0.5292 -0.0655  0.1238
   84CHL1  H22A 8679   4.932   6.846   8.000 -0.1482  1.0947  0.6989
   84CHL1  H22B 8680   5.088   6.820   8.073  1.4763 -0.0375 -0.7351
   84CHL1   C23 8681   4.997   7.018   8.100 -0.0069  0.0859 -0.3146
   84CHL1  H23A 8682   5.092   7.071   8.123 -0.9434  1.8870 -0.4542
   84CHL1  H23B 8683   4.933   7.077   8.031 -2.2358 -2.0624 -0.2259
   84CHL1   C24 8684   4.922   6.990   8.227  0.1725  0.1584  0.0223
   84CHL1  H24A 8685   4.832   6.927   8.210 -0.7970  0.3495  3.6626
   84CHL1  H24B 8686   4.985   6.937   8.300 -0.0065 -1.6998 -1.1119
   84CHL1   C25 8687   4.859   7.117   8.295 -0.0709 -0.2508  0.0127
   84CHL1   H25 8688   4.786   7.166   8.227  2.1059  0.8941 -1.5995
   84CHL1   C26 8689   4.797   7.077   8.434 -0.3778 -0.3404  1.3159
   84CHL1  H26A 8690   4.712   7.006   8.427 -2.2278  1.7828  0.9862
   84CHL1  H26B 8691   4.882   7.032   8.489 -0.1821 -4.2895 -1.8205
   84CHL1  H26C 8692   4.766   7.175   8.477 -0.4612  0.2186  0.0429
   84CHL1   C27 8693   4.956   7.229   8.319 -0.9617 -1.3454 -0.0891
   84CHL1  H27A 8694   5.039   7.200   8.387  0.4087 -0.4499 -1.2999
   84CHL1  H27B 8695   4.987   7.285   8.227 -0.6202  0.8619  1.2897
   84CHL1  H27C 8696   4.907   7.316   8.367  0.8079  1.5221 -2.9970
   85CHL1    C3 8697   4.824   4.068   6.935 -0.0276  0.0313  0.4885
   85CHL1    H3 8698   4.914   4.131   6.948 -1.3238  1.8874  0.8194
   85CHL1    O3 8699   4.777   4.083   6.801 -0.4055  0.6650 -0.5813
   85CHL1   H3' 8700   4.693   4.036   6.795  0.5096 -0.9001 -2.4595
   85CHL1    C4 8701   4.864   3.921   6.973  0.1013  0.1381 -0.1592
   85CHL1   H4A 8702   4.786   3.855   6.929  0.1641 -0.7200  0.9742
   85CHL1   H4B 8703   4.952   3.899   6.909  0.4841  2.0644 -0.3397
   85CHL1    C5 8704   4.879   3.903   7.125 -0.2220 -0.6658 -0.2720
   85CHL1    C6 8705   4.990   3.847   7.177 -0.7448  0.0777  0.1485
   85CHL1    H6 8706   5.076   3.814   7.116  1.0595  1.3749  1.8867
   85CHL1    C7 8707   5.009   3.828   7.327 -0.9963 -0.4500 -0.2172
   85CHL1   H7A 8708   5.059   3.729   7.329 -0.7997 -0.3461  0.0774
   85CHL1   H7B 8709   5.088   3.898   7.362  0.3937 -2.4646  0.8765
   85CHL1    C8 8710   4.884   3.844   7.416 -0.3271  0.5912 -0.0735
   85CHL1    H8 8711   4.815   3.757   7.417 -1.5353  1.4699  2.9100
   85CHL1   C14 8712   4.918   3.864   7.562  0.2608 -0.2578  0.6834
   85CHL1   H14 8713   4.982   3.953   7.575  0.9932 -1.1893  5.1032
   85CHL1   C15 8714   4.994   3.749   7.628 -0.4980 -0.4743  0.2836
   85CHL1  H15A 8715   4.947   3.652   7.600 -2.5747  0.4918  0.2577
   85CHL1  H15B 8716   5.100   3.740   7.594 -0.9156  0.2448 -1.2592
   85CHL1   C16 8717   4.986   3.777   7.778 -0.2124 -0.5862 -1.2021
   85CHL1  H16A 8718   4.964   3.687   7.838  1.2649 -0.1967 -0.0290
   85CHL1  H16B 8719   5.082   3.816   7.818 -0.3706 -0.2191 -1.1768
   85CHL1   C17 8720   4.882   3.893   7.800  0.4268 -1.0416 -0.4721
   85CHL1   H17 8721   4.940   3.987   7.802 -0.9364 -0.1512 -1.0743
   85CHL1   C13 8722   4.803   3.890   7.660 -0.6614  0.1798  0.2560
   85CHL1   C18 8723   4.696   3.783   7.671 -0.3310  0.0946  0.1494
   85CHL1  H18A 8724   4.735   3.683   7.699 -0.0510 -0.0853 -0.8508
   85CHL1  H18B 8725   4.607   3.809   7.732  0.0801 -0.3590  0.9489
   85CHL1  H18C 8726   4.655   3.760   7.570 -0.5254  1.5641 -0.1365
   85CHL1   C12 8727   4.741   4.021   7.615  0.2274  0.1710  0.3954
   85CHL1  H12A 8728   4.650   4.044   7.675  0.9017 -1.1211  1.9882
   85CHL1  H12B 8729   4.816   4.102   7.629 -0.7178  1.1084  0.2454
   85CHL1   C11 8730   4.697   4.019   7.467  0.0409  0.2790  0.2871
   85CHL1  H11A 8731   4.613   3.947   7.476 -0.2986  0.8674  2.3026
   85CHL1  H11B 8732   4.646   4.115   7.445 -1.9552 -1.1524 -1.8576
   85CHL1    C9 8733   4.812   3.976   7.369 -0.1007  0.8091 -0.0376
   85CHL1    H9 8734   4.895   4.050   7.381  1.8719 -1.3456  0.3215
   85CHL1   C10 8735   4.767   3.960   7.216 -0.1644 -0.0747 -0.5260
   85CHL1   C19 8736   4.646   3.859   7.206  0.0658 -0.1830 -0.0135
   85CHL1  H19A 8737   4.615   3.851   7.100 -0.9063 -0.8388  0.3045
   85CHL1  H19B 8738   4.688   3.760   7.236  1.2110  0.5729  0.9657
   85CHL1  H19C 8739   4.554   3.882   7.264  1.0625 -2.3979  2.7110
   85CHL1    C1 8740   4.726   4.107   7.171 -0.8848  0.5377  0.1072
   85CHL1   H1A 8741   4.635   4.151   7.216 -0.3646  1.9129 -0.1380
   85CHL1   H1B 8742   4.811   4.173   7.197  0.5525 -0.1692 -2.4358
   85CHL1    C2 8743   4.707   4.126   7.020 -0.1585  0.2164  0.2472
   85CHL1   H2A 8744   4.708   4.236   7.003  1.0851  0.4313  1.5239
   85CHL1   H2B 8745   4.612   4.084   6.980  1.0822 -2.6395  0.0684
   85CHL1   C20 8746   4.808   3.875   7.929  0.5331 -0.5038 -0.1180
   85CHL1   H20 8747   4.764   3.773   7.933 -1.1636  0.2033  0.0503
   85CHL1   C21 8748   4.693   3.972   7.952 -0.0803  0.4443 -0.1461
   85CHL1  H21A 8749   4.608   3.971   7.880  0.1418  0.4047 -0.4076
   85CHL1  H21B 8750   4.740   4.073   7.951  1.0839 -0.0639  0.9758
   85CHL1  H21C 8751   4.647   3.958   8.052  0.8054  1.2186  0.3842
   85CHL1   C22 8752   4.901   3.879   8.050 -0.3446 -0.0282 -0.7412
   85CHL1  H22A 8753   5.001   3.841   8.020  0.6462 -0.0619  2.2388
   85CHL1  H22B 8754   4.922   3.982   8.087 -0.5621 -0.5316  0.8351
   85CHL1   C23 8755   4.857   3.780   8.159  0.0859 -0.0472  0.3137
   85CHL1  H23A 8756   4.752   3.797   8.190 -0.4137  0.5903 -1.5408
   85CHL1  H23B 8757   4.852   3.686   8.099 -1.4078  1.0542 -1.3936
   85CHL1   C24 8758   4.950   3.786   8.279  0.2061 -0.0345 -0.5985
   85CHL1  H24A 8759   5.056   3.789   8.244  0.2937  0.2166 -0.3141
   85CHL1  H24B 8760   4.932   3.882   8.331  0.8265 -0.8096  1.1174
   85CHL1   C25 8761   4.933   3.673   8.377 -0.5125 -0.1455 -0.8212
   85CHL1   H25 8762   4.824   3.660   8.398 -0.5444  2.0118  0.7013
   85CHL1   C26 8763   5.005   3.548   8.316  0.4451  0.0403 -0.5310
   85CHL1  H26A 8764   5.012   3.460   8.383  1.1574  1.4059  1.2505
   85CHL1  H26B 8765   4.944   3.523   8.226 -1.0025 -0.6725  0.6117
   85CHL1  H26C 8766   5.109   3.575   8.287  1.7193 -0.8346  2.7741
   85CHL1   C27 8767   5.001   3.710   8.506 -0.3173 -0.1216  0.1656
   85CHL1  H27A 8768   5.110   3.725   8.494 -0.3992 -1.6385 -3.9629
   85CHL1  H27B 8769   4.959   3.804   8.548  2.7069  0.8041  1.4261
   85CHL1  H27C 8770   4.986   3.631   8.583  0.2988  0.4790  0.9209
   86CHL1    C3 8771   6.407   0.802   7.133 -0.0645 -0.3620  0.2058
   86CHL1    H3 8772   6.380   0.695   7.139 -0.1732 -0.3475 -0.0079
   86CHL1    O3 8773   6.395   0.848   7.000 -0.4238 -0.5223  0.3972
   86CHL1   H3' 8774   6.400   0.944   7.008 -0.0839 -0.3521 -1.4102
   86CHL1    C4 8775   6.291   0.870   7.211 -0.4125  0.4411  0.7144
   86CHL1   H4A 8776   6.315   0.979   7.208 -1.0151  0.5726  0.5126
   86CHL1   H4B 8777   6.200   0.861   7.148  1.0616 -1.4301 -1.3190
   86CHL1    C5 8778   6.291   0.817   7.350  0.4578 -0.3155 -0.3652
   86CHL1    C6 8779   6.178   0.766   7.400  0.1863 -0.3334 -0.0943
   86CHL1    H6 8780   6.085   0.756   7.341 -0.7978 -0.6562  1.4462
   86CHL1    C7 8781   6.158   0.740   7.550  0.0789 -0.5092  0.0711
   86CHL1   H7A 8782   6.069   0.785   7.599 -0.4526  0.3352 -1.6135
   86CHL1   H7B 8783   6.150   0.629   7.553  0.2517 -0.5867 -1.4774
   86CHL1    C8 8784   6.280   0.791   7.629  0.9268 -0.6172  0.0358
   86CHL1    H8 8785   6.275   0.902   7.641 -1.2754 -0.3827 -2.2671
   86CHL1   C14 8786   6.273   0.739   7.774 -0.2853 -0.6840 -0.7502
   86CHL1   H14 8787   6.279   0.628   7.764 -2.0218 -0.8440 -0.4330
   86CHL1   C15 8788   6.146   0.778   7.840 -0.3846  0.4866 -0.7686
   86CHL1  H15A 8789   6.118   0.883   7.818  1.8513  1.5997  1.2987
   86CHL1  H15B 8790   6.063   0.712   7.808  0.4155 -0.9608  0.0289
   86CHL1   C16 8791   6.174   0.765   7.992  0.4597  0.0290  0.4083
   86CHL1  H16A 8792   6.162   0.865   8.040  1.9654 -0.0804  1.0761
   86CHL1  H16B 8793   6.100   0.702   8.045 -1.2102  1.2290 -0.4277
   86CHL1   C17 8794   6.324   0.732   7.997  0.2098 -0.0228 -0.6512
   86CHL1   H17 8795   6.343   0.623   7.991  2.6149  0.1063  2.1678
   86CHL1   C13 8796   6.381   0.790   7.864  0.4197  0.1374  0.0996
   86CHL1   C18 8797   6.382   0.944   7.882  0.4835 -0.1143  0.3375
   86CHL1  H18A 8798   6.286   0.988   7.916  1.5022  0.0483  3.2962
   86CHL1  H18B 8799   6.460   0.974   7.956 -1.6270  1.9922  1.8641
   86CHL1  H18C 8800   6.415   0.995   7.789 -0.7358  2.3274  1.1476
   86CHL1   C12 8801   6.512   0.726   7.803 -0.3016 -0.4835  0.0018
   86CHL1  H12A 8802   6.605   0.747   7.861 -0.9864  0.1704  0.8953
   86CHL1  H12B 8803   6.496   0.616   7.793  1.4430 -0.6455 -1.4988
   86CHL1   C11 8804   6.540   0.779   7.664 -0.2713  0.8531  0.3585
   86CHL1  H11A 8805   6.564   0.887   7.670  0.0299  0.8002  0.1036
   86CHL1  H11B 8806   6.622   0.724   7.614 -2.6990 -0.7820 -2.0953
   86CHL1    C9 8807   6.418   0.759   7.562  0.1524  0.6761  0.1002
   86CHL1    H9 8808   6.406   0.650   7.542  0.9509  0.3319  1.3662
   86CHL1   C10 8809   6.423   0.831   7.427 -0.1531 -0.0996  0.0132
   86CHL1   C19 8810   6.456   0.983   7.465  0.2302  0.7109  0.1514
   86CHL1  H19A 8811   6.423   1.055   7.387 -0.3440  1.5071  1.0986
   86CHL1  H19B 8812   6.406   1.032   7.551 -3.4361  0.8988 -1.8980
   86CHL1  H19C 8813   6.567   0.993   7.471  0.4099  1.4231 -2.6947
   86CHL1    C1 8814   6.544   0.779   7.346 -0.3739 -0.1637  0.3650
   86CHL1   H1A 8815   6.636   0.807   7.401 -0.2754 -1.7027  1.0425
   86CHL1   H1B 8816   6.540   0.668   7.344 -0.1397 -0.1637 -0.4210
   86CHL1    C2 8817   6.543   0.826   7.196  0.7154 -0.4268  0.8206
   86CHL1   H2A 8818   6.621   0.768   7.142 -0.3095 -1.7196  0.6916
   86CHL1   H2B 8819   6.555   0.936   7.181 -1.5038 -0.2032  0.3958
   86CHL1   C20 8820   6.377   0.777   8.128  0.1781 -0.2552  0.1376
   86CHL1   H20 8821   6.370   0.888   8.135  0.2104 -0.0718 -2.0383
   86CHL1   C21 8822   6.529   0.745   8.143 -0.6936 -0.1083  0.2383
   86CHL1  H21A 8823   6.544   0.636   8.158 -0.0085 -0.5405 -3.0180
   86CHL1  H21B 8824   6.574   0.794   8.232 -1.7541  0.2785  0.5839
   86CHL1  H21C 8825   6.587   0.785   8.057  0.9070  0.9924  1.7510
   86CHL1   C22 8826   6.296   0.717   8.249 -0.2024  0.1792 -0.1927
   86CHL1  H22A 8827   6.186   0.733   8.241  0.1790  2.6361 -1.2447
   86CHL1  H22B 8828   6.321   0.609   8.259 -1.3240 -0.5139 -3.5289
   86CHL1   C23 8829   6.332   0.793   8.373  0.3209  0.0962 -0.2655
   86CHL1  H23A 8830   6.440   0.781   8.394  0.1977 -0.4845  0.0760
   86CHL1  H23B 8831   6.318   0.903   8.363  0.2593  0.4941  2.9760
   86CHL1   C24 8832   6.266   0.736   8.500 -0.4571  0.8341 -0.2266
   86CHL1  H24A 8833   6.300   0.792   8.589 -2.6225 -0.0382  1.2410
   86CHL1  H24B 8834   6.158   0.763   8.501  0.0955  3.2969  1.4605
   86CHL1   C25 8835   6.290   0.585   8.548 -0.0782 -0.0964 -0.6215
   86CHL1   H25 8836   6.245   0.594   8.649 -0.4676  2.0748 -0.9358
   86CHL1   C26 8837   6.205   0.479   8.478  0.6679 -0.5126  0.0583
   86CHL1  H26A 8838   6.201   0.380   8.527 -1.1666 -0.4234  0.1458
   86CHL1  H26B 8839   6.102   0.520   8.476  0.0401 -1.9483  1.1069
   86CHL1  H26C 8840   6.235   0.470   8.371  2.0269 -1.0023  0.4622
   86CHL1   C27 8841   6.435   0.541   8.569  0.0665  0.3183 -0.4061
   86CHL1  H27A 8842   6.432   0.430   8.579 -1.5150  0.2108 -1.6250
   86CHL1  H27B 8843   6.502   0.552   8.481 -0.9254 -1.5510 -1.4629
   86CHL1  H27C 8844   6.476   0.593   8.658  0.0343 -0.1444 -0.1121
   87CHL1    C3 8845   0.030   5.799   6.998 -0.4130  0.6380  0.1994
   87CHL1    H3 8846  -0.062   5.852   7.033  0.8698  1.9643  1.7152
   87CHL1    O3 8847   0.037   5.822   6.860  0.6853 -0.1191  0.3878
   87CHL1   H3' 8848   0.078   5.744   6.822  0.8997  0.0814  0.2032
   87CHL1    C4 8849   0.150   5.868   7.067 -0.2497  1.1877  0.2382
   87CHL1   H4A 8850   0.238   5.827   7.012  0.7556  1.8914  1.2835
   87CHL1   H4B 8851   0.138   5.975   7.040 -2.2132 -0.0890 -5.4160
   87CHL1    C5 8852   0.172   5.842   7.213  0.0293  0.1206  0.0311
   87CHL1    C6 8853   0.188   5.944   7.301 -0.2667  0.2375  0.2359
   87CHL1    H6 8854   0.180   6.046   7.263 -0.5838 -0.6033 -2.0727
   87CHL1    C7 8855   0.191   5.932   7.453 -0.5295 -0.2771  0.7960
   87CHL1   H7A 8856   0.270   5.992   7.503 -0.0212 -1.2189  1.1270
   87CHL1   H7B 8857   0.093   5.972   7.488 -0.4576 -0.4538  1.2031
   87CHL1    C8 8858   0.205   5.783   7.498 -0.2490  0.0038  0.7119
   87CHL1    H8 8859   0.310   5.748   7.493 -0.3386 -0.6341  2.5989
   87CHL1   C14 8860   0.148   5.762   7.641 -0.7361 -0.2338 -0.2728
   87CHL1   H14 8861   0.041   5.791   7.631 -0.1779  1.7788 -0.8690
   87CHL1   C15 8862   0.215   5.846   7.752  0.9243 -0.2486  0.3541
   87CHL1  H15A 8863   0.325   5.835   7.761  0.7210 -1.6980  1.4753
   87CHL1  H15B 8864   0.196   5.955   7.746  1.6720 -0.1861 -1.1440
   87CHL1   C16 8865   0.167   5.784   7.884 -0.3783  0.7138 -0.0235
   87CHL1  H16A 8866   0.250   5.784   7.958  0.7601  1.5783 -1.2539
   87CHL1  H16B 8867   0.077   5.839   7.921 -2.2447  0.2527 -3.4558
   87CHL1   C17 8868   0.111   5.644   7.843 -0.0593 -0.4161 -0.1387
   87CHL1   H17 8869   0.002   5.658   7.829 -0.0016 -0.9072 -1.1749
   87CHL1   C13 8870   0.163   5.621   7.700  0.2627 -0.2697  0.1397
   87CHL1   C18 8871   0.308   5.566   7.707  0.0346 -0.6674  0.1093
   87CHL1  H18A 8872   0.361   5.589   7.612  0.0629  0.2921  0.3476
   87CHL1  H18B 8873   0.360   5.629   7.782  0.7047  0.6974 -1.4308
   87CHL1  H18C 8874   0.326   5.465   7.750  1.9898  0.3145  1.7764
   87CHL1   C12 8875   0.076   5.525   7.620  0.1984  0.2993  1.5226
   87CHL1  H12A 8876   0.072   5.420   7.658 -0.8896 -0.9119 -1.5565
   87CHL1  H12B 8877  -0.032   5.549   7.627  0.2151  1.1682 -0.4331
   87CHL1   C11 8878   0.110   5.537   7.464 -0.0479  0.2437 -0.5689
   87CHL1  H11A 8879   0.215   5.500   7.454 -0.5841 -0.7338 -4.2735
   87CHL1  H11B 8880   0.035   5.480   7.404 -2.8832  2.5597  0.5676
   87CHL1    C9 8881   0.117   5.684   7.409 -0.1576  0.5790  0.6082
   87CHL1    H9 8882   0.013   5.722   7.420 -0.4643 -0.0011 -0.1397
   87CHL1   C10 8883   0.146   5.705   7.254  0.2531  0.2060 -0.4235
   87CHL1   C19 8884   0.263   5.613   7.215  0.3033 -0.2374  0.1957
   87CHL1  H19A 8885   0.353   5.626   7.280 -0.4055  2.2038  0.7825
   87CHL1  H19B 8886   0.231   5.507   7.217  0.7605 -0.4092 -0.6608
   87CHL1  H19C 8887   0.308   5.637   7.116  1.3559  0.0920  0.7412
   87CHL1    C1 8888   0.025   5.649   7.179 -0.4867 -0.4143  0.0561
   87CHL1   H1A 8889   0.010   5.543   7.208 -0.6672 -0.2673  0.5086
   87CHL1   H1B 8890  -0.061   5.710   7.212  0.6043  0.7465  0.8215
   87CHL1    C2 8891   0.020   5.651   7.024 -0.1121  0.1973 -0.7255
   87CHL1   H2A 8892  -0.075   5.618   6.977 -0.9113  1.7051 -0.2506
   87CHL1   H2B 8893   0.106   5.587   6.995 -0.3726 -1.5113  1.9361
   87CHL1   C20 8894   0.144   5.549   7.963 -0.6369  0.1815 -0.3633
   87CHL1   H20 8895   0.252   5.557   7.987 -0.8760  0.5820  0.6177
   87CHL1   C21 8896   0.122   5.401   7.938 -0.1570  0.8754 -0.5962
   87CHL1  H21A 8897   0.157   5.359   7.841  0.5192 -0.1218  0.0636
   87CHL1  H21B 8898   0.016   5.378   7.965  0.4650  1.3692  2.7106
   87CHL1  H21C 8899   0.174   5.330   8.006  1.1414  1.2070 -1.2108
   87CHL1   C22 8900   0.070   5.588   8.095  0.4705 -0.2780 -1.0981
   87CHL1  H22A 8901   0.095   5.692   8.123 -0.7411 -0.1594 -0.4038
   87CHL1  H22B 8902  -0.039   5.585   8.077 -0.1790  1.5164  1.8620
   87CHL1   C23 8903   0.103   5.511   8.220 -0.0142 -0.1183  0.3247
   87CHL1  H23A 8904   0.099   5.402   8.200 -0.8790 -0.1856  0.8074
   87CHL1  H23B 8905   0.211   5.533   8.235  0.5714 -1.5115 -1.4888
   87CHL1   C24 8906   0.022   5.550   8.337  0.0712 -0.1955 -0.2937
   87CHL1  H24A 8907   0.051   5.654   8.361 -0.2356  0.0396 -0.9152
   87CHL1  H24B 8908  -0.087   5.550   8.315  0.2315 -1.7801 -1.3098
   87CHL1   C25 8909   0.039   5.457   8.460 -0.3561  0.2626 -0.1836
   87CHL1   H25 8910  -0.023   5.499   8.542  0.0974 -0.5129  0.5700
   87CHL1   C26 8911  -0.018   5.314   8.428 -0.0736  0.2437 -0.0135
   87CHL1  H26A 8912   0.037   5.256   8.351  0.5520 -0.3455  0.8504
   87CHL1  H26B 8913  -0.015   5.253   8.521 -1.4334  2.0442  1.2797
   87CHL1  H26C 8914  -0.126   5.314   8.401  0.1261 -2.5908 -1.1429
   87CHL1   C27 8915   0.181   5.447   8.516  0.2381  0.0669  0.4138
   87CHL1  H27A 8916   0.230   5.358   8.471 -1.7064 -0.3064 -1.1362
   87CHL1  H27B 8917   0.243   5.533   8.483  0.3585  0.0535  0.6092
   87CHL1  H27C 8918   0.192   5.427   8.624 -0.1078  1.7880  0.8006
   88CHL1    C3 8919   3.008   5.636   6.992 -0.5479 -0.1371  0.7485
   88CHL1    H3 8920   3.032   5.529   6.977 -0.2278  0.0540 -0.1024
   88CHL1    O3 8921   2.976   5.703   6.875 -0.4452  0.2601 -0.5237
   88CHL1   H3' 8922   2.916   5.771   6.907  2.0856  2.0640  0.7623
   88CHL1    C4 8923   2.873   5.636   7.073 -0.0400 -0.2824 -0.9963
   88CHL1   H4A 8924   2.821   5.734   7.082 -2.4872 -1.6885  2.6085
   88CHL1   H4B 8925   2.794   5.576   7.022  0.8890 -0.2992 -2.4830
   88CHL1    C5 8926   2.900   5.584   7.216  0.8425 -0.3416 -0.1545
   88CHL1    C6 8927   2.821   5.481   7.272 -0.0088  0.0099  0.3172
   88CHL1    H6 8928   2.737   5.443   7.212 -2.4303  2.5774  1.8359
   88CHL1    C7 8929   2.840   5.437   7.413  0.0144  0.2440  1.0423
   88CHL1   H7A 8930   2.740   5.437   7.461 -0.3889 -0.3990  0.2407
   88CHL1   H7B 8931   2.874   5.331   7.413  0.1734  0.2955  0.8876
   88CHL1    C8 8932   2.935   5.519   7.506  0.0688 -0.3407 -0.1359
   88CHL1    H8 8933   2.877   5.604   7.546 -0.7924 -0.7918 -0.4006
   88CHL1   C14 8934   2.985   5.429   7.628  0.2424  0.1034  0.0128
   88CHL1   H14 8935   3.054   5.357   7.579 -0.5356 -0.1548 -0.7254
   88CHL1   C15 8936   2.871   5.348   7.697  0.3532 -0.5981  0.3200
   88CHL1  H15A 8937   2.775   5.403   7.712  0.8052  0.2598  0.1432
   88CHL1  H15B 8938   2.865   5.247   7.650 -1.7102 -0.4734  0.2051
   88CHL1   C16 8939   2.941   5.322   7.836  0.3272  0.4272  0.3724
   88CHL1  H16A 8940   2.878   5.336   7.926  0.8655 -1.5566  1.1192
   88CHL1  H16B 8941   2.960   5.213   7.826 -0.4438  0.4226 -1.3980
   88CHL1   C17 8942   3.078   5.402   7.836  0.0269  0.5026 -1.0053
   88CHL1   H17 8943   3.150   5.328   7.794 -0.1079  1.2164 -2.5542
   88CHL1   C13 8944   3.068   5.511   7.728  0.5567 -0.2115 -0.0259
   88CHL1   C18 8945   2.972   5.623   7.787 -0.3495  0.5869 -0.3414
   88CHL1  H18A 8946   3.017   5.673   7.875 -0.1972  0.2989 -0.2552
   88CHL1  H18B 8947   2.937   5.702   7.716  0.5841  2.8134  1.5453
   88CHL1  H18C 8948   2.879   5.586   7.835  0.4113  0.4860  1.1143
   88CHL1   C12 8949   3.188   5.568   7.654 -0.0124  0.5051  0.0289
   88CHL1  H12A 8950   3.257   5.631   7.714 -0.1916  0.7674 -0.0338
   88CHL1  H12B 8951   3.247   5.478   7.628  0.4185  0.5449  0.8611
   88CHL1   C11 8952   3.159   5.645   7.522  0.1643  0.0056 -0.9229
   88CHL1  H11A 8953   3.113   5.741   7.553 -0.4360 -1.4255  3.3515
   88CHL1  H11B 8954   3.256   5.648   7.468 -0.0156 -2.4541 -1.4940
   88CHL1    C9 8955   3.062   5.565   7.428 -0.6608  0.3127  0.0692
   88CHL1    H9 8956   3.111   5.469   7.403 -2.9314 -0.7598 -0.5890
   88CHL1   C10 8957   3.019   5.640   7.295  0.2984  0.1837 -0.4443
   88CHL1   C19 8958   2.979   5.780   7.339  0.2997 -0.9767  0.1695
   88CHL1  H19A 8959   2.926   5.829   7.255  0.9461 -0.1835  0.2127
   88CHL1  H19B 8960   2.906   5.789   7.422  1.4867 -0.6201  1.2184
   88CHL1  H19C 8961   3.064   5.849   7.362  0.1850  0.0248 -2.1892
   88CHL1    C1 8962   3.145   5.664   7.201  0.6661 -0.2416 -0.5462
   88CHL1   H1A 8963   3.218   5.730   7.251 -0.9403  1.9163 -0.8951
   88CHL1   H1B 8964   3.179   5.560   7.183 -0.9195 -1.1508  1.2512
   88CHL1    C2 8965   3.107   5.724   7.062 -0.1288  0.3136 -0.1505
   88CHL1   H2A 8966   3.197   5.737   6.998 -0.2488  2.4346  0.0553
   88CHL1   H2B 8967   3.065   5.825   7.076 -0.7826  0.0280 -0.0203
   88CHL1   C20 8968   3.126   5.441   7.985 -0.5103  0.1942  0.1388
   88CHL1   H20 8969   3.045   5.504   8.026 -0.0242  1.0548 -0.1866
   88CHL1   C21 8970   3.259   5.518   7.980  0.2536 -0.0528  0.3509
   88CHL1  H21A 8971   3.236   5.622   7.946  0.1068 -0.4608 -0.8466
   88CHL1  H21B 8972   3.310   5.483   7.888 -1.1915  0.1582 -0.5773
   88CHL1  H21C 8973   3.332   5.512   8.063 -0.2709 -1.9574  0.7105
   88CHL1   C22 8974   3.152   5.321   8.078  1.1706  0.0553 -0.0363
   88CHL1  H22A 8975   3.056   5.266   8.071  0.7794  0.8295 -0.8637
   88CHL1  H22B 8976   3.232   5.249   8.051 -1.9015 -3.2010 -1.2332
   88CHL1   C23 8977   3.171   5.352   8.227  0.7158  0.2431  0.8910
   88CHL1  H23A 8978   3.221   5.449   8.248 -1.1665  1.6556 -0.7265
   88CHL1  H23B 8979   3.069   5.376   8.264  0.6501 -1.3336  1.8301
   88CHL1   C24 8980   3.229   5.233   8.302  0.0570 -0.2733  0.0500
   88CHL1  H24A 8981   3.197   5.140   8.250 -1.9375 -0.8144  2.0883
   88CHL1  H24B 8982   3.339   5.229   8.286  0.3569  2.3177  1.1109
   88CHL1   C25 8983   3.198   5.224   8.443 -0.8386 -0.7126 -0.6284
   88CHL1   H25 8984   3.088   5.229   8.461 -0.3974 -1.2773  2.8669
   88CHL1   C26 8985   3.245   5.092   8.509  0.0404  0.3918  0.2397
   88CHL1  H26A 8986   3.206   5.095   8.613 -1.8489  2.5192 -0.4421
   88CHL1  H26B 8987   3.203   5.006   8.453 -0.5387  0.7070  0.1784
   88CHL1  H26C 8988   3.356   5.086   8.507 -0.0066 -0.9282  0.4053
   88CHL1   C27 8989   3.255   5.357   8.518  0.4258  0.5274 -0.2859
   88CHL1  H27A 8990   3.185   5.443   8.518 -0.6121 -0.0283 -5.0485
   88CHL1  H27B 8991   3.272   5.323   8.622  1.8447 -0.6124 -0.8445
   88CHL1  H27C 8992   3.345   5.408   8.478 -1.2701  2.4571 -1.8494
   89CHL1    C3 8993   6.426   6.078   7.017  0.1825 -0.4548  0.2533
   89CHL1    H3 8994   6.327   6.111   7.054  0.7712  2.9088 -0.7447
   89CHL1    O3 8995   6.417   6.064   6.879  0.0235  0.3204 -0.0106
   89CHL1   H3' 8996   6.479   5.994   6.857 -0.8700 -0.0641 -1.4056
   89CHL1    C4 8997   6.530   6.176   7.064 -0.3021  0.3952  0.5342
   89CHL1   H4A 8998   6.626   6.134   7.025 -0.1173 -0.9702  2.3238
   89CHL1   H4B 8999   6.522   6.277   7.020  0.4945 -0.3165 -1.3486
   89CHL1    C5 9000   6.511   6.189   7.213  0.3683 -0.5663 -0.0566
   89CHL1    C6 9001   6.485   6.302   7.277  0.7181  0.1877  0.4625
   89CHL1    H6 9002   6.454   6.392   7.222 -2.6796 -0.9954  0.2323
   89CHL1    C7 9003   6.477   6.307   7.425  0.3280 -0.0230 -0.1509
   89CHL1   H7A 9004   6.507   6.405   7.468 -0.6703  0.4052 -0.4053
   89CHL1   H7B 9005   6.370   6.302   7.454  0.9893 -1.3641  2.3064
   89CHL1    C8 9006   6.544   6.186   7.503 -0.2880  0.5282 -0.2090
   89CHL1    H8 9007   6.655   6.192   7.504  0.1733 -4.1534 -0.3014
   89CHL1   C14 9008   6.492   6.190   7.648  0.4255 -0.0311 -0.0020
   89CHL1   H14 9009   6.381   6.182   7.645 -0.0089  4.0979 -0.8504
   89CHL1   C15 9010   6.515   6.319   7.722  0.1177 -0.3010 -0.6568
   89CHL1  H15A 9011   6.622   6.345   7.706 -0.2393  2.6138  1.0923
   89CHL1  H15B 9012   6.453   6.403   7.685  0.6093  0.1010 -0.5843
   89CHL1   C16 9013   6.478   6.282   7.870  0.2678 -0.2802  0.3916
   89CHL1  H16A 9014   6.532   6.352   7.937 -1.5971  2.2590 -0.6113
   89CHL1  H16B 9015   6.373   6.313   7.887 -0.3081  0.9680 -3.9946
   89CHL1   C17 9016   6.495   6.121   7.881 -0.3010  1.0838 -0.5169
   89CHL1   H17 9017   6.390   6.086   7.887  0.5412 -1.3621  1.5914
   89CHL1   C13 9018   6.547   6.079   7.744 -0.4328 -0.2239  0.0856
   89CHL1   C18 9019   6.703   6.079   7.744  0.2610 -0.2245  0.4695
   89CHL1  H18A 9020   6.742   6.063   7.641  0.0678  1.2005  0.1538
   89CHL1  H18B 9021   6.746   6.172   7.789 -0.6973 -0.6559  2.3980
   89CHL1  H18C 9022   6.750   5.997   7.802  0.6018  1.4225  2.6746
   89CHL1   C12 9023   6.507   5.944   7.684  0.2259 -0.1609 -1.1355
   89CHL1  H12A 9024   6.562   5.859   7.730 -0.7722 -0.0258  0.3828
   89CHL1  H12B 9025   6.398   5.932   7.702  0.4176 -0.2283  0.0942
   89CHL1   C11 9026   6.541   5.930   7.529 -0.0595  1.0357 -0.5395
   89CHL1  H11A 9027   6.651   5.915   7.531 -0.2081 -0.2199  1.6556
   89CHL1  H11B 9028   6.497   5.835   7.493 -2.1918  1.7926 -0.0802
   89CHL1    C9 9029   6.500   6.052   7.439 -0.1488 -0.2910 -0.5446
   89CHL1    H9 9030   6.391   6.047   7.458 -0.3242  1.2592 -0.9671
   89CHL1   C10 9031   6.526   6.051   7.290 -0.2432 -0.3837 -0.3285
   89CHL1   C19 9032   6.674   6.019   7.276 -0.4064 -0.0497  0.3025
   89CHL1  H19A 9033   6.710   6.014   7.171 -0.5266  1.4188  0.1709
   89CHL1  H19B 9034   6.737   6.096   7.326 -0.9189  0.3309  0.3679
   89CHL1  H19C 9035   6.696   5.920   7.321 -1.0765 -1.2836 -1.9760
   89CHL1    C1 9036   6.433   5.938   7.231  0.0196 -0.0618  0.1765
   89CHL1   H1A 9037   6.474   5.840   7.264 -1.8183 -0.8250  0.3462
   89CHL1   H1B 9038   6.332   5.949   7.275  0.5126  1.8475  0.9071
   89CHL1    C2 9039   6.444   5.937   7.078 -0.0489 -0.1088  0.2330
   89CHL1   H2A 9040   6.369   5.866   7.037  1.0135 -0.4558 -1.1649
   89CHL1   H2B 9041   6.545   5.901   7.050  0.2288  0.3438  0.6342
   89CHL1   C20 9042   6.576   6.075   8.000 -0.7593  0.5150 -0.7099
   89CHL1   H20 9043   6.683   6.099   7.980 -0.8726 -1.1273 -3.7721
   89CHL1   C21 9044   6.574   5.917   8.021 -0.3433 -0.4964 -0.3300
   89CHL1  H21A 9045   6.623   5.883   8.115  1.1641  0.6299 -0.6817
   89CHL1  H21B 9046   6.615   5.864   7.933 -0.8903 -0.5614 -0.5472
   89CHL1  H21C 9047   6.467   5.886   8.026 -0.0798 -1.3434  0.3541
   89CHL1   C22 9048   6.534   6.155   8.137  0.3732 -0.7625 -0.0200
   89CHL1  H22A 9049   6.602   6.113   8.214  1.6400  0.1932 -0.5924
   89CHL1  H22B 9050   6.557   6.262   8.123  1.7276 -1.0677 -0.2093
   89CHL1   C23 9051   6.394   6.152   8.193 -0.5915 -0.1518 -0.2396
   89CHL1  H23A 9052   6.328   6.196   8.116 -0.5993  0.4648  0.1129
   89CHL1  H23B 9053   6.367   6.044   8.199  1.2852 -0.9363 -3.3899
   89CHL1   C24 9054   6.371   6.227   8.325  0.5084  0.7257  0.6424
   89CHL1  H24A 9055   6.442   6.202   8.407  0.3529 -1.8345  0.0873
   89CHL1  H24B 9056   6.386   6.335   8.306  1.2826  0.3376 -1.2428
   89CHL1   C25 9057   6.233   6.200   8.383 -0.2367  0.6252 -0.0571
   89CHL1   H25 9058   6.212   6.272   8.465  0.9214 -1.1100  1.8619
   89CHL1   C26 9059   6.122   6.224   8.280 -0.7858 -0.4179  1.3749
   89CHL1  H26A 9060   6.023   6.253   8.321 -0.8709  1.5765 -0.1023
   89CHL1  H26B 9061   6.147   6.310   8.214 -0.6769 -1.1584  0.4394
   89CHL1  H26C 9062   6.120   6.134   8.215  2.2814  0.1871  0.3178
   89CHL1   C27 9063   6.215   6.053   8.433 -0.3753 -0.8508  0.1377
   89CHL1  H27A 9064   6.114   6.062   8.479 -1.0525 -4.5155 -0.2966
   89CHL1  H27B 9065   6.220   5.979   8.350  3.1677 -1.0276  0.3684
   89CHL1  H27C 9066   6.291   6.021   8.508 -0.0723 -0.8489 -0.1668
   90CHL1    C3 9067   6.631   2.669   7.028 -1.0469  0.5592 -1.0406
   90CHL1    H3 9068   6.736   2.696   7.055 -1.6973 -0.1739  2.7522
   90CHL1    O3 9069   6.637   2.620   6.893 -0.3144 -0.4480 -0.4536
   90CHL1   H3' 9070   6.550   2.599   6.858  0.0947 -0.0996 -1.7463
   90CHL1    C4 9071   6.585   2.558   7.125  0.0734  0.0216  0.0403
   90CHL1   H4A 9072   6.509   2.499   7.069  1.5184 -1.6584 -0.2106
   90CHL1   H4B 9073   6.670   2.488   7.119  0.1406  0.1497 -0.5896
   90CHL1    C5 9074   6.561   2.592   7.267 -0.2208 -1.0125  0.3236
   90CHL1    C6 9075   6.614   2.527   7.371  0.3267  0.1803 -0.5084
   90CHL1    H6 9076   6.664   2.429   7.360 -0.3236 -0.0750 -1.2630
   90CHL1    C7 9077   6.610   2.557   7.521  0.0679 -0.4060  0.6390
   90CHL1   H7A 9078   6.585   2.469   7.584  1.0273 -0.1450  1.4088
   90CHL1   H7B 9079   6.711   2.582   7.559 -1.2054  0.5914  3.7386
   90CHL1    C8 9080   6.503   2.667   7.544 -0.0425 -0.4989  0.9072
   90CHL1    H8 9081   6.405   2.615   7.545 -0.7279  0.6965 -0.5347
   90CHL1   C14 9082   6.522   2.730   7.684 -0.0007  0.0680  0.7478
   90CHL1   H14 9083   6.617   2.787   7.680 -0.2887  0.6135 -4.2119
   90CHL1   C15 9084   6.538   2.637   7.799 -0.3643 -1.1079  0.2758
   90CHL1  H15A 9085   6.448   2.572   7.800 -0.1396 -1.5121  3.1623
   90CHL1  H15B 9086   6.634   2.581   7.790  0.8318  0.6540  1.4875
   90CHL1   C16 9087   6.527   2.732   7.921 -0.4067 -0.2832 -0.1564
   90CHL1  H16A 9088   6.470   2.679   8.001  2.8704 -1.6375  1.4782
   90CHL1  H16B 9089   6.626   2.746   7.970 -0.8080  0.5920  0.4193
   90CHL1   C17 9090   6.466   2.865   7.871 -0.3875  1.0806 -0.4234
   90CHL1   H17 9091   6.540   2.946   7.856  0.1727  0.6889  0.1824
   90CHL1   C13 9092   6.422   2.837   7.723 -0.4361  0.4331  0.1267
   90CHL1   C18 9093   6.284   2.773   7.722  0.4592 -0.1293  0.3098
   90CHL1  H18A 9094   6.270   2.738   7.617 -0.5932 -0.2015  0.4567
   90CHL1  H18B 9095   6.285   2.684   7.789 -0.9836 -0.7355 -0.4189
   90CHL1  H18C 9096   6.200   2.838   7.754  1.7196  1.0066  1.4253
   90CHL1   C12 9097   6.438   2.953   7.626  0.1982 -0.0047 -0.2965
   90CHL1  H12A 9098   6.363   3.031   7.652 -0.0474 -0.3075 -0.0901
   90CHL1  H12B 9099   6.542   2.989   7.637 -0.3188  0.7869  3.3461
   90CHL1   C11 9100   6.421   2.911   7.476  0.7080  0.2395 -0.0404
   90CHL1  H11A 9101   6.312   2.892   7.470  0.5586  0.2846  1.9420
   90CHL1  H11B 9102   6.443   2.992   7.404 -0.0310 -1.0640 -1.7937
   90CHL1    C9 9103   6.502   2.777   7.434 -1.0760  0.6201 -0.9140
   90CHL1    H9 9104   6.608   2.807   7.444  0.4949 -3.7434 -2.0566
   90CHL1   C10 9105   6.476   2.729   7.293 -0.8981 -0.2448 -0.4117
   90CHL1   C19 9106   6.324   2.697   7.266 -0.4014  0.2893 -0.0658
   90CHL1  H19A 9107   6.271   2.790   7.295 -1.3380 -0.9946  2.6610
   90CHL1  H19B 9108   6.306   2.682   7.158 -2.4520 -3.2294  0.6183
   90CHL1  H19C 9109   6.286   2.614   7.329  1.8510 -1.0619 -0.3730
   90CHL1    C1 9110   6.528   2.836   7.192 -0.5255 -0.4830 -0.3380
   90CHL1   H1A 9111   6.459   2.922   7.200  1.6913  1.3157  0.6980
   90CHL1   H1B 9112   6.626   2.877   7.225 -0.5063  0.9926 -2.0504
   90CHL1    C2 9113   6.543   2.791   7.042 -0.5203  0.0356  0.4252
   90CHL1   H2A 9114   6.590   2.871   6.980 -0.9769  1.9331  2.3817
   90CHL1   H2B 9115   6.443   2.771   6.998 -0.3647  2.6923 -1.3875
   90CHL1   C20 9116   6.364   2.919   7.966  0.3747 -0.2794 -0.4234
   90CHL1   H20 9117   6.270   2.863   7.948  0.2180  0.3185 -1.5354
   90CHL1   C21 9118   6.339   3.057   7.920 -0.5558  0.0370 -0.0985
   90CHL1  H21A 9119   6.315   3.123   8.006  0.6639 -0.4862  0.6683
   90CHL1  H21B 9120   6.255   3.052   7.848 -0.4707 -1.8955 -0.1238
   90CHL1  H21C 9121   6.423   3.104   7.864  1.3198 -1.6234  1.1933
   90CHL1   C22 9122   6.391   2.921   8.113  0.2792 -0.0835 -0.3614
   90CHL1  H22A 9123   6.454   2.835   8.143 -1.3916 -1.2632 -0.1028
   90CHL1  H22B 9124   6.450   3.008   8.150  0.9789 -0.5515 -0.3665
   90CHL1   C23 9125   6.262   2.889   8.198 -0.0597  0.1170  0.2274
   90CHL1  H23A 9126   6.192   2.969   8.167  0.5196  0.5291 -0.0191
   90CHL1  H23B 9127   6.220   2.792   8.162  1.2891 -0.1119 -0.8246
   90CHL1   C24 9128   6.283   2.896   8.346 -0.4131 -0.1238  0.9204
   90CHL1  H24A 9129   6.366   2.823   8.356 -0.9802 -0.8048  0.6973
   90CHL1  H24B 9130   6.314   3.000   8.370 -1.4086 -0.2905  3.1200
   90CHL1   C25 9131   6.166   2.840   8.429  0.2257 -0.2682  0.2579
   90CHL1   H25 9132   6.161   2.739   8.382 -0.3233 -0.0045 -0.2628
   90CHL1   C26 9133   6.188   2.819   8.577  0.3783 -0.2311  0.1634
   90CHL1  H26A 9134   6.159   2.910   8.635  4.1639  1.9757 -1.0627
   90CHL1  H26B 9135   6.131   2.733   8.618 -0.6310 -0.8029 -2.2246
   90CHL1  H26C 9136   6.298   2.811   8.589  0.6325  0.7830 -1.1676
   90CHL1   C27 9137   6.027   2.916   8.409 -0.7093 -0.3201 -0.1225
   90CHL1  H27A 9138   5.953   2.871   8.479 -0.6232 -2.0314 -1.0750
   90CHL1  H27B 9139   6.055   3.017   8.446  0.9176 -0.1781 -1.6330
   90CHL1  H27C 9140   5.989   2.929   8.305 -0.8799  1.7700  0.1571
   91CHL1    C3 9141   1.243   5.211   7.263 -0.8097  0.0014  0.0297
   91CHL1    H3 9142   1.292   5.115   7.289 -0.0827  0.1869 -0.6201
   91CHL1    O3 9143   1.242   5.231   7.121 -1.2155  0.3208  0.1911
   91CHL1   H3' 9144   1.308   5.299   7.107 -0.5662 -0.0926  1.0775
   91CHL1    C4 9145   1.104   5.210   7.310  0.8974  0.6805  0.0953
   91CHL1   H4A 9146   1.055   5.301   7.270  2.3845  1.0045 -1.0869
   91CHL1   H4B 9147   1.041   5.132   7.261  0.6492  1.3214 -0.6273
   91CHL1    C5 9148   1.089   5.182   7.459  0.4441  0.4545 -0.2458
   91CHL1    C6 9149   1.019   5.072   7.505 -0.1409 -1.0190 -0.2236
   91CHL1    H6 9150   0.968   5.009   7.430 -0.3777  0.9669 -1.8119
   91CHL1    C7 9151   1.014   5.045   7.648  1.2196 -0.3479 -0.6893
   91CHL1   H7A 9152   0.906   5.035   7.670  1.3195  1.1423  0.6555
   91CHL1   H7B 9153   1.069   4.952   7.675 -0.3183 -1.6537 -1.8542
   91CHL1    C8 9154   1.057   5.154   7.742  0.6425 -0.0176 -0.3215
   91CHL1    H8 9155   0.980   5.235   7.740 -0.8182 -1.3381 -2.2850
   91CHL1   C14 9156   1.085   5.108   7.884 -0.2757 -0.2659  0.1866
   91CHL1   H14 9157   1.180   5.049   7.888  1.9882  2.7258 -3.1188
   91CHL1   C15 9158   0.970   5.023   7.940 -0.4450  0.5825  0.5438
   91CHL1  H15A 9159   0.874   5.068   7.907 -0.3479  1.0132  0.8456
   91CHL1  H15B 9160   0.975   4.920   7.900 -1.0920  0.7894 -0.0981
   91CHL1   C16 9161   1.007   5.037   8.089 -0.2284 -0.4139  0.1706
   91CHL1  H16A 9162   0.925   5.077   8.152 -0.3993 -0.8254  0.2107
   91CHL1  H16B 9163   1.032   4.938   8.133 -1.2988 -0.5809  0.4165
   91CHL1   C17 9164   1.125   5.138   8.108  0.5609 -0.3832 -0.5627
   91CHL1   H17 9165   1.216   5.077   8.093 -1.8030 -4.3673 -0.2133
   91CHL1   C13 9166   1.115   5.223   7.984 -0.4847 -0.6283  0.2656
   91CHL1   C18 9167   0.990   5.313   8.001  1.1910 -0.7332 -0.3419
   91CHL1  H18A 9168   1.020   5.386   8.079 -0.9638  1.0694 -1.1002
   91CHL1  H18B 9169   0.976   5.366   7.904 -1.0166  2.7564  1.6852
   91CHL1  H18C 9170   0.895   5.265   8.031 -0.1100  2.2560  0.6711
   91CHL1   C12 9171   1.246   5.302   7.935  0.2539 -0.2763 -0.8675
   91CHL1  H12A 9172   1.270   5.393   7.994  1.0568 -0.9213 -0.1875
   91CHL1  H12B 9173   1.330   5.231   7.948  0.2303 -0.0086  0.9504
   91CHL1   C11 9174   1.225   5.351   7.790  0.2392  0.4303 -0.0671
   91CHL1  H11A 9175   1.154   5.436   7.793  0.0262  0.2480  0.1719
   91CHL1  H11B 9176   1.319   5.387   7.743  0.7662  0.4368  0.9644
   91CHL1    C9 9177   1.178   5.238   7.698  0.1922  0.5389 -0.0246
   91CHL1    H9 9178   1.261   5.165   7.701  0.0176  0.3611  0.5627
   91CHL1   C10 9179   1.171   5.282   7.550  0.2683 -0.2324 -0.3444
   91CHL1   C19 9180   1.104   5.422   7.536  0.0716  0.0048  0.4534
   91CHL1  H19A 9181   1.084   5.450   7.431 -0.8271  0.0889  0.6442
   91CHL1  H19B 9182   1.005   5.429   7.586  0.0748  1.9190  0.2608
   91CHL1  H19C 9183   1.177   5.499   7.570  2.4255 -0.8658 -2.2472
   91CHL1    C1 9184   1.317   5.284   7.495  0.6565 -0.0497  0.0040
   91CHL1   H1A 9185   1.377   5.358   7.552  1.5400 -0.9128  0.2184
   91CHL1   H1B 9186   1.366   5.185   7.508  1.7156  0.3769 -0.6248
   91CHL1    C2 9187   1.330   5.309   7.344 -0.6300 -1.1549 -0.1551
   91CHL1   H2A 9188   1.437   5.307   7.314  0.1060 -2.0305  2.2618
   91CHL1   H2B 9189   1.295   5.410   7.311 -0.2791 -1.7551 -2.5803
   91CHL1   C20 9190   1.123   5.205   8.247 -0.6467  0.5733 -0.4277
   91CHL1   H20 9191   1.027   5.257   8.263 -0.2784  1.6938 -1.6817
   91CHL1   C21 9192   1.251   5.277   8.265 -0.0874 -0.2409 -0.1786
   91CHL1  H21A 9193   1.238   5.376   8.218  0.3670  1.3384  2.7481
   91CHL1  H21B 9194   1.337   5.226   8.217 -0.9661 -2.0642  0.0740
   91CHL1  H21C 9195   1.282   5.308   8.367 -0.6561  2.0093 -0.6430
   91CHL1   C22 9196   1.115   5.096   8.359 -0.2160  0.2683  0.0464
   91CHL1  H22A 9197   1.031   5.023   8.348  1.8721 -2.0126 -2.2701
   91CHL1  H22B 9198   1.202   5.030   8.341 -0.0348  0.1498  1.3130
   91CHL1   C23 9199   1.100   5.139   8.500 -0.1089 -0.0356  0.0387
   91CHL1  H23A 9200   1.122   5.053   8.567 -1.4542 -0.7678 -0.4107
   91CHL1  H23B 9201   1.178   5.216   8.516  0.4461  0.1368 -2.9314
   91CHL1   C24 9202   0.965   5.193   8.553  0.3391 -0.0330 -0.5998
   91CHL1  H24A 9203   0.912   5.243   8.469  0.4774  0.8903 -0.1508
   91CHL1  H24B 9204   0.904   5.102   8.573  3.9906 -2.8976 -1.2085
   91CHL1   C25 9205   0.972   5.286   8.671 -0.1304 -0.0117 -0.2057
   91CHL1   H25 9206   1.036   5.375   8.652 -0.7955  0.4180 -0.4390
   91CHL1   C26 9207   0.826   5.341   8.696 -0.0358 -0.7104  0.4247
   91CHL1  H26A 9208   0.795   5.395   8.604  1.0067  0.8816  0.9592
   91CHL1  H26B 9209   0.752   5.260   8.714  0.3369 -1.1346  0.0574
   91CHL1  H26C 9210   0.817   5.409   8.783  1.2871  0.2984 -0.1855
   91CHL1   C27 9211   1.030   5.227   8.797  0.2534 -0.7866 -0.5111
   91CHL1  H27A 9212   1.136   5.204   8.772  0.3890  0.0591 -0.7318
   91CHL1  H27B 9213   1.021   5.297   8.883 -0.5835 -1.7214  0.2014
   91CHL1  H27C 9214   0.978   5.138   8.839  0.0004 -1.1166 -1.4940
   92CHL1    C3 9215   3.708   5.597   6.676 -0.5055  0.4624 -0.3350
   92CHL1    H3 9216   3.784   5.678   6.674  0.4978 -0.3677  1.4890
   92CHL1    O3 9217   3.701   5.543   6.547  0.4257 -0.0133 -0.1774
   92CHL1   H3' 9218   3.636   5.473   6.553  1.5751 -1.0825  0.2374
   92CHL1    C4 9219   3.773   5.482   6.760  0.1823 -0.5155 -0.4465
   92CHL1   H4A 9220   3.709   5.393   6.745  1.2044 -1.8555  2.4791
   92CHL1   H4B 9221   3.873   5.457   6.718  0.4057 -2.6843  1.2241
   92CHL1    C5 9222   3.773   5.531   6.900  0.0123  0.1588  0.6040
   92CHL1    C6 9223   3.884   5.518   6.975  0.0935  0.0661 -0.6266
   92CHL1    H6 9224   3.975   5.499   6.917  1.1451  0.1499  0.9249
   92CHL1    C7 9225   3.898   5.534   7.127 -0.2142 -0.1894 -0.5656
   92CHL1   H7A 9226   3.937   5.441   7.175 -0.2587 -0.8335 -1.7503
   92CHL1   H7B 9227   3.971   5.613   7.155 -2.1160  1.3333  0.3990
   92CHL1    C8 9228   3.758   5.559   7.191 -0.0768  0.0537  0.3356
   92CHL1    H8 9229   3.709   5.461   7.210 -1.1509  0.6035  0.5043
   92CHL1   C14 9230   3.773   5.632   7.325  0.1636  0.3054  0.1751
   92CHL1   H14 9231   3.809   5.736   7.307 -0.5203  0.6689  0.8520
   92CHL1   C15 9232   3.888   5.581   7.419 -0.3182  0.1231  0.7569
   92CHL1  H15A 9233   3.884   5.471   7.437 -0.7975  0.2336  1.3534
   92CHL1  H15B 9234   3.988   5.614   7.384  0.5852 -1.9400  1.2210
   92CHL1   C16 9235   3.853   5.632   7.556  0.8033  0.1516  0.1175
   92CHL1  H16A 9236   3.868   5.551   7.631 -0.6362  0.3362  0.6337
   92CHL1  H16B 9237   3.926   5.710   7.585  1.2190 -0.0253 -0.4479
   92CHL1   C17 9238   3.707   5.701   7.539 -0.3862 -0.2581  0.0086
   92CHL1   H17 9239   3.727   5.808   7.523 -0.2186 -0.5964 -2.2755
   92CHL1   C13 9240   3.642   5.644   7.407  0.2985  0.2928 -0.8988
   92CHL1   C18 9241   3.581   5.500   7.434  0.2386 -0.4260 -0.1286
   92CHL1  H18A 9242   3.567   5.446   7.338 -0.7600  0.5039 -0.5301
   92CHL1  H18B 9243   3.644   5.434   7.497 -1.0177 -1.0270  0.5258
   92CHL1  H18C 9244   3.477   5.517   7.471  0.0186  0.5220 -1.1147
   92CHL1   C12 9245   3.552   5.735   7.329  0.3361  0.2698  0.5543
   92CHL1  H12A 9246   3.457   5.763   7.381 -0.8350  0.9279 -1.7816
   92CHL1  H12B 9247   3.616   5.819   7.294 -0.4580  1.4079  1.7355
   92CHL1   C11 9248   3.524   5.673   7.184 -0.1147 -0.3999  0.3749
   92CHL1  H11A 9249   3.461   5.583   7.197  0.1694 -0.5189  0.9448
   92CHL1  H11B 9250   3.460   5.741   7.123 -0.2384  1.7119  2.6767
   92CHL1    C9 9251   3.661   5.641   7.104  0.3871  0.4490  0.4171
   92CHL1    H9 9252   3.706   5.742   7.100  1.7285 -0.0830  1.1943
   92CHL1   C10 9253   3.636   5.582   6.959 -0.0458  0.2736  0.1424
   92CHL1   C19 9254   3.536   5.461   6.966  0.2475  0.2601  0.1958
   92CHL1  H19A 9255   3.517   5.412   6.868  1.0779 -0.8683  0.5869
   92CHL1  H19B 9256   3.583   5.381   7.026  1.6700  1.3653  0.5793
   92CHL1  H19C 9257   3.441   5.487   7.018  0.2178  0.6628 -0.0566
   92CHL1    C1 9258   3.569   5.678   6.864  0.6430  0.1448  0.5971
   92CHL1   H1A 9259   3.474   5.718   6.904  0.6045 -1.0020  1.7408
   92CHL1   H1B 9260   3.636   5.766   6.863 -1.2554  1.6339 -0.6997
   92CHL1    C2 9261   3.571   5.631   6.725  0.4837 -0.2828 -0.2056
   92CHL1   H2A 9262   3.531   5.717   6.667  4.0916  1.6785 -0.0623
   92CHL1   H2B 9263   3.501   5.546   6.710 -2.2891  1.9088 -0.5746
   92CHL1   C20 9264   3.631   5.691   7.672 -0.6800  0.4215  1.1456
   92CHL1   H20 9265   3.608   5.584   7.690  0.3339 -0.2644 -1.2511
   92CHL1   C21 9266   3.497   5.763   7.667  0.5344  0.0408  0.1969
   92CHL1  H21A 9267   3.427   5.707   7.601  0.2234 -1.4753  1.7638
   92CHL1  H21B 9268   3.495   5.870   7.637  2.9583  0.6328  1.8562
   92CHL1  H21C 9269   3.441   5.760   7.763 -1.6415 -3.5399 -0.9783
   92CHL1   C22 9270   3.709   5.741   7.793 -0.0004  0.2996 -0.8790
   92CHL1  H22A 9271   3.819   5.723   7.793  0.4485  2.5109  1.2865
   92CHL1  H22B 9272   3.707   5.852   7.793 -1.2334  0.2962  0.1686
   92CHL1   C23 9273   3.653   5.701   7.933 -0.2543 -0.6564  0.4512
   92CHL1  H23A 9274   3.556   5.753   7.946 -0.6139 -0.4568 -2.4502
   92CHL1  H23B 9275   3.642   5.590   7.935  2.0620 -1.0597 -2.3582
   92CHL1   C24 9276   3.740   5.747   8.046  0.6168 -0.2440  0.4506
   92CHL1  H24A 9277   3.832   5.685   8.053  0.6004 -0.5315 -1.4155
   92CHL1  H24B 9278   3.772   5.853   8.036  2.1576 -0.6351  0.9140
   92CHL1   C25 9279   3.679   5.733   8.183 -0.2871  0.3532 -0.2949
   92CHL1   H25 9280   3.600   5.810   8.197 -0.8869 -0.7293  3.2859
   92CHL1   C26 9281   3.617   5.598   8.220  0.2577  0.9199  0.6440
   92CHL1  H26A 9282   3.560   5.597   8.316  1.7276  1.8422  1.5547
   92CHL1  H26B 9283   3.553   5.551   8.141  1.1602 -0.6642  0.8180
   92CHL1  H26C 9284   3.697   5.523   8.239 -0.7359  0.3122  2.7349
   92CHL1   C27 9285   3.789   5.759   8.294  1.0823 -0.1538  0.6394
   92CHL1  H27A 9286   3.832   5.659   8.314 -3.4290 -2.4686 -0.0927
   92CHL1  H27B 9287   3.851   5.844   8.259 -1.8991  2.2691  0.7661
   92CHL1  H27C 9288   3.740   5.795   8.387 -0.9346 -1.6774  0.2383
   93CHL1    C3 9289   3.175   3.875   6.828  0.7417 -0.3455  0.1976
   93CHL1    H3 9290   3.248   3.807   6.877 -1.4932 -0.9246  3.0127
   93CHL1    O3 9291   3.207   3.907   6.693 -0.1384 -0.2127 -0.0897
   93CHL1   H3' 9292   3.174   3.997   6.684 -0.4692 -0.1391  1.6266
   93CHL1    C4 9293   3.035   3.801   6.843 -0.5338  0.1442 -0.1455
   93CHL1   H4A 9294   2.959   3.860   6.786  1.2234  0.4231 -2.3334
   93CHL1   H4B 9295   3.049   3.707   6.786  1.2799 -0.3815  1.1136
   93CHL1    C5 9296   2.982   3.779   6.983 -0.6184 -0.1886 -0.2370
   93CHL1    C6 9297   2.954   3.651   7.017  0.2438 -0.0527 -0.4078
   93CHL1    H6 9298   2.976   3.568   6.949  0.4302  1.6916 -2.5867
   93CHL1    C7 9299   2.908   3.628   7.155  0.4154  0.1226 -1.1236
   93CHL1   H7A 9300   2.833   3.547   7.167  0.7506  0.2375  3.7805
   93CHL1   H7B 9301   2.995   3.596   7.216  0.1892 -2.1517 -1.8944
   93CHL1    C8 9302   2.843   3.757   7.222  0.2063 -0.1148 -0.1257
   93CHL1    H8 9303   2.747   3.778   7.171  0.4052  0.6605 -0.1884
   93CHL1   C14 9304   2.809   3.730   7.366  0.2215 -0.5048  0.3470
   93CHL1   H14 9305   2.911   3.720   7.410  0.0865  1.9881  1.3772
   93CHL1   C15 9306   2.744   3.599   7.408 -0.0594 -0.7730 -0.1931
   93CHL1  H15A 9307   2.660   3.588   7.335 -0.3531  1.7217 -0.3193
   93CHL1  H15B 9308   2.814   3.513   7.398  1.3374  0.2421  0.7269
   93CHL1   C16 9309   2.691   3.628   7.549  0.4195 -0.2502  0.2343
   93CHL1  H16A 9310   2.581   3.615   7.552  0.2866  0.1544 -1.6147
   93CHL1  H16B 9311   2.748   3.565   7.620  0.8047 -2.1370 -1.6501
   93CHL1   C17 9312   2.717   3.781   7.583  0.9436 -0.4598  0.8483
   93CHL1   H17 9313   2.813   3.793   7.638  2.3115  0.6731 -1.6167
   93CHL1   C13 9314   2.738   3.845   7.444 -0.3656  0.2253 -0.3030
   93CHL1   C18 9315   2.602   3.866   7.377 -0.3040 -0.0622  0.8860
   93CHL1  H18A 9316   2.604   3.883   7.267 -1.5645  1.6299  1.0656
   93CHL1  H18B 9317   2.536   3.781   7.402  1.9255 -1.6555  1.6353
   93CHL1  H18C 9318   2.565   3.960   7.423 -0.1822 -0.6937  2.3150
   93CHL1   C12 9319   2.830   3.965   7.441  1.1127  0.4063 -0.1284
   93CHL1  H12A 9320   2.798   4.061   7.488  1.4303  0.7881 -0.6830
   93CHL1  H12B 9321   2.921   3.930   7.494  1.0007  0.2044 -0.0660
   93CHL1   C11 9322   2.860   4.000   7.290  0.4580 -0.0387  0.1748
   93CHL1  H11A 9323   2.762   4.032   7.249 -1.3849 -3.9022  1.1501
   93CHL1  H11B 9324   2.934   4.083   7.295 -0.7657  1.0140  1.5666
   93CHL1    C9 9325   2.928   3.890   7.209 -0.3575 -0.0410  0.1562
   93CHL1    H9 9326   3.020   3.880   7.271 -1.8852  2.9048  3.2371
   93CHL1   C10 9327   2.965   3.912   7.063 -0.4126  0.7146 -0.4421
   93CHL1   C19 9328   2.849   3.995   6.992 -0.0943 -0.1626  0.6419
   93CHL1  H19A 9329   2.892   4.033   6.897 -1.7438 -1.2255 -0.5890
   93CHL1  H19B 9330   2.763   3.934   6.958 -1.0752  2.0776 -1.1620
   93CHL1  H19C 9331   2.809   4.080   7.052  0.5044 -0.9423  2.2232
   93CHL1    C1 9332   3.109   3.973   7.059 -0.0749 -0.2498 -0.4124
   93CHL1   H1A 9333   3.120   4.069   7.114 -0.5593 -1.9038  2.8378
   93CHL1   H1B 9334   3.179   3.898   7.101  0.2823 -1.3912 -2.8608
   93CHL1    C2 9335   3.168   4.000   6.917 -0.6734  0.3750  0.0107
   93CHL1   H2A 9336   3.270   4.041   6.929 -0.6810  0.7788 -1.2241
   93CHL1   H2B 9337   3.094   4.071   6.874  0.2827  1.6926  0.4973
   93CHL1   C20 9338   2.610   3.837   7.681 -0.2022  0.0840 -0.4768
   93CHL1   H20 9339   2.512   3.826   7.629 -0.2046 -1.1078 -0.2538
   93CHL1   C21 9340   2.633   3.986   7.717 -0.0512  0.1079  0.7156
   93CHL1  H21A 9341   2.736   4.006   7.754  0.4055 -1.4735  0.3638
   93CHL1  H21B 9342   2.574   4.023   7.803  1.5869 -0.5460  2.1950
   93CHL1  H21C 9343   2.629   4.040   7.620 -1.0210 -2.8832 -1.0205
   93CHL1   C22 9344   2.614   3.743   7.808  0.6869 -0.9015 -0.8542
   93CHL1  H22A 9345   2.607   3.633   7.794 -1.7357 -0.8122 -0.8161
   93CHL1  H22B 9346   2.711   3.776   7.851 -0.7277  2.1331  0.3697
   93CHL1   C23 9347   2.499   3.769   7.901  0.1517 -0.0262 -0.0133
   93CHL1  H23A 9348   2.486   3.879   7.905  1.5274  0.3592 -2.9145
   93CHL1  H23B 9349   2.405   3.716   7.876 -0.0296 -1.2205  2.8281
   93CHL1   C24 9350   2.536   3.722   8.043  0.2939 -0.0304 -0.4965
   93CHL1  H24A 9351   2.572   3.617   8.043 -0.3917 -0.3023  1.7676
   93CHL1  H24B 9352   2.619   3.793   8.065  1.0451 -1.4029  1.3414
   93CHL1   C25 9353   2.412   3.725   8.141 -0.2893 -0.2048 -0.4715
   93CHL1   H25 9354   2.342   3.657   8.089  0.7456  0.1920 -2.4758
   93CHL1   C26 9355   2.437   3.669   8.281  0.0954 -0.6363  0.6904
   93CHL1  H26A 9356   2.512   3.732   8.334  0.3630 -0.8135  0.5256
   93CHL1  H26B 9357   2.338   3.668   8.331 -0.4699 -0.2841 -0.3803
   93CHL1  H26C 9358   2.479   3.566   8.274 -0.3269 -0.8045  0.6162
   93CHL1   C27 9359   2.343   3.855   8.155  0.0998 -0.2284  0.0166
   93CHL1  H27A 9360   2.260   3.855   8.228 -0.2451  3.1247 -0.2250
   93CHL1  H27B 9361   2.400   3.937   8.203 -0.9006 -0.7298  2.1733
   93CHL1  H27C 9362   2.292   3.892   8.064 -1.8601 -0.8635  0.8010
   94CHL1    C3 9363   4.553   1.162   6.662 -0.4072  0.0616 -0.0791
   94CHL1    H3 9364   4.659   1.151   6.694 -0.6383  1.3485  1.2642
   94CHL1    O3 9365   4.534   1.181   6.522  0.0420 -0.0915 -0.6962
   94CHL1   H3' 9366   4.440   1.198   6.513 -0.1456  0.5247  1.8395
   94CHL1    C4 9367   4.454   1.052   6.705  0.3989  0.3425  0.8376
   94CHL1   H4A 9368   4.353   1.063   6.659  0.0658 -0.0515  1.4482
   94CHL1   H4B 9369   4.482   0.963   6.646 -1.2102  0.2919  0.0930
   94CHL1    C5 9370   4.430   1.038   6.849 -0.1940 -0.1587  0.1304
   94CHL1    C6 9371   4.462   0.922   6.909  0.0661  0.0517 -0.1719
   94CHL1    H6 9372   4.481   0.840   6.838  0.4908 -0.1083  0.1255
   94CHL1    C7 9373   4.438   0.894   7.061  0.1423  0.1758 -0.2292
   94CHL1   H7A 9374   4.392   0.795   7.077  1.0144 -0.0520  1.0161
   94CHL1   H7B 9375   4.538   0.894   7.109 -0.2218  0.4406  0.5463
   94CHL1    C8 9376   4.358   1.009   7.134 -0.4364  0.9034 -0.7514
   94CHL1    H8 9377   4.251   0.995   7.109 -0.0828 -2.8501 -0.8246
   94CHL1   C14 9378   4.374   0.994   7.284 -0.6134 -0.1712 -0.1653
   94CHL1   H14 9379   4.481   1.020   7.299 -1.0741  1.5569  0.2794
   94CHL1   C15 9380   4.357   0.855   7.346  0.3844  0.8061 -0.1976
   94CHL1  H15A 9381   4.264   0.805   7.311 -1.3161  2.7134  1.3977
   94CHL1  H15B 9382   4.448   0.791   7.336 -0.6336 -0.8038  0.4837
   94CHL1   C16 9383   4.325   0.880   7.493 -0.1376 -1.0914 -0.1348
   94CHL1  H16A 9384   4.236   0.827   7.532 -0.9182  0.6921  0.5834
   94CHL1  H16B 9385   4.413   0.856   7.557 -1.4662 -0.5098  2.0104
   94CHL1   C17 9386   4.312   1.036   7.510 -0.3565  0.1291  0.0560
   94CHL1   H17 9387   4.411   1.074   7.543 -0.9733 -0.0493  2.2492
   94CHL1   C13 9388   4.295   1.087   7.367  0.3029  0.0788  0.5461
   94CHL1   C18 9389   4.145   1.084   7.333 -0.0068  0.2589 -0.6272
   94CHL1  H18A 9390   4.091   1.158   7.395  0.2239  1.8522 -2.2412
   94CHL1  H18B 9391   4.116   1.098   7.226 -0.7407  1.6156 -0.2649
   94CHL1  H18C 9392   4.101   0.983   7.352  1.1152 -0.0204  0.6242
   94CHL1   C12 9393   4.343   1.233   7.329  0.5000 -0.3771  0.8734
   94CHL1  H12A 9394   4.287   1.316   7.378  0.2084  0.3400 -0.6228
   94CHL1  H12B 9395   4.449   1.243   7.363  0.8350 -0.4319 -0.1219
   94CHL1   C11 9396   4.333   1.253   7.175 -0.0125 -0.3529 -0.1958
   94CHL1  H11A 9397   4.225   1.253   7.151 -0.1318  2.0311  0.0759
   94CHL1  H11B 9398   4.358   1.356   7.140 -0.8329  0.0666  0.4274
   94CHL1    C9 9399   4.402   1.150   7.086  0.2831 -0.3439 -0.7206
   94CHL1    H9 9400   4.511   1.152   7.107  0.1739  0.8213 -0.1617
   94CHL1   C10 9401   4.388   1.165   6.926  0.7222  1.1087 -0.7765
   94CHL1   C19 9402   4.244   1.184   6.892  0.3790 -0.2507 -0.6501
   94CHL1  H19A 9403   4.231   1.212   6.785  1.1241  0.5927 -0.5297
   94CHL1  H19B 9404   4.182   1.093   6.913  2.2363 -1.1851  1.0871
   94CHL1  H19C 9405   4.201   1.272   6.944  1.4605 -0.8212  1.2983
   94CHL1    C1 9406   4.478   1.284   6.880 -0.0806  0.5760  0.2787
   94CHL1   H1A 9407   4.434   1.383   6.906  1.1320  1.6009 -1.3314
   94CHL1   H1B 9408   4.566   1.272   6.946 -1.0145  0.8850  1.6118
   94CHL1    C2 9409   4.506   1.297   6.726 -0.8781  0.3986  0.0985
   94CHL1   H2A 9410   4.590   1.368   6.714  0.7125 -1.2112  1.0492
   94CHL1   H2B 9411   4.414   1.338   6.679 -0.6755 -0.2257 -0.8769
   94CHL1   C20 9412   4.217   1.076   7.620 -0.1098 -0.0023 -0.3387
   94CHL1   H20 9413   4.112   1.042   7.605 -0.5592  1.0422  0.2496
   94CHL1   C21 9414   4.216   1.227   7.636  0.8599  0.4436  0.8811
   94CHL1  H21A 9415   4.317   1.273   7.624  0.4187  0.9064 -1.5216
   94CHL1  H21B 9416   4.177   1.264   7.733 -0.5359  0.6265  0.2665
   94CHL1  H21C 9417   4.148   1.277   7.564 -0.0218  2.8274  3.2123
   94CHL1   C22 9418   4.260   1.025   7.757  0.8812 -1.0887 -0.5821
   94CHL1  H22A 9419   4.191   1.058   7.837  0.8677 -0.9534 -0.6498
   94CHL1  H22B 9420   4.260   0.914   7.764 -0.4295 -1.0477  0.4444
   94CHL1   C23 9421   4.406   1.069   7.790  0.6584 -0.3380  0.8144
   94CHL1  H23A 9422   4.474   1.020   7.717  0.5935  3.3196 -1.9734
   94CHL1  H23B 9423   4.421   1.179   7.786 -0.1799 -0.1627  1.9872
   94CHL1   C24 9424   4.431   1.043   7.940 -0.2354  0.0591  0.3334
   94CHL1  H24A 9425   4.357   1.098   8.003  0.2035 -0.5095  1.3744
   94CHL1  H24B 9426   4.407   0.936   7.960 -0.5263 -0.0725 -0.6549
   94CHL1   C25 9427   4.575   1.075   7.989 -0.2080 -0.0885  0.0272
   94CHL1   H25 9428   4.581   1.039   8.094 -1.6162 -0.7836 -0.1029
   94CHL1   C26 9429   4.678   1.004   7.899  0.2638  0.2590 -0.4840
   94CHL1  H26A 9430   4.658   0.894   7.899 -2.0219  0.5938  0.8990
   94CHL1  H26B 9431   4.666   1.033   7.793 -0.2734 -0.1469 -0.5382
   94CHL1  H26C 9432   4.776   1.030   7.943 -0.6346  2.3343  0.3989
   94CHL1   C27 9433   4.605   1.220   7.979  0.0505 -0.2122 -0.7184
   94CHL1  H27A 9434   4.590   1.248   7.872  2.3963  3.1714 -0.3152
   94CHL1  H27B 9435   4.533   1.274   8.044  0.3353 -0.7877  0.0980
   94CHL1  H27C 9436   4.703   1.249   8.023 -1.2164  1.0765  1.4576
   95CHL1    C3 9437   5.823   6.291   6.803  0.2771  0.4991  0.4154
   95CHL1    H3 9438   5.866   6.393   6.796 -0.3537  0.7979  0.7930
   95CHL1    O3 9439   5.794   6.251   6.669  0.3976  0.1960  0.0622
   95CHL1   H3' 9440   5.742   6.171   6.676  1.6766 -0.5763  1.3264
   95CHL1    C4 9441   5.906   6.173   6.858 -0.1753  0.3825  0.1463
   95CHL1   H4A 9442   5.864   6.071   6.849  0.7287  0.1778 -2.2026
   95CHL1   H4B 9443   5.999   6.181   6.798 -1.2671 -1.0054 -1.8361
   95CHL1    C5 9444   5.938   6.191   7.005 -0.2826 -0.8419 -0.8028
   95CHL1    C6 9445   6.063   6.183   7.056 -0.6939 -0.8865 -0.7459
   95CHL1    H6 9446   6.151   6.175   6.991  1.1871  1.2536  1.3405
   95CHL1    C7 9447   6.094   6.177   7.204 -0.1489 -0.1957  0.3580
   95CHL1   H7A 9448   6.153   6.083   7.215 -0.0163 -0.3269 -1.1486
   95CHL1   H7B 9449   6.162   6.260   7.230 -0.1184  0.5012 -1.7324
   95CHL1    C8 9450   5.969   6.163   7.294  0.1802 -0.6508 -0.3726
   95CHL1    H8 9451   5.941   6.056   7.307  1.1848 -1.1994 -2.3439
   95CHL1   C14 9452   5.999   6.213   7.433  0.0187 -0.1831  0.2875
   95CHL1   H14 9453   6.043   6.314   7.419 -0.4950  0.0161  0.0805
   95CHL1   C15 9454   6.107   6.136   7.508  0.2164  0.3053 -0.2940
   95CHL1  H15A 9455   6.110   6.026   7.492  0.8558 -0.0138  1.7500
   95CHL1  H15B 9456   6.204   6.179   7.474 -0.1078  2.4269  1.2558
   95CHL1   C16 9457   6.092   6.183   7.659  0.6682  0.0673  0.0845
   95CHL1  H16A 9458   6.077   6.093   7.722  2.0326 -0.3220 -0.1314
   95CHL1  H16B 9459   6.177   6.246   7.691  2.5022 -3.1512  2.0404
   95CHL1   C17 9460   5.963   6.275   7.651 -0.5843  0.0996 -0.0909
   95CHL1   H17 9461   6.002   6.374   7.620 -2.7994  1.0557  0.0488
   95CHL1   C13 9462   5.887   6.229   7.526 -0.3574  0.3584 -0.2996
   95CHL1   C18 9463   5.812   6.096   7.553  0.2497 -0.0918 -0.1791
   95CHL1  H18A 9464   5.710   6.116   7.594 -0.6674 -2.9716 -0.8200
   95CHL1  H18B 9465   5.802   6.033   7.462 -1.0293  0.4341 -0.4371
   95CHL1  H18C 9466   5.879   6.042   7.623 -0.2496 -0.9897 -0.3812
   95CHL1   C12 9467   5.797   6.336   7.476  0.7553 -0.2720  0.3029
   95CHL1  H12A 9468   5.708   6.353   7.540  0.6354  1.5728 -0.3142
   95CHL1  H12B 9469   5.845   6.434   7.457 -1.1048  0.4059 -1.2430
   95CHL1   C11 9470   5.739   6.290   7.334 -0.1580  0.2309 -0.9158
   95CHL1  H11A 9471   5.681   6.195   7.336 -0.2994  0.3219  1.3120
   95CHL1  H11B 9472   5.678   6.379   7.307  0.6404  1.2134  0.4017
   95CHL1    C9 9473   5.858   6.252   7.237  0.6342  0.3376  0.0649
   95CHL1    H9 9474   5.905   6.353   7.236 -0.6924  0.9655 -0.2456
   95CHL1   C10 9475   5.813   6.221   7.097 -0.2326  0.2950 -1.0112
   95CHL1   C19 9476   5.713   6.105   7.095 -0.5563  0.6294  0.0149
   95CHL1  H19A 9477   5.612   6.118   7.139 -1.3496 -2.0670 -0.7998
   95CHL1  H19B 9478   5.687   6.079   6.991  0.8426  1.0413 -0.4565
   95CHL1  H19C 9479   5.758   6.008   7.128 -1.5145  1.3016  3.7521
   95CHL1    C1 9480   5.735   6.343   7.032  0.3497  0.1894  0.0365
   95CHL1   H1A 9481   5.646   6.365   7.095 -1.5017  2.2435 -3.0040
   95CHL1   H1B 9482   5.803   6.432   7.035 -0.4887  1.0541 -2.9267
   95CHL1    C2 9483   5.696   6.317   6.887  0.2658  0.3665 -0.1536
   95CHL1   H2A 9484   5.649   6.412   6.853  1.7748  1.3411  0.3714
   95CHL1   H2B 9485   5.621   6.236   6.877  0.3513  0.0545  1.5399
   95CHL1   C20 9486   5.866   6.281   7.774 -0.0361 -0.0200  0.2309
   95CHL1   H20 9487   5.761   6.279   7.738 -0.1177  0.9655  0.3635
   95CHL1   C21 9488   5.889   6.415   7.846 -0.1466 -0.3179  0.7534
   95CHL1  H21A 9489   5.800   6.448   7.905 -0.1186 -0.1645  0.7113
   95CHL1  H21B 9490   5.914   6.498   7.777  1.0322 -1.1135  0.1953
   95CHL1  H21C 9491   5.972   6.407   7.920 -1.8735  0.9326  2.9632
   95CHL1   C22 9492   5.874   6.165   7.874  0.5703  1.0106 -0.2052
   95CHL1  H22A 9493   5.850   6.065   7.830  1.0044  0.7823  0.0817
   95CHL1  H22B 9494   5.980   6.154   7.903  0.1953 -0.3383  0.7419
   95CHL1   C23 9495   5.794   6.182   8.002 -0.2618  0.0256 -0.2824
   95CHL1  H23A 9496   5.834   6.278   8.042 -2.1723  1.4570 -1.6229
   95CHL1  H23B 9497   5.688   6.206   7.980 -0.6754  1.8279  3.0509
   95CHL1   C24 9498   5.822   6.059   8.095 -0.3135  1.4014  0.4154
   95CHL1  H24A 9499   5.781   5.970   8.043  2.1930 -0.0883  0.8226
   95CHL1  H24B 9500   5.933   6.050   8.102 -0.2531  1.7559 -0.0345
   95CHL1   C25 9501   5.766   6.071   8.234 -0.7056 -0.2815  0.3591
   95CHL1   H25 9502   5.792   6.174   8.266 -0.7763  0.7125 -2.4828
   95CHL1   C26 9503   5.615   6.064   8.237 -0.5840 -0.3169 -0.1965
   95CHL1  H26A 9504   5.575   6.139   8.165  3.1295  2.1427  0.0361
   95CHL1  H26B 9505   5.578   5.964   8.204  0.5892 -1.1622  0.9419
   95CHL1  H26C 9506   5.574   6.081   8.339 -2.8826 -1.5347 -0.8438
   95CHL1   C27 9507   5.823   5.976   8.334 -0.3811  0.2953 -0.6707
   95CHL1  H27A 9508   5.810   6.015   8.437 -1.3198  0.6415 -0.9093
   95CHL1  H27B 9509   5.777   5.875   8.326 -3.0064  1.3878 -0.4716
   95CHL1  H27C 9510   5.932   5.955   8.325 -0.5395 -0.3591 -1.1967
   96CHL1    C3 9511   1.939   4.446   6.959 -0.2221 -0.6501  0.1333
   96CHL1    H3 9512   1.852   4.379   6.970 -0.8649  0.5051  2.9759
   96CHL1    O3 9513   1.973   4.452   6.822 -0.3961  0.2505  0.0517
   96CHL1   H3' 9514   2.057   4.410   6.802  0.8102  1.8084  1.5448
   96CHL1    C4 9515   1.911   4.584   7.016 -0.3576 -0.5820 -0.1295
   96CHL1   H4A 9516   2.008   4.636   7.003  0.3907 -1.8688  0.1477
   96CHL1   H4B 9517   1.833   4.641   6.961 -0.3898 -0.3534  0.1549
   96CHL1    C5 9518   1.885   4.578   7.167 -0.2937 -0.3564 -0.8191
   96CHL1    C6 9519   1.778   4.643   7.223  0.0457 -0.4592 -0.5095
   96CHL1    H6 9520   1.701   4.691   7.161 -2.0763 -3.5436 -0.4536
   96CHL1    C7 9521   1.749   4.645   7.368  0.4673  0.2881 -0.1832
   96CHL1   H7A 9522   1.729   4.749   7.404 -1.7929  0.0451 -0.5952
   96CHL1   H7B 9523   1.652   4.597   7.390  0.4447 -0.0452 -0.9927
   96CHL1    C8 9524   1.862   4.583   7.448 -0.5642  1.0483 -0.4642
   96CHL1    H8 9525   1.947   4.655   7.456 -0.2793  0.6186  0.4092
   96CHL1   C14 9526   1.799   4.551   7.579  0.0399  0.1212 -0.7544
   96CHL1   H14 9527   1.717   4.478   7.562 -0.5363  0.9466 -1.5761
   96CHL1   C15 9528   1.734   4.664   7.650 -1.0318  0.2205  0.0999
   96CHL1  H15A 9529   1.798   4.755   7.643  0.7166 -1.0045 -0.6317
   96CHL1  H15B 9530   1.630   4.685   7.619 -1.9227 -0.2779  2.5182
   96CHL1   C16 9531   1.721   4.614   7.791  0.1963  0.8418 -0.0104
   96CHL1  H16A 9532   1.754   4.694   7.861  1.2993  0.8508 -0.5222
   96CHL1  H16B 9533   1.612   4.590   7.801  0.3273  0.2354 -0.0021
   96CHL1   C17 9534   1.798   4.477   7.802  0.0515  0.0550  0.6504
   96CHL1   H17 9535   1.724   4.398   7.779  0.3591  0.2581 -1.1369
   96CHL1   C13 9536   1.891   4.482   7.684 -0.3479  0.3333  0.0278
   96CHL1   C18 9537   2.023   4.564   7.714  0.0062 -0.7706  0.3506
   96CHL1  H18A 9538   1.990   4.656   7.768 -1.6585 -0.5996 -0.8966
   96CHL1  H18B 9539   2.086   4.514   7.791 -0.5927 -2.7949 -0.4134
   96CHL1  H18C 9540   2.084   4.595   7.626  0.7626  1.0426  1.4364
   96CHL1   C12 9541   1.933   4.349   7.622 -0.5826 -0.4186  0.6101
   96CHL1  H12A 9542   2.012   4.301   7.682 -1.7547 -1.7592  1.1466
   96CHL1  H12B 9543   1.846   4.280   7.615  0.6015 -1.8582 -0.4581
   96CHL1   C11 9544   2.006   4.378   7.480 -0.9424  0.5100 -0.1857
   96CHL1  H11A 9545   2.102   4.429   7.505 -0.3414 -0.9538  0.5701
   96CHL1  H11B 9546   2.029   4.280   7.434  2.4234  1.3317 -0.4962
   96CHL1    C9 9547   1.918   4.451   7.382  0.4686  0.3784 -0.1151
   96CHL1    H9 9548   1.831   4.384   7.363  0.1898  0.3254  1.2592
   96CHL1   C10 9549   1.984   4.488   7.244  0.0311 -0.2645 -0.6912
   96CHL1   C19 9550   2.114   4.565   7.268  0.2249 -0.3696  0.8292
   96CHL1  H19A 9551   2.102   4.651   7.338  0.0829  1.0993 -0.9365
   96CHL1  H19B 9552   2.193   4.495   7.303  0.5696 -1.6552 -2.2373
   96CHL1  H19C 9553   2.160   4.601   7.173 -0.6542 -2.4699 -0.4565
   96CHL1    C1 9554   2.016   4.354   7.174  0.6903 -0.5535 -0.6595
   96CHL1   H1A 9555   2.097   4.305   7.232  1.4008 -0.2009 -1.3318
   96CHL1   H1B 9556   1.920   4.297   7.171  0.2680  0.1137 -0.2298
   96CHL1    C2 9557   2.061   4.379   7.031  0.5031 -0.3840  1.1652
   96CHL1   H2A 9558   2.079   4.279   6.986  1.1537  0.1643  0.1805
   96CHL1   H2B 9559   2.151   4.445   7.024  0.6676 -0.5968  1.2581
   96CHL1   C20 9560   1.857   4.457   7.945  0.1366 -0.3027 -0.5648
   96CHL1   H20 9561   1.928   4.540   7.962  1.6372 -1.9425  1.8810
   96CHL1   C21 9562   1.922   4.319   7.963 -0.0223  0.6492  0.0129
   96CHL1  H21A 9563   2.011   4.297   7.900 -1.1583 -1.2849 -1.0196
   96CHL1  H21B 9564   1.847   4.240   7.941  0.9524 -0.1578 -0.5402
   96CHL1  H21C 9565   1.949   4.313   8.071 -2.1755 -0.7481  0.5394
   96CHL1   C22 9566   1.746   4.490   8.056 -0.3641  0.5996 -0.1404
   96CHL1  H22A 9567   1.693   4.586   8.038 -0.5811  0.0290 -3.0947
   96CHL1  H22B 9568   1.669   4.411   8.069 -0.8914  1.0890 -0.2453
   96CHL1   C23 9569   1.803   4.505   8.199 -0.3460  0.4013  0.3909
   96CHL1  H23A 9570   1.818   4.400   8.232 -0.1973  0.0218 -0.8478
   96CHL1  H23B 9571   1.896   4.566   8.194  0.8868 -1.3046  1.5248
   96CHL1   C24 9572   1.706   4.562   8.300 -0.1749  0.0734 -0.3170
   96CHL1  H24A 9573   1.699   4.672   8.314  2.0137  0.0240  1.6525
   96CHL1  H24B 9574   1.607   4.522   8.270  0.1334 -0.9410 -0.0011
   96CHL1   C25 9575   1.718   4.515   8.441  0.5934  0.1037  0.3466
   96CHL1   H25 9576   1.742   4.407   8.439 -0.0835 -0.0866  1.7503
   96CHL1   C26 9577   1.817   4.586   8.522 -0.4028 -0.3651 -0.2345
   96CHL1  H26A 9578   1.838   4.548   8.624 -2.9600  1.2872  1.0052
   96CHL1  H26B 9579   1.911   4.582   8.463 -0.1852 -0.3015  0.1035
   96CHL1  H26C 9580   1.784   4.690   8.537  1.2672  0.1035  0.4585
   96CHL1   C27 9581   1.572   4.510   8.509 -0.9890  0.0962 -0.3286
   96CHL1  H27A 9582   1.504   4.437   8.461 -1.0054 -0.6166  0.7392
   96CHL1  H27B 9583   1.576   4.488   8.618 -2.8660  0.4032 -0.1706
   96CHL1  H27C 9584   1.530   4.612   8.492  0.3598  0.7090 -0.1512
   97OSM      N 9585   4.177   4.806  11.371  0.6497  0.5233  0.5146
   97OSM    C15 9586   4.030   4.779  11.395 -0.4713 -0.4310  0.3671
   97OSM   H15A 9587   3.975   4.810  11.307  0.6703  1.0644  0.1527
   97OSM   H15B 9588   3.981   4.825  11.479  0.3171  0.4140  0.3735
   97OSM   H15C 9589   4.017   4.672  11.400 -0.1824 -0.4958 -0.1799
   97OSM    C14 9590   4.193   4.960  11.381 -0.8157  0.3262  0.1544
   97OSM   H14A 9591   4.135   5.004  11.460 -1.7275 -1.3253  0.4545
   97OSM   H14B 9592   4.169   5.009  11.288  4.2001 -1.9914 -2.7732
   97OSM   H14C 9593   4.297   4.983  11.390 -0.6454 -0.7902  1.4736
   97OSM    C13 9594   4.251   4.740  11.478 -0.6083  0.3303 -0.3041
   97OSM   H13A 9595   4.254   4.633  11.468  0.4023  0.2787  0.3857
   97OSM   H13B 9596   4.205   4.761  11.574 -0.2966  0.1738 -0.1180
   97OSM   H13C 9597   4.354   4.772  11.471  0.2340 -1.8014  1.4067
   97OSM    C12 9598   4.210   4.756  11.231 -0.2380  0.1050 -0.5859
   97OSM   H12A 9599   4.308   4.789  11.198 -0.4658  2.8416  1.1462
   97OSM   H12B 9600   4.153   4.799  11.149  2.1852  2.9085 -1.0048
   97OSM    C11 9601   4.212   4.601  11.225  0.0781 -0.3264 -0.0937
   97OSM   H11A 9602   4.205   4.579  11.116 -0.6596  0.8203 -0.2977
   97OSM   H11B 9603   4.121   4.562  11.276  0.5409  0.2625  1.2318
   97OSM      P 9604   4.469   4.551  11.217  0.5079  0.4674  0.6385
   97OSM    O13 9605   4.520   4.686  11.190 -0.0163  0.0469 -0.4650
   97OSM    O14 9606   4.558   4.453  11.279 -0.1841  0.3681  0.4846
   97OSM    O11 9607   4.427   4.503  11.073 -0.2646  0.2192 -0.2660
   97OSM    O12 9608   4.331   4.553  11.296  0.8352  0.5903 -0.6282
   97OSM    C1S 9609   4.492   4.386  11.023 -0.5797 -0.1235 -0.2380
   97OSM    H1S 9610   4.457   4.292  11.072 -1.6218  0.8748  0.9840
   97OSM    H1T 9611   4.602   4.384  11.040 -0.6828 -1.7074  0.4130
   97OSM     NF 9612   4.507   4.261  10.815 -0.1560  1.1084  0.0182
   97OSM    HNF 9613   4.602   4.262  10.784 -0.2940  3.4042 -0.4934
   97OSM    C2S 9614   4.458   4.380  10.871  0.3490 -0.0446 -0.0251
   97OSM    H2S 9615   4.347   4.386  10.863  0.2255 -1.4474  0.3413
   97OSM    C3S 9616   4.519   4.506  10.791  0.1699 -0.3071  0.6165
   97OSM    H3S 9617   4.630   4.510  10.792  0.1636  1.7439 -1.0476
   97OSM     O3 9618   4.487   4.630  10.851 -0.6059  0.0981 -0.2669
   97OSM    HO3 9619   4.490   4.595  10.941  1.2316  0.4160 -0.1697
   97OSM    C4S 9620   4.473   4.514  10.645  0.7398 -0.2636  0.1008
   97OSM    H4S 9621   4.538   4.457  10.576 -0.6652 -0.4274 -1.1260
   97OSM    C5S 9622   4.352   4.560  10.600  0.1999  0.5150 -0.0116
   97OSM    H5S 9623   4.283   4.591  10.679  1.5514  0.5426  1.1936
   97OSM    C6S 9624   4.303   4.552  10.462  0.6198 -1.0399 -0.1861
   97OSM    H6S 9625   4.207   4.606  10.453  0.6506 -1.2693 -2.4308
   97OSM    H6T 9626   4.272   4.449  10.434 -1.3629 -0.4453 -0.2905
   97OSM    C7S 9627   4.400   4.609  10.352  0.6807  0.0108 -0.1292
   97OSM    H7S 9628   4.500   4.562  10.358  0.4274 -0.4214  0.8451
   97OSM    H7T 9629   4.409   4.719  10.359 -0.6064  0.0939  0.4716
   97OSM    C8S 9630   4.341   4.581  10.214 -0.2401  0.2367 -0.3337
   97OSM    H8S 9631   4.270   4.660  10.179 -1.8283 -1.2115 -0.5234
   97OSM    H8T 9632   4.275   4.491  10.220  0.8896 -0.5593  0.4572
   97OSM    C9S 9633   4.442   4.551  10.100 -1.0322 -0.2322  0.1331
   97OSM    H9S 9634   4.505   4.461  10.121 -1.6224 -1.2036 -1.9691
   97OSM    H9T 9635   4.506   4.642  10.094 -1.1229 -0.2263 -0.9258
   97OSM   C10S 9636   4.380   4.533   9.958  0.2444  0.3408 -0.5185
   97OSM   H10S 9637   4.306   4.615   9.950 -0.4637  0.2154  3.2148
   97OSM   H10T 9638   4.332   4.433   9.948  1.5923 -0.5001  1.0630
   97OSM   C11S 9639   4.472   4.549   9.840  0.2277  0.1159  0.0196
   97OSM   H11S 9640   4.561   4.492   9.873 -0.2691 -0.1365  0.9743
   97OSM   H11T 9641   4.482   4.657   9.817  0.6717 -0.0655 -0.6602
   97OSM   C12S 9642   4.420   4.481   9.713 -0.2551  0.2773 -0.1218
   97OSM   H12S 9643   4.343   4.547   9.668 -0.1759  0.2950 -0.2345
   97OSM   H12T 9644   4.369   4.387   9.742  0.6893 -0.0842  0.4275
   97OSM   C13S 9645   4.539   4.465   9.612  0.4502 -0.0627  0.2917
   97OSM   H13S 9646   4.605   4.379   9.637  2.3750  1.0318 -0.8286
   97OSM   H13T 9647   4.597   4.558   9.626 -1.8295  1.4942 -0.0668
   97OSM   C14S 9648   4.501   4.430   9.465 -0.7100 -0.0869 -0.2928
   97OSM   H14S 9649   4.438   4.339   9.467  0.0332 -0.6100 -0.4143
   97OSM   H14T 9650   4.592   4.418   9.403 -1.8320  0.8976 -2.2370
   97OSM   C15S 9651   4.425   4.545   9.402  0.5850 -0.0508  0.6543
   97OSM   H15S 9652   4.505   4.622   9.393 -0.4126  0.7473 -3.3171
   97OSM   H15T 9653   4.341   4.580   9.465 -0.1805  0.0648 -0.4077
   97OSM   C16S 9654   4.364   4.505   9.267 -0.2664  0.4770 -0.4234
   97OSM   H16S 9655   4.273   4.450   9.299  0.5635 -1.0316 -0.5939
   97OSM   H16T 9656   4.430   4.430   9.219  0.2618 -1.0611  2.4904
   97OSM   C17S 9657   4.326   4.606   9.163  0.9280 -0.1342  0.1242
   97OSM   H17S 9658   4.282   4.552   9.076 -1.3020  0.9902  0.4932
   97OSM   H17T 9659   4.420   4.652   9.125  1.7966 -3.5571 -2.4129
   97OSM   C18S 9660   4.229   4.718   9.217 -0.2150  0.8279 -0.3169
   97OSM   H18S 9661   4.268   4.761   9.312 -1.5644  2.5330 -0.4925
   97OSM   H18T 9662   4.128   4.672   9.232  0.2589 -0.0426  0.3280
   97OSM   H18U 9663   4.223   4.799   9.142  1.0795 -0.3904 -1.8179
   97OSM    C1F 9664   4.446   4.139  10.840  0.5239  0.8108  0.7635
   97OSM     OF 9665   4.348   4.125  10.912 -0.2806  1.2521  0.7922
   97OSM    C2F 9666   4.516   4.019  10.762  0.5243 -0.4443 -0.6233
   97OSM    H2F 9667   4.582   3.956  10.825  0.5941  0.1564 -0.0915
   97OSM    H2G 9668   4.571   4.075  10.683 -2.3250  2.6315 -0.6594
   97OSM    C3F 9669   4.408   3.921  10.709  0.0752 -0.6746  0.5037
   97OSM    H3F 9670   4.332   3.906  10.789 -2.2900  1.9657 -1.0853
   97OSM    H3G 9671   4.456   3.826  10.676  0.3824  0.2620 -1.9643
   97OSM    C4F 9672   4.322   3.970  10.588 -0.3849 -0.1354 -0.9009
   97OSM    H4F 9673   4.289   4.075  10.600  0.0814  0.0686 -1.3869
   97OSM    H4G 9674   4.239   3.895  10.590 -0.1483 -0.4054  1.1372
   97OSM    C5F 9675   4.407   3.959  10.463  0.4679  0.9110  0.1126
   97OSM    H5F 9676   4.463   3.863  10.459 -2.1297 -0.7688  0.9220
   97OSM    H5G 9677   4.476   4.044  10.480 -0.4385  1.5777  0.5286
   97OSM    C6F 9678   4.319   3.992  10.344  0.3521  0.0688 -0.6040
   97OSM    H6F 9679   4.248   4.067  10.386 -1.7841 -2.0034 -0.2618
   97OSM    H6G 9680   4.263   3.900  10.316 -0.5293  1.1923 -2.7114
   97OSM    C7F 9681   4.401   4.030  10.217  0.6943 -0.1087 -0.9234
   97OSM    H7F 9682   4.475   3.951  10.193  0.1311 -0.6397 -0.9483
   97OSM    H7G 9683   4.452   4.120  10.256 -1.6345  0.7207  0.3781
   97OSM    C8F 9684   4.319   4.075  10.100 -0.2660 -0.0068  0.7945
   97OSM    H8F 9685   4.382   4.136  10.032  0.1943 -1.6884 -0.3629
   97OSM    H8G 9686   4.237   4.143  10.132 -0.1600 -0.7084  2.6707
   97OSM    C9F 9687   4.260   3.952  10.041 -0.5100 -0.0902 -0.0635
   97OSM    H9F 9688   4.204   3.886  10.110  0.7114 -0.0169  1.0406
   97OSM   C10F 9689   4.269   3.913   9.917  0.5539 -0.5557 -0.3526
   97OSM   H10F 9690   4.239   3.810   9.893  1.7933 -1.0650  0.2048
   97OSM   C11F 9691   4.329   3.993   9.801  0.3576  0.0795 -0.0995
   97OSM   H11F 9692   4.440   3.984   9.799  0.4591  0.0014  2.2806
   97OSM   H11G 9693   4.306   4.101   9.814  1.0010  0.1171  0.7976
   97OSM   C12F 9694   4.270   3.963   9.664  0.2433  0.0421 -0.1429
   97OSM   H12F 9695   4.159   3.969   9.667  0.1890 -0.8903  1.3082
   97OSM   H12G 9696   4.301   3.858   9.645  0.0690 -0.6964  3.0994
   97OSM   C13F 9697   4.323   4.055   9.555 -0.0936  0.0901 -0.2934
   97OSM   H13F 9698   4.433   4.055   9.572 -0.1980 -1.4778  0.6141
   97OSM   H13G 9699   4.281   4.157   9.572 -1.7475 -0.8837  1.9772
   97OSM   C14F 9700   4.301   4.013   9.412 -0.6507  0.2238 -0.3699
   97OSM   H14F 9701   4.349   3.913   9.401 -2.6063 -1.1712  2.4017
   97OSM   H14G 9702   4.353   4.076   9.337 -0.9726  0.4123 -0.4376
   97OSM   C15F 9703   4.153   3.992   9.371 -0.0976 -0.0443  1.0866
   97OSM   H15F 9704   4.102   4.087   9.398 -3.0279 -1.1736 -0.0785
   97OSM   H15G 9705   4.112   3.910   9.434  2.2129 -1.3567  1.0046
   97OSM   C16F 9706   4.120   3.963   9.225 -0.5857  0.1548 -0.3004
   97OSM   H16F 9707   4.011   3.946   9.217 -0.7393  1.6015 -1.4649
   97OSM   H16G 9708   4.155   3.866   9.184  1.0061  0.1743  0.8938
   97OSM   C17F 9709   4.165   4.075   9.134  0.1451  0.1200 -0.0085
   97OSM   H17F 9710   4.275   4.087   9.148  0.4571 -1.2565 -1.0830
   97OSM   H17G 9711   4.122   4.174   9.162 -2.5085 -0.8807 -0.3050
   97OSM   C18F 9712   4.140   4.050   8.985 -0.5543  0.5761  0.2646
   97OSM   H18F 9713   4.204   4.122   8.929 -0.8146 -0.3798 -1.3339
   97OSM   H18G 9714   4.032   4.059   8.959 -0.5095  1.2723  0.2978
   97OSM   H18H 9715   4.163   3.945   8.957  0.0176  0.3266  1.6292
   98OSM      N 9716   3.569   3.426  11.057 -0.5568 -0.2831 -0.3527
   98OSM    C15 9717   3.649   3.522  11.146  0.2676  0.7341  0.1139
   98OSM   H15A 9718   3.589   3.568  11.223  0.5889  0.9964  0.2115
   98OSM   H15B 9719   3.702   3.595  11.086  1.8488 -1.1014 -0.8515
   98OSM   H15C 9720   3.735   3.471  11.188  1.0572  1.5141 -0.5105
   98OSM    C14 9721   3.662   3.348  10.965  0.6842  0.3994 -0.2465
   98OSM   H14A 9722   3.617   3.278  10.896  1.5020  1.2887 -1.7359
   98OSM   H14B 9723   3.726   3.289  11.029 -2.9002 -0.9983  2.3423
   98OSM   H14C 9724   3.725   3.413  10.905  2.0961 -0.6656  0.0062
   98OSM    C13 9725   3.510   3.325  11.148  0.0124  0.7333 -0.8748
   98OSM   H13A 9726   3.450   3.373  11.224 -1.5626 -2.0975 -0.1962
   98OSM   H13B 9727   3.579   3.256  11.196 -0.2348  1.7041  0.9866
   98OSM   H13C 9728   3.440   3.268  11.089  1.1067  0.3876 -1.8838
   98OSM    C12 9729   3.465   3.500  10.975  0.8909  0.6059  0.0549
   98OSM   H12A 9730   3.504   3.581  10.915 -0.4274  0.8857 -0.4472
   98OSM   H12B 9731   3.397   3.553  11.040 -2.5281 -1.8435 -1.2228
   98OSM    C11 9732   3.362   3.416  10.894 -0.0650 -0.0281 -0.0995
   98OSM   H11A 9733   3.417   3.348  10.826  1.6138 -0.2072  1.3596
   98OSM   H11B 9734   3.298   3.486  10.836 -0.6375  0.4094  1.0093
   98OSM      P 9735   3.198   3.220  10.910  0.0360  0.0644  0.2335
   98OSM    O13 9736   3.273   3.102  10.951 -0.6927 -0.0521 -0.1551
   98OSM    O14 9737   3.054   3.224  10.948  0.0593  0.3931  0.3470
   98OSM    O11 9738   3.222   3.235  10.748 -0.0260  0.1339  0.6718
   98OSM    O12 9739   3.270   3.343  10.973  0.4348  0.3394 -0.0114
   98OSM    C1S 9740   3.130   3.303  10.663 -0.0769 -0.3292 -0.3520
   98OSM    H1S 9741   3.163   3.409  10.659  1.6635 -0.7709  1.1424
   98OSM    H1T 9742   3.024   3.293  10.694 -0.7422  0.4431 -2.1828
   98OSM     NF 9743   3.071   3.355  10.432  0.1527 -0.8123 -0.5153
   98OSM    HNF 9744   2.981   3.323  10.403 -1.2598 -1.4200  3.8078
   98OSM    C2S 9745   3.142   3.261  10.518  0.5028  1.0305 -0.5921
   98OSM    H2S 9746   3.251   3.264  10.496  0.8877 -1.2738  0.7582
   98OSM    C3S 9747   3.092   3.105  10.512 -0.2079  0.5232  0.4340
   98OSM    H3S 9748   2.985   3.096  10.542 -0.2572  0.0803  0.1267
   98OSM     O3 9749   3.167   3.018  10.603 -0.6568  0.7290  0.1414
   98OSM    HO3 9750   3.237   3.076  10.635 -1.4594  1.5126  0.5298
   98OSM    C4S 9751   3.110   3.046  10.382  0.3511 -0.2964  0.3958
   98OSM    H4S 9752   3.214   3.032  10.350  0.5403 -0.2060  0.9498
   98OSM    C5S 9753   3.013   3.018  10.292  0.0915 -0.2716  0.0039
   98OSM    H5S 9754   2.908   3.045  10.314 -1.0113 -3.4380 -0.7176
   98OSM    C6S 9755   3.040   2.952  10.156 -0.0328  0.0322  0.1089
   98OSM    H6S 9756   2.946   2.904  10.122 -0.8002  2.2798 -1.1621
   98OSM    H6T 9757   3.123   2.878  10.158  1.0887  1.2100 -0.7756
   98OSM    C7S 9758   3.058   3.064  10.054 -0.5860 -0.0663  0.4167
   98OSM    H7S 9759   3.163   3.102  10.056 -1.2731  2.2980 -2.1146
   98OSM    H7T 9760   2.997   3.154  10.077  3.0297  1.9119  3.3881
   98OSM    C8S 9761   3.025   3.018   9.914  0.0501 -0.6438  0.4622
   98OSM    H8S 9762   2.934   2.954   9.915  0.2824 -1.1436 -2.4174
   98OSM    H8T 9763   3.113   2.962   9.876  0.4524  1.1887 -1.5749
   98OSM    C9S 9764   2.990   3.124   9.813 -0.9327 -0.0788 -0.0976
   98OSM    H9S 9765   3.058   3.211   9.823 -0.6991 -0.1647 -0.8585
   98OSM    H9T 9766   2.887   3.157   9.837  0.0828  3.1055  0.3586
   98OSM   C10S 9767   2.982   3.073   9.667  0.3814  0.1730 -0.0167
   98OSM   H10S 9768   2.900   2.998   9.670 -0.7973  1.4483  2.3447
   98OSM   H10T 9769   3.073   3.011   9.650 -1.0270 -1.4065 -2.2435
   98OSM   C11S 9770   2.974   3.183   9.565 -0.5978  0.3499  0.2269
   98OSM   H11S 9771   3.058   3.255   9.577  0.7446 -1.3110  1.3949
   98OSM   H11T 9772   2.874   3.229   9.576  0.0476  1.8826 -0.0974
   98OSM   C12S 9773   2.973   3.116   9.426 -0.4785 -0.1694 -0.3472
   98OSM   H12S 9774   2.913   3.023   9.435  1.5603 -1.3675  2.7140
   98OSM   H12T 9775   3.075   3.084   9.396  1.0766  1.5834  2.5581
   98OSM   C13S 9776   2.914   3.201   9.318  0.4466  0.1486  0.1794
   98OSM   H13S 9777   2.969   3.294   9.294  0.8245  0.2788  1.4626
   98OSM   H13T 9778   2.811   3.230   9.349  0.0913  0.5721 -1.3437
   98OSM   C14S 9779   2.903   3.126   9.189  0.2579 -0.2457  0.0733
   98OSM   H14S 9780   2.996   3.068   9.170 -0.6827 -1.0706 -2.6503
   98OSM   H14T 9781   2.896   3.201   9.107  4.3385 -0.0705 -0.3293
   98OSM   C15S 9782   2.781   3.031   9.174 -0.7403 -0.1708  0.3171
   98OSM   H15S 9783   2.685   3.063   9.220 -0.3950  0.4174  0.6260
   98OSM   H15T 9784   2.817   2.943   9.232 -0.8607  0.5453  1.5190
   98OSM   C16S 9785   2.737   3.004   9.028  0.2239 -0.3783 -0.4224
   98OSM   H16S 9786   2.814   2.940   8.981 -0.0594 -0.6415 -0.5292
   98OSM   H16T 9787   2.733   3.093   8.962  0.5522 -1.3586 -1.8072
   98OSM   C17S 9788   2.605   2.928   9.006  0.1016 -0.1198 -0.1552
   98OSM   H17S 9789   2.526   2.987   9.058  2.4136  1.6131  1.6372
   98OSM   H17T 9790   2.607   2.833   9.063  3.0164  0.8644  1.6061
   98OSM   C18S 9791   2.560   2.898   8.867 -0.0865 -0.8477 -0.1712
   98OSM   H18S 9792   2.451   2.876   8.866 -0.9473  2.7440  0.4761
   98OSM   H18T 9793   2.612   2.812   8.819  1.7364 -0.6917  1.3947
   98OSM   H18U 9794   2.572   2.992   8.809 -0.1321  1.2941  3.0298
   98OSM    C1F 9795   3.118   3.481  10.416  0.1615  0.4042 -0.2483
   98OSM     OF 9796   3.224   3.511  10.464  0.0253 -0.6168 -0.0121
   98OSM    C2F 9797   3.025   3.578  10.367  0.5810  0.1888  0.0401
   98OSM    H2F 9798   3.060   3.683  10.381 -2.0283  1.2479 -0.8322
   98OSM    H2G 9799   2.924   3.575  10.412 -0.2060  3.1977 -1.2489
   98OSM    C3F 9800   3.018   3.573  10.215  0.0505 -0.4394  0.1100
   98OSM    H3F 9801   2.999   3.468  10.184  0.4096 -0.2846 -0.6431
   98OSM    H3G 9802   3.116   3.586  10.165 -0.2688  0.0208 -0.4156
   98OSM    C4F 9803   2.906   3.655  10.139 -0.0321 -0.2066 -0.2545
   98OSM    H4F 9804   2.898   3.753  10.192  1.7197 -0.0565 -0.2023
   98OSM    H4G 9805   2.808   3.605  10.152 -0.4539  1.1472  2.6572
   98OSM    C5F 9806   2.938   3.664   9.986 -0.3039 -0.2648  0.5419
   98OSM    H5F 9807   3.043   3.692   9.963  0.0027 -0.8284  1.2358
   98OSM    H5G 9808   2.882   3.754   9.953 -0.1608 -0.5956 -0.6558
   98OSM    C6F 9809   2.893   3.545   9.906  0.1832 -0.0427  0.2478
   98OSM    H6F 9810   2.788   3.516   9.926  0.4112 -1.4412 -0.4636
   98OSM    H6G 9811   2.955   3.471   9.962  1.4280  0.3245 -0.6145
   98OSM    C7F 9812   2.938   3.531   9.764  0.4075  0.7507 -0.1268
   98OSM    H7F 9813   2.890   3.439   9.724  0.8138  0.5860 -0.2446
   98OSM    H7G 9814   3.047   3.512   9.751  0.1545  0.0071 -1.3641
   98OSM    C8F 9815   2.892   3.644   9.671  0.4162 -0.2523 -0.1963
   98OSM    H8F 9816   2.944   3.736   9.705  0.7922 -0.6761  0.4001
   98OSM    H8G 9817   2.785   3.652   9.700  0.3609 -5.2316  2.0047
   98OSM    C9F 9818   2.917   3.620   9.528  0.4203 -0.4881  0.2802
   98OSM    H9F 9819   2.861   3.531   9.496  0.6962 -1.0810  1.4096
   98OSM   C10F 9820   3.009   3.686   9.451 -0.2246  0.6220  0.3856
   98OSM   H10F 9821   3.023   3.650   9.348 -0.2339  1.4084  0.1094
   98OSM   C11F 9822   3.100   3.796   9.490  0.4079  0.4190 -0.0216
   98OSM   H11F 9823   3.206   3.774   9.467 -0.2659 -0.7657 -2.3534
   98OSM   H11G 9824   3.093   3.819   9.599 -0.0328 -1.5448  0.4146
   98OSM   C12F 9825   3.055   3.917   9.405  0.1173  0.5950 -0.1854
   98OSM   H12F 9826   3.102   4.011   9.441  2.0986 -0.2205 -0.4771
   98OSM   H12G 9827   2.948   3.919   9.432  0.1981 -0.9360  0.4029
   98OSM   C13F 9828   3.081   3.905   9.259  0.2926 -0.2283  0.3587
   98OSM   H13F 9829   2.995   3.869   9.198  0.8682 -1.1492  0.0803
   98OSM   H13G 9830   3.168   3.838   9.244  1.4173  1.6369 -2.6858
   98OSM   C14F 9831   3.116   4.041   9.191 -0.1505  0.1401  0.8631
   98OSM   H14F 9832   3.197   4.086   9.253 -0.5765  0.6039  1.0924
   98OSM   H14G 9833   3.028   4.107   9.176 -1.0906 -1.4517 -0.9700
   98OSM   C15F 9834   3.163   4.021   9.053 -0.1981  0.4530  0.1595
   98OSM   H15F 9835   3.087   3.948   9.018 -0.8177  2.0706 -2.1016
   98OSM   H15G 9836   3.259   3.967   9.040  0.0573  0.9073  0.1453
   98OSM   C16F 9837   3.157   4.144   8.963  0.4283  0.4830  0.6082
   98OSM   H16F 9838   3.217   4.225   9.011 -1.2853  0.8715  2.2194
   98OSM   H16G 9839   3.050   4.175   8.959 -0.2793 -1.9029 -0.7963
   98OSM   C17F 9840   3.195   4.116   8.819 -0.0340 -0.0673 -0.4045
   98OSM   H17F 9841   3.295   4.068   8.811 -0.0824  0.0959 -2.4381
   98OSM   H17G 9842   3.210   4.218   8.777  2.3847 -0.8131 -1.5346
   98OSM   C18F 9843   3.097   4.037   8.735  0.1424 -0.4313  0.3326
   98OSM   H18F 9844   3.003   4.091   8.710  1.5389  1.4862 -1.0572
   98OSM   H18G 9845   3.094   3.937   8.783  1.7984 -1.0422 -0.7701
   98OSM   H18H 9846   3.139   4.026   8.633  0.3529  3.0633 -0.0641
   99OSM      N 9847   4.354   0.029  11.106  0.4049 -0.4152  0.1671
   99OSM    C15 9848   4.339   0.174  11.158 -0.4516  0.1616 -0.1569
   99OSM   H15A 9849   4.433   0.227  11.149 -0.0608 -0.0750  2.1032
   99OSM   H15B 9850   4.325   0.181  11.264  2.2472 -0.9300  0.3492
   99OSM   H15C 9851   4.257   0.219  11.104 -0.3677  0.1060 -0.3324
   99OSM    C14 9852   4.482  -0.037  11.152  0.3875  0.0964 -0.5794
   99OSM   H14A 9853   4.571   0.004  11.107  0.9087 -2.4328 -2.0866
   99OSM   H14B 9854   4.476  -0.145  11.141 -0.6430  0.1481 -0.6228
   99OSM   H14C 9855   4.482  -0.014  11.257 -1.4814 -1.2630 -0.2234
   99OSM    C13 9856   4.232  -0.044  11.155 -0.3426  0.3865  0.2257
   99OSM   H13A 9857   4.150   0.010  11.109  0.7660  1.8793 -0.0598
   99OSM   H13B 9858   4.240  -0.042  11.263  0.5079 -0.1451  0.1796
   99OSM   H13C 9859   4.226  -0.146  11.120 -0.2223 -0.0713  1.5000
   99OSM    C12 9860   4.356   0.032  10.955  0.5655  0.5393  0.3947
   99OSM   H12A 9861   4.383  -0.066  10.918  2.7237  1.6062 -1.1072
   99OSM   H12B 9862   4.439   0.098  10.930 -0.6891  2.6079  1.4197
   99OSM    C11 9863   4.222   0.083  10.889  0.2728  0.2278  0.2571
   99OSM   H11A 9864   4.139   0.013  10.913  0.8251  0.0476  1.7463
   99OSM   H11B 9865   4.225   0.081  10.778  1.0575  2.5064  0.1836
   99OSM      P 9866   4.244   0.336  10.855 -0.5427  0.1432  0.0887
   99OSM    O13 9867   4.226   0.461  10.940  0.0462  0.3441  0.3993
   99OSM    O14 9868   4.381   0.304  10.800 -0.0971 -0.1919  0.1011
   99OSM    O11 9869   4.137   0.358  10.735  0.1106  0.1475  0.2301
   99OSM    O12 9870   4.190   0.212  10.936  0.1127 -0.6710 -0.1317
   99OSM    C1S 9871   4.184   0.444  10.620  0.0732 -0.0287 -0.0755
   99OSM    H1S 9872   4.267   0.513  10.648  1.1476 -1.4588  0.3248
   99OSM    H1T 9873   4.100   0.506  10.582 -0.5422 -1.2052 -0.6715
   99OSM     NF 9874   4.290   0.451  10.394  0.3116  0.3058 -0.3157
   99OSM    HNF 9875   4.236   0.479  10.315  0.2625 -1.1528 -0.8240
   99OSM    C2S 9876   4.231   0.360  10.491  0.2212 -0.3274  0.0823
   99OSM    H2S 9877   4.312   0.289  10.517  1.7352  1.2523 -0.1163
   99OSM    C3S 9878   4.112   0.267  10.445 -0.2586 -0.6029 -0.3003
   99OSM    H3S 9879   4.025   0.332  10.422 -2.0187 -2.1083  1.7826
   99OSM     O3 9880   4.063   0.175  10.546 -0.2058  0.3772  0.1133
   99OSM    HO3 9881   4.087   0.229  10.622 -0.7868  0.2439  0.3955
   99OSM    C4S 9882   4.155   0.185  10.325 -0.8869  0.2645 -0.4735
   99OSM    H4S 9883   4.234   0.113  10.350  0.1629  1.6621  0.4835
   99OSM    C5S 9884   4.110   0.197  10.198 -0.2249 -0.3047 -0.9408
   99OSM    H5S 9885   4.026   0.265  10.179  0.3110  0.1459 -1.7442
   99OSM    C6S 9886   4.160   0.114  10.080 -0.2545  0.3086  0.2747
   99OSM    H6S 9887   4.086   0.095  10.000  1.0570 -1.7443 -0.5479
   99OSM    H6T 9888   4.189   0.012  10.115 -0.7810 -0.0352 -0.2679
   99OSM    C7S 9889   4.289   0.168  10.011  0.3236 -0.1070 -0.5547
   99OSM    H7S 9890   4.362   0.174  10.095  1.8378 -1.0766 -1.7480
   99OSM    H7T 9891   4.267   0.273   9.983 -2.5969  0.0803  1.8848
   99OSM    C8S 9892   4.347   0.090   9.898  0.7048 -0.9437  0.5616
   99OSM    H8S 9893   4.383  -0.012   9.926  0.8773 -1.5880 -1.7661
   99OSM    H8T 9894   4.430   0.157   9.867  1.4174 -0.6662  2.8699
   99OSM    C9S 9895   4.239   0.058   9.789  0.2253 -0.3683 -0.3783
   99OSM    H9S 9896   4.160  -0.002   9.838  0.0573  0.0784 -0.1010
   99OSM    H9T 9897   4.294   0.002   9.711  3.4201  0.4811  1.0802
   99OSM   C10S 9898   4.170   0.177   9.732 -0.1178  0.3188 -1.0773
   99OSM   H10S 9899   4.248   0.250   9.702 -1.1370  2.2466  0.6819
   99OSM   H10T 9900   4.113   0.230   9.812 -0.2867 -1.4433  0.0324
   99OSM   C11S 9901   4.098   0.146   9.604 -0.9700 -0.1055  0.1036
   99OSM   H11S 9902   4.014   0.218   9.596  0.7003  1.7917 -1.1358
   99OSM   H11T 9903   4.071   0.038   9.612  0.1076 -0.3048  1.3389
   99OSM   C12S 9904   4.190   0.169   9.485  0.0284 -0.3480 -0.0885
   99OSM   H12S 9905   4.239   0.269   9.488 -0.1910 -0.2503  0.3252
   99OSM   H12T 9906   4.267   0.090   9.485 -0.9361 -1.3186  0.4065
   99OSM   C13S 9907   4.132   0.162   9.346 -0.4923 -0.0125 -0.1757
   99OSM   H13S 9908   4.050   0.237   9.339 -0.4598  0.0764  0.3619
   99OSM   H13T 9909   4.089   0.060   9.339  1.7274 -0.9133 -1.5168
   99OSM   C14S 9910   4.248   0.166   9.246 -0.3600 -0.4210 -0.5633
   99OSM   H14S 9911   4.294   0.066   9.260 -0.9010 -0.9957 -2.4986
   99OSM   H14T 9912   4.326   0.238   9.279 -0.0016 -1.1420  0.1931
   99OSM   C15S 9913   4.209   0.206   9.104  0.6184 -0.1116  0.0345
   99OSM   H15S 9914   4.168   0.309   9.113  1.8896  0.3932  0.3933
   99OSM   H15T 9915   4.124   0.144   9.069  0.4076  1.3068 -2.2362
   99OSM   C16S 9916   4.326   0.194   9.005 -0.7177  0.4687  0.0673
   99OSM   H16S 9917   4.377   0.096   9.016 -0.2913  0.6726 -0.0646
   99OSM   H16T 9918   4.403   0.270   9.029 -1.2744  1.2535 -0.5650
   99OSM   C17S 9919   4.293   0.216   8.861 -0.5375  0.2812 -0.2334
   99OSM   H17S 9920   4.184   0.203   8.841 -0.6882  0.0367  0.6929
   99OSM   H17T 9921   4.345   0.144   8.795 -0.8927  1.9928 -2.5066
   99OSM   C18S 9922   4.323   0.358   8.821 -0.3676 -0.9103  0.1730
   99OSM   H18S 9923   4.312   0.381   8.713  2.0905 -1.3695 -0.2327
   99OSM   H18T 9924   4.421   0.394   8.860 -1.4560  0.0609  2.1920
   99OSM   H18U 9925   4.249   0.421   8.875  0.9143  0.5247  0.3123
   99OSM    C1F 9926   4.411   0.501  10.417  0.2575  0.1433 -0.2267
   99OSM     OF 9927   4.487   0.449  10.487 -0.8980  0.0616 -0.8049
   99OSM    C2F 9928   4.432   0.637  10.357 -0.1012 -0.5729 -0.0368
   99OSM    H2F 9929   4.539   0.666  10.371  0.6202 -1.9250 -2.2326
   99OSM    H2G 9930   4.369   0.711  10.411  1.1296  1.1485 -0.8542
   99OSM    C3F 9931   4.398   0.632  10.206  0.1501  0.1961 -0.3219
   99OSM    H3F 9932   4.290   0.613  10.190 -0.1987 -0.2263  2.1269
   99OSM    H3G 9933   4.435   0.723  10.155  0.1226  0.4174  0.0493
   99OSM    C4F 9934   4.487   0.525  10.134 -0.0363 -0.2097 -0.4640
   99OSM    H4F 9935   4.458   0.422  10.162  1.1461 -0.5926 -0.6096
   99OSM    H4G 9936   4.584   0.538  10.186 -0.9777 -1.8374  1.8542
   99OSM    C5F 9937   4.501   0.548   9.984 -0.0242  0.1630 -0.0321
   99OSM    H5F 9938   4.537   0.653   9.983 -1.9363  0.8517 -0.5446
   99OSM    H5G 9939   4.402   0.550   9.933 -0.8008  0.5564  1.4311
   99OSM    C6F 9940   4.592   0.436   9.929  0.2585 -0.3889  0.1329
   99OSM    H6F 9941   4.532   0.345   9.909  1.0688 -0.6361 -1.2698
   99OSM    H6G 9942   4.649   0.404  10.020 -0.3308  0.4196  0.8025
   99OSM    C7F 9943   4.701   0.470   9.828 -0.1162  0.3645  0.0993
   99OSM    H7F 9944   4.747   0.378   9.786 -1.5133 -0.5718  0.5247
   99OSM    H7G 9945   4.779   0.525   9.884 -0.2774  1.1845 -0.4618
   99OSM    C8F 9946   4.649   0.554   9.714  0.2867  0.0414 -0.2326
   99OSM    H8F 9947   4.742   0.581   9.660  0.1085  0.2624 -0.4306
   99OSM    H8G 9948   4.597   0.645   9.750 -0.1029 -0.8961  1.7654
   99OSM    C9F 9949   4.556   0.468   9.644 -0.3487  0.0803 -0.3136
   99OSM    H9F 9950   4.482   0.415   9.706 -0.8637  0.0039 -0.9901
   99OSM   C10F 9951   4.554   0.459   9.515 -0.3730  0.2697  0.5544
   99OSM   H10F 9952   4.476   0.390   9.480  1.1627 -0.7841 -0.9116
   99OSM   C11F 9953   4.637   0.526   9.410 -0.3670  0.4055 -0.7874
   99OSM   H11F 9954   4.743   0.525   9.444  0.0064 -2.1572 -1.7825
   99OSM   H11G 9955   4.606   0.633   9.402 -1.0945  0.4299  1.5874
   99OSM   C12F 9956   4.625   0.451   9.277 -0.4826 -0.4576 -0.0079
   99OSM   H12F 9957   4.519   0.445   9.245 -0.1640 -1.4421 -0.9103
   99OSM   H12G 9958   4.655   0.345   9.283 -0.7403 -0.5852 -0.9156
   99OSM   C13F 9959   4.713   0.527   9.170 -0.1848 -0.1983 -0.5278
   99OSM   H13F 9960   4.818   0.540   9.204 -0.5430 -1.3915  1.1838
   99OSM   H13G 9961   4.681   0.633   9.160  2.2674  0.4437 -2.8522
   99OSM   C14F 9962   4.702   0.466   9.034 -0.1054 -0.0415 -0.0419
   99OSM   H14F 9963   4.593   0.465   9.018 -0.2182 -1.7075  0.5769
   99OSM   H14G 9964   4.746   0.364   9.039  1.9631  0.8190  0.4663
   99OSM   C15F 9965   4.764   0.554   8.926 -0.8670 -0.3763 -0.4765
   99OSM   H15F 9966   4.874   0.563   8.939 -1.0179 -0.6953  1.1967
   99OSM   H15G 9967   4.738   0.662   8.934 -0.8388 -0.3209 -1.0606
   99OSM   C16F 9968   4.742   0.515   8.776 -0.1355 -0.0117  0.0068
   99OSM   H16F 9969   4.634   0.500   8.758  0.2447 -0.2173 -2.4069
   99OSM   H16G 9970   4.786   0.415   8.756  0.2585  0.2844 -0.6441
   99OSM   C17F 9971   4.791   0.609   8.668 -0.4124 -0.5404 -0.2933
   99OSM   H17F 9972   4.769   0.708   8.713 -1.0531 -0.9469  0.3062
   99OSM   H17G 9973   4.743   0.597   8.568  3.2154 -1.5921 -2.1109
   99OSM   C18F 9974   4.937   0.579   8.630  0.9184  0.2815  0.0919
   99OSM   H18F 9975   4.972   0.643   8.546 -0.0396 -3.0565 -3.0792
   99OSM   H18G 9976   4.947   0.475   8.593 -1.3631 -0.0544  0.2657
   99OSM   H18H 9977   4.993   0.583   8.726  0.4551 -3.2831  0.6348
  100OSM      N 9978   0.808   1.448  10.891  0.7273 -0.7882 -0.5281
  100OSM    C15 9979   0.698   1.517  10.958  1.0789  0.0620 -0.5275
  100OSM   H15A 9980   0.685   1.610  10.905 -0.1047  1.3766  1.9432
  100OSM   H15B 9981   0.705   1.533  11.064 -0.3413  1.5032 -0.6120
  100OSM   H15C 9982   0.599   1.478  10.939  0.5803  0.9994  0.0542
  100OSM    C14 9983   0.928   1.530  10.917  0.0148  0.5797 -0.0276
  100OSM   H14A 9984   0.935   1.538  11.024 -2.8946 -1.2377  0.4115
  100OSM   H14B 9985   0.921   1.629  10.873  0.9575  1.2288  1.2181
  100OSM   H14C 9986   1.017   1.481  10.883 -0.9122  0.6096 -2.7461
  100OSM    C13 9987   0.831   1.318  10.944  0.3839  0.4530  0.8045
  100OSM   H13A 9988   0.896   1.310  11.030  1.1390 -1.4450  0.1016
  100OSM   H13B 9989   0.868   1.253  10.867 -3.3842 -1.8822  0.7215
  100OSM   H13C 9990   0.743   1.274  10.989  1.3689 -0.8536  1.5110
  100OSM    C12 9991   0.775   1.437  10.743 -0.3402  0.2463  0.3704
  100OSM   H12A 9992   0.700   1.361  10.725  1.1661 -0.6509 -2.7267
  100OSM   H12B 9993   0.870   1.405  10.703 -0.1964  0.0732  0.8448
  100OSM    C11 9994   0.724   1.562  10.669 -0.7976  0.0050 -0.1493
  100OSM   H11A 9995   0.722   1.547  10.559 -0.4821  0.0565 -0.1623
  100OSM   H11B 9996   0.790   1.647  10.695 -1.2858  0.3019  0.1543
  100OSM      P 9997   0.465   1.506  10.644  0.0976 -0.0178  0.1864
  100OSM    O13 9998   0.485   1.357  10.657  0.0767  0.0530 -0.0044
  100OSM    O14 9999   0.337   1.564  10.700 -0.3339 -0.3803  0.2958
  100OSM    O1110000   0.479   1.543  10.486 -0.5821  0.1205  0.2690
  100OSM    O1210001   0.590   1.580  10.716 -0.2110  0.4614 -0.4833
  100OSM    C1S10002   0.453   1.688  10.454 -0.1630  0.1740 -0.5780
  100OSM    H1S10003   0.531   1.745  10.509 -0.5433 -2.1903  2.7038
  100OSM    H1T10004   0.351   1.717  10.488  0.4833  1.1669  0.6050
  100OSM     NF10005   0.474   1.850  10.268  0.0115 -0.0871  0.0598
  100OSM    HNF10006   0.388   1.894  10.244  1.6837  3.2635 -0.3507
  100OSM    C2S10007   0.470   1.712  10.303  0.1222 -0.0835 -0.5816
  100OSM    H2S10008   0.564   1.659  10.275  0.4565 -0.7076  1.5102
  100OSM    C3S10009   0.362   1.635  10.218 -0.0656  0.2733 -0.2010
  100OSM    H3S10010   0.265   1.676  10.251  0.4333  1.1353  0.2203
  100OSM     O310011   0.353   1.490  10.237  0.2311  0.5906  0.1295
  100OSM    HO310012   0.395   1.479  10.323  0.9700  3.3440  0.2095
  100OSM    C4S10013   0.379   1.656  10.066  0.1964  0.7723  0.0661
  100OSM    H4S10014   0.303   1.721  10.020 -0.2721 -0.8124 -1.5113
  100OSM    C5S10015   0.470   1.596   9.979 -0.2605 -0.5255 -0.6541
  100OSM    H5S10016   0.549   1.530  10.019  0.1951 -0.5718 -1.6175
  100OSM    C6S10017   0.493   1.617   9.833  0.5085 -0.3736  0.0164
  100OSM    H6S10018   0.579   1.687   9.835  1.7700 -1.8789  1.1602
  100OSM    H6T10019   0.409   1.669   9.783 -0.1176 -2.7444 -1.5892
  100OSM    C7S10020   0.547   1.495   9.757 -0.5082 -0.1626  0.1567
  100OSM    H7S10021   0.490   1.404   9.785  2.0606 -1.0660  3.1047
  100OSM    H7T10022   0.655   1.475   9.775 -0.2375  0.7767 -0.3686
  100OSM    C8S10023   0.531   1.508   9.606  0.2829 -0.2271 -0.0534
  100OSM    H8S10024   0.572   1.603   9.566 -0.4192  0.1831  0.1892
  100OSM    H8T10025   0.424   1.522   9.581 -0.0223 -1.5433  0.4164
  100OSM    C9S10026   0.583   1.393   9.532 -0.3407  0.3038  0.4234
  100OSM    H9S10027   0.526   1.299   9.550 -1.8200  0.9108 -0.9098
  100OSM    H9T10028   0.681   1.359   9.572  0.5031  0.4958 -1.3729
  100OSM   C10S10029   0.588   1.403   9.378  0.3097 -0.1664  0.2883
  100OSM   H10S10030   0.631   1.502   9.350 -0.3931 -0.4236 -1.8717
  100OSM   H10T10031   0.482   1.402   9.346  0.5798  2.5251 -1.0094
  100OSM   C11S10032   0.670   1.284   9.305  0.3514  0.1416 -0.0507
  100OSM   H11S10033   0.616   1.196   9.346  2.7360 -0.8945  1.0693
  100OSM   H11T10034   0.772   1.269   9.348  0.3629  1.8426  0.5953
  100OSM   C12S10035   0.669   1.277   9.154 -0.7880 -0.2628 -0.1192
  100OSM   H12S10036   0.564   1.261   9.121 -0.6315  0.4196 -0.9915
  100OSM   H12T10037   0.724   1.194   9.104 -0.0364  0.0511  0.1674
  100OSM   C13S10038   0.728   1.409   9.088 -0.7336  0.6132  0.6568
  100OSM   H13S10039   0.834   1.427   9.116 -0.6348  0.4453  0.3997
  100OSM   H13T10040   0.678   1.500   9.126  1.2008  1.0869  2.2107
  100OSM   C14S10041   0.726   1.422   8.937 -0.3446 -0.1594 -0.1096
  100OSM   H14S10042   0.783   1.335   8.898 -0.3046 -1.1335  1.9668
  100OSM   H14T10043   0.781   1.513   8.906  0.7698 -1.3834 -1.9169
  100OSM   C15S10044   0.588   1.425   8.868 -0.1597  0.7571  0.1999
  100OSM   H15S10045   0.511   1.471   8.934 -0.2926  0.6474  0.1207
  100OSM   H15T10046   0.562   1.318   8.856  3.5889 -0.2004 -0.8043
  100OSM   C16S10047   0.593   1.484   8.724  0.4445 -0.3307  0.8963
  100OSM   H16S10048   0.676   1.438   8.666 -0.9835 -1.9154  0.0219
  100OSM   H16T10049   0.615   1.592   8.736 -2.0133  0.2474  0.7471
  100OSM   C17S10050   0.464   1.470   8.646 -0.5050  0.0800 -0.2952
  100OSM   H17S10051   0.447   1.363   8.620 -1.2818 -0.5241  2.4087
  100OSM   H17T10052   0.461   1.541   8.560 -1.2953  1.8044  1.0982
  100OSM   C18S10053   0.337   1.517   8.721  0.2985  0.5496 -0.1066
  100OSM   H18S10054   0.254   1.540   8.651 -0.1783 -0.0276  0.2595
  100OSM   H18T10055   0.366   1.604   8.784 -0.4589 -1.0063  2.5629
  100OSM   H18U10056   0.301   1.440   8.793 -0.5856  1.9141  0.9611
  100OSM    C1F10057   0.576   1.929  10.292 -0.3965 -0.7722 -0.6633
  100OSM     OF10058   0.674   1.881  10.351 -0.0091  0.0566  0.3431
  100OSM    C2F10059   0.570   2.068  10.241 -0.7620 -0.3025  0.3222
  100OSM    H2F10060   0.597   2.135  10.326 -1.0001  0.2120 -0.0017
  100OSM    H2G10061   0.467   2.099  10.212 -1.1449 -2.0177 -0.2234
  100OSM    C3F10062   0.657   2.088  10.111  0.5360 -0.0146  0.1582
  100OSM    H3F10063   0.763   2.055  10.119 -0.2615 -2.4283  1.5294
  100OSM    H3G10064   0.667   2.199  10.108 -0.6273  0.1758  1.8997
  100OSM    C4F10065   0.587   2.035   9.980 -0.6152 -0.0199  0.4567
  100OSM    H4F10066   0.496   2.097   9.968  1.3479  2.7261 -1.4466
  100OSM    H4G10067   0.572   1.925   9.985  0.2624 -0.0799  3.3257
  100OSM    C5F10068   0.676   2.062   9.860  0.2172  0.1088  0.1876
  100OSM    H5F10069   0.769   2.001   9.865 -0.0617 -0.4238 -0.8526
  100OSM    H5G10070   0.698   2.170   9.857 -0.7865  0.3598  1.2542
  100OSM    C6F10071   0.602   2.013   9.731 -0.5172  0.4381  0.0424
  100OSM    H6F10072   0.505   2.066   9.715 -1.8342 -0.3784  4.0390
  100OSM    H6G10073   0.581   1.905   9.751  2.2357 -0.5472 -1.7791
  100OSM    C7F10074   0.696   2.040   9.613  0.6466 -0.2726  0.6088
  100OSM    H7F10075   0.786   1.975   9.617 -0.4307 -1.7519  2.2023
  100OSM    H7G10076   0.725   2.147   9.625 -1.1661  0.1611  1.4400
  100OSM    C8F10077   0.620   2.017   9.476  0.2310 -0.0176 -0.1665
  100OSM    H8F10078   0.532   2.083   9.468  1.1232  1.0497 -1.7318
  100OSM    H8G10079   0.589   1.910   9.472  0.0716  0.0536 -3.2759
  100OSM    C9F10080   0.718   2.043   9.362  1.4653  0.7339 -0.5741
  100OSM    H9F10081   0.805   1.976   9.376  0.3006 -0.5859  0.7009
  100OSM   C10F10082   0.712   2.133   9.262  0.5233 -0.3244 -0.8784
  100OSM   H10F10083   0.796   2.126   9.191  1.7907  0.5331  0.4725
  100OSM   C11F10084   0.598   2.231   9.241  0.1147 -0.1243 -0.6605
  100OSM   H11F10085   0.552   2.267   9.335  1.3402 -1.1215  0.3626
  100OSM   H11G10086   0.519   2.175   9.188  0.2938 -0.9707 -0.0437
  100OSM   C12F10087   0.647   2.353   9.155 -0.1733 -0.3455 -0.2108
  100OSM   H12F10088   0.727   2.405   9.212  0.5079 -2.1874  0.6141
  100OSM   H12G10089   0.565   2.427   9.152 -1.8856 -2.1553 -0.3907
  100OSM   C13F10090   0.681   2.312   9.015 -0.7836 -0.0840 -0.1251
  100OSM   H13F10091   0.597   2.258   8.967 -0.2676  0.6822 -2.0011
  100OSM   H13G10092   0.764   2.238   9.021  0.1712  0.9036 -0.5914
  100OSM   C14F10093   0.743   2.436   8.941 -0.1689 -0.1079  0.2490
  100OSM   H14F10094   0.789   2.403   8.845 -1.4425  1.4282 -0.9535
  100OSM   H14G10095   0.828   2.472   9.002  0.3166  0.2963 -0.6424
  100OSM   C15F10096   0.652   2.560   8.919  0.5251  0.7597 -0.3192
  100OSM   H15F10097   0.600   2.593   9.011 -1.6887  0.1468 -1.2724
  100OSM   H15G10098   0.570   2.528   8.850  1.2511 -0.4884 -0.6400
  100OSM   C16F10099   0.732   2.673   8.849  0.4337 -0.3558  0.5861
  100OSM   H16F10100   0.776   2.647   8.750 -1.0495 -0.6998 -0.0116
  100OSM   H16G10101   0.808   2.711   8.920 -0.5605  1.0760  0.9241
  100OSM   C17F10102   0.650   2.803   8.822 -0.1481  0.5459  0.5643
  100OSM   H17F10103   0.614   2.838   8.921 -0.1036 -0.4169  0.9308
  100OSM   H17G10104   0.557   2.768   8.771  0.6271 -0.1547 -0.4186
  100OSM   C18F10105   0.721   2.921   8.751  0.0808  0.3360  0.4490
  100OSM   H18F10106   0.764   2.888   8.653  0.9376  3.0854 -0.1797
  100OSM   H18G10107   0.809   2.937   8.816 -0.7812  0.4207  1.6169
  100OSM   H18H10108   0.645   2.998   8.727 -0.3355 -0.7767 -2.2417
  101OSM      N10109   2.588   6.058  11.294 -0.5775 -0.8629 -0.1763
  101OSM    C1510110   2.675   6.087  11.414 -0.0295  0.2842 -0.3901
  101OSM   H15A10111   2.755   6.159  11.402 -1.8054  2.6709  1.1773
  101OSM   H15B10112   2.721   5.991  11.433 -1.0414 -0.5290 -1.8353
  101OSM   H15C10113   2.622   6.118  11.503  0.4240 -1.0572  0.3829
  101OSM    C1410114   2.514   5.929  11.311 -0.2916  0.5527  0.2499
  101OSM   H14A10115   2.443   5.937  11.391  3.0861 -1.8679  3.9147
  101OSM   H14B10116   2.578   5.846  11.340 -0.5157 -1.0661 -3.2807
  101OSM   H14C10117   2.460   5.905  11.221  0.7267  1.7496 -0.7258
  101OSM    C1310118   2.487   6.167  11.283 -0.2480 -0.0821  0.4334
  101OSM   H13A10119   2.441   6.188  11.379  0.8519 -1.9934  1.4357
  101OSM   H13B10120   2.419   6.152  11.201 -0.8477  1.0223  0.7044
  101OSM   H13C10121   2.535   6.259  11.252 -0.1272 -0.5198 -0.7193
  101OSM    C1210122   2.677   6.044  11.169  0.0776  1.1146 -0.3077
  101OSM   H12A10123   2.747   5.965  11.189  0.8004  2.5244  3.9379
  101OSM   H12B10124   2.737   6.134  11.161  0.0916  0.9794 -1.9652
  101OSM    C1110125   2.608   6.008  11.029  0.5442 -0.4040  0.1636
  101OSM   H11A10126   2.561   5.908  11.040 -2.6122  1.1471  2.6024
  101OSM   H11B10127   2.691   6.001  10.955 -0.1179 -1.0079 -0.5271
  101OSM      P10128   2.531   6.243  10.948 -0.2566  0.0344 -0.2130
  101OSM    O1310129   2.423   6.271  10.846 -0.0639  0.2139  0.5893
  101OSM    O1410130   2.549   6.345  11.056 -0.0541 -0.0332 -0.0885
  101OSM    O1110131   2.665   6.223  10.867 -0.4224  1.0271  0.2566
  101OSM    O1210132   2.504   6.094  10.995  0.1354 -0.0180 -0.5712
  101OSM    C1S10133   2.669   6.169  10.733  0.1519  0.4761  0.5869
  101OSM    H1S10134   2.584   6.099  10.720  1.6077 -1.2788  0.1279
  101OSM    H1T10135   2.762   6.109  10.722  0.8349  0.8376  3.5427
  101OSM     NF10136   2.639   6.231  10.490 -0.1843 -0.2882  0.4776
  101OSM    HNF10137   2.711   6.236  10.421 -1.0922 -2.5403 -0.7659
  101OSM    C2S10138   2.658   6.283  10.627  0.0251 -0.2369 -0.3818
  101OSM    H2S10139   2.566   6.335  10.662 -1.1516 -2.6931  0.3937
  101OSM    C3S10140   2.783   6.386  10.632  0.9821  0.2157 -0.6148
  101OSM    H3S10141   2.874   6.335  10.595  0.2955 -1.0381 -0.6569
  101OSM     O310142   2.806   6.433  10.761 -0.8714 -0.3051 -0.0450
  101OSM    HO310143   2.755   6.381  10.824 -3.0511 -0.7929 -2.0910
  101OSM    C4S10144   2.750   6.505  10.550 -0.6917 -0.6040  0.0889
  101OSM    H4S10145   2.656   6.557  10.574 -0.0263  0.3605  0.6411
  101OSM    C5S10146   2.832   6.530  10.447  0.1352 -0.0500 -0.9122
  101OSM    H5S10147   2.922   6.469  10.432  0.4374  0.5830 -1.7914
  101OSM    C6S10148   2.813   6.646  10.351  0.9507 -0.6794 -0.2704
  101OSM    H6S10149   2.905   6.705  10.332  0.5406 -0.4697 -1.6930
  101OSM    H6T10150   2.739   6.717  10.395  0.2195 -0.9123 -1.0946
  101OSM    C7S10151   2.768   6.586  10.219 -1.0166  0.3531 -0.1205
  101OSM    H7S10152   2.680   6.524  10.247 -0.4386 -0.8354 -0.8933
  101OSM    H7T10153   2.843   6.534  10.156  0.1013  0.5587  1.0035
  101OSM    C8S10154   2.705   6.690  10.136  0.4823 -0.0994  0.1452
  101OSM    H8S10155   2.770   6.778  10.115  2.0689 -1.0209  0.9462
  101OSM    H8T10156   2.618   6.739  10.183  1.3976  1.2440  0.5078
  101OSM    C9S10157   2.641   6.644   9.997 -0.2884 -0.4165 -0.4041
  101OSM    H9S10158   2.592   6.731   9.947  2.4380  0.1002 -2.3818
  101OSM    H9T10159   2.562   6.566  10.007  0.7396 -1.5044 -0.5602
  101OSM   C10S10160   2.746   6.588   9.898  0.6904 -0.3428  0.2121
  101OSM   H10S10161   2.784   6.489   9.928  0.8753 -0.8971 -1.7257
  101OSM   H10T10162   2.834   6.656   9.888  1.6331 -1.5522  0.0019
  101OSM   C11S10163   2.678   6.569   9.763  0.4707 -0.3911 -0.1128
  101OSM   H11S10164   2.646   6.668   9.725  0.9594 -0.7958 -1.6702
  101OSM   H11T10165   2.594   6.498   9.772 -0.7860  1.2749  2.9892
  101OSM   C12S10166   2.773   6.526   9.643 -0.6308  0.2099 -0.1840
  101OSM   H12S10167   2.804   6.419   9.651 -1.4805 -0.0215  0.0946
  101OSM   H12T10168   2.869   6.575   9.668 -0.0077 -0.9592 -0.2196
  101OSM   C13S10169   2.725   6.558   9.506 -0.0974  0.7524  0.4460
  101OSM   H13S10170   2.800   6.537   9.428 -2.2286  0.0161 -1.5237
  101OSM   H13T10171   2.715   6.668   9.513  1.4148  0.9306  0.0229
  101OSM   C14S10172   2.603   6.468   9.464  0.3664 -0.0347 -0.8022
  101OSM   H14S10173   2.511   6.527   9.484  0.1688  0.3254 -2.6440
  101OSM   H14T10174   2.609   6.366   9.507  0.3947  0.2194 -0.1842
  101OSM   C15S10175   2.593   6.449   9.313 -0.0201  0.4092  0.7319
  101OSM   H15S10176   2.688   6.401   9.282  0.1604  1.5816 -0.6303
  101OSM   H15T10177   2.580   6.548   9.264 -1.1649 -0.6856 -1.2981
  101OSM   C16S10178   2.477   6.367   9.253 -0.9875  0.0770 -0.1430
  101OSM   H16S10179   2.383   6.421   9.276 -0.4984  1.1600 -0.6020
  101OSM   H16T10180   2.471   6.270   9.307  1.2799  0.1333  0.2889
  101OSM   C17S10181   2.491   6.338   9.099  0.0320 -0.0163 -0.2025
  101OSM   H17S10182   2.486   6.431   9.038 -0.6490  0.0098 -0.1186
  101OSM   H17T10183   2.403   6.284   9.060  1.5971 -2.2083 -0.8671
  101OSM   C18S10184   2.615   6.261   9.067 -0.1689  0.0569 -0.1666
  101OSM   H18S10185   2.601   6.159   9.109 -0.1678  0.4583  0.8207
  101OSM   H18T10186   2.705   6.317   9.099  0.0378  0.1583 -0.9016
  101OSM   H18U10187   2.632   6.254   8.957 -0.2903 -0.0410 -0.1788
  101OSM    C1F10188   2.526   6.172  10.455  0.2927  0.8199 -0.2801
  101OSM     OF10189   2.436   6.169  10.539  0.7094  0.5323 -1.0207
  101OSM    C2F10190   2.507   6.100  10.333  0.8775 -0.4431 -0.0355
  101OSM    H2F10191   2.413   6.041  10.335 -0.9762  2.1797 -2.6178
  101OSM    H2G10192   2.588   6.024  10.325  1.3063  0.0624 -0.5004
  101OSM    C3F10193   2.502   6.196  10.211  0.7612  0.4691 -0.1277
  101OSM    H3F10194   2.591   6.263  10.206 -0.1966  1.8652  0.6600
  101OSM    H3G10195   2.419   6.268  10.227 -0.9964 -1.2807 -0.9233
  101OSM    C4F10196   2.475   6.120  10.077 -0.4713  0.3006  0.3479
  101OSM    H4F10197   2.368   6.094  10.064 -0.1842 -0.0294 -1.8190
  101OSM    H4G10198   2.525   6.020  10.080 -1.4386 -0.2836 -1.4103
  101OSM    C5F10199   2.532   6.207   9.966 -0.7187 -0.1111  0.3390
  101OSM    H5F10200   2.635   6.233   9.999 -0.8767 -1.5316  2.1329
  101OSM    H5G10201   2.461   6.291   9.951 -0.9799 -0.3282  0.3526
  101OSM    C6F10202   2.542   6.139   9.826  0.0916  0.2053  0.0230
  101OSM    H6F10203   2.442   6.103   9.796  0.1324  1.0863 -1.2567
  101OSM    H6G10204   2.567   6.221   9.755  2.5706  0.6241  1.2448
  101OSM    C7F10205   2.652   6.032   9.797  0.1798  0.6125 -0.3367
  101OSM    H7F10206   2.660   5.959   9.881 -1.1111 -2.4967 -2.6893
  101OSM    H7G10207   2.745   6.090   9.816 -0.4196  1.4979 -0.0651
  101OSM    C8F10208   2.652   5.975   9.655 -0.3368  0.7838 -0.1343
  101OSM    H8F10209   2.673   6.055   9.581  0.3435 -0.7803 -1.6853
  101OSM    H8G10210   2.561   5.918   9.630 -0.4980  1.0380 -0.1320
  101OSM    C9F10211   2.771   5.882   9.638  0.4893 -0.0151 -0.3819
  101OSM    H9F10212   2.823   5.849   9.730 -0.8581  3.2346  1.7186
  101OSM   C10F10213   2.828   5.842   9.523  0.7107 -0.3124  0.6747
  101OSM   H10F10214   2.922   5.785   9.530  0.2076 -1.2779 -0.1312
  101OSM   C11F10215   2.772   5.874   9.390 -0.4600 -0.4558 -0.3597
  101OSM   H11F10216   2.825   5.954   9.335 -1.3414 -0.3592 -1.1032
  101OSM   H11G10217   2.668   5.910   9.404  0.0835  0.9021  0.3594
  101OSM   C12F10218   2.755   5.753   9.299  0.8366 -0.0391  0.4748
  101OSM   H12F10219   2.705   5.674   9.360 -0.3099  0.2839 -0.0260
  101OSM   H12G10220   2.851   5.719   9.254  0.3509 -0.2065 -0.4518
  101OSM   C13F10221   2.664   5.763   9.172  0.4116  0.4678  0.1718
  101OSM   H13F10222   2.567   5.795   9.216  1.0510 -0.4126  2.3536
  101OSM   H13G10223   2.646   5.663   9.127  0.2168  1.8116 -3.0483
  101OSM   C14F10224   2.718   5.863   9.072 -0.0358  0.2226 -0.2167
  101OSM   H14F10225   2.819   5.837   9.033  0.6759  1.8228  0.4604
  101OSM   H14G10226   2.733   5.955   9.131  0.6235  0.1446 -0.2518
  101OSM   C15F10227   2.634   5.900   8.953 -0.1401 -0.2108 -0.1080
  101OSM   H15F10228   2.701   5.953   8.881  0.2583  0.7005  0.9083
  101OSM   H15G10229   2.555   5.972   8.982  0.9389  1.1795 -0.5243
  101OSM   C16F10230   2.575   5.783   8.873 -0.5553  0.2148  0.3061
  101OSM   H16F10231   2.495   5.720   8.918 -1.0475 -1.1780 -2.2733
  101OSM   H16G10232   2.654   5.708   8.850 -0.4595 -0.3110  2.1764
  101OSM   C17F10233   2.501   5.827   8.748  0.2967 -0.1259  0.6446
  101OSM   H17F10234   2.576   5.866   8.676  0.6143 -0.7857  0.6102
  101OSM   H17G10235   2.448   5.916   8.787  0.4808  0.1453  0.2894
  101OSM   C18F10236   2.407   5.719   8.692  0.6761  0.1125  0.2581
  101OSM   H18F10237   2.306   5.719   8.738  1.6922 -3.5378  2.9723
  101OSM   H18G10238   2.450   5.624   8.729 -0.2896 -0.1918  0.6347
  101OSM   H18H10239   2.406   5.725   8.581  2.3640  0.6790  0.2512
  102OSM      N10240   4.583   0.594  10.919 -0.2337  0.0159 -0.0669
  102OSM    C1510241   4.469   0.628  10.998  0.5241 -0.4579 -0.7078
  102OSM   H15A10242   4.381   0.566  10.986 -0.3284  0.9420 -2.0166
  102OSM   H15B10243   4.443   0.731  10.979  0.4020 -0.1761  0.8864
  102OSM   H15C10244   4.498   0.615  11.101 -0.9952  2.5645  0.1958
  102OSM    C1410245   4.619   0.449  10.947 -0.2405 -0.5378  0.9758
  102OSM   H14A10246   4.533   0.386  10.930 -0.5103  0.3702 -1.2644
  102OSM   H14B10247   4.655   0.434  11.048 -2.0966 -1.3480  1.5765
  102OSM   H14C10248   4.684   0.415  10.868 -1.8342 -0.3864 -0.4683
  102OSM    C1310249   4.553   0.606  10.772  0.4889  0.4817 -0.1302
  102OSM   H13A10250   4.474   0.534  10.757  1.3168 -0.6774  0.9300
  102OSM   H13B10251   4.635   0.583  10.706 -1.9972 -2.1042 -2.5588
  102OSM   H13C10252   4.517   0.702  10.737  2.4767  0.2411 -3.2822
  102OSM    C1210253   4.698   0.684  10.960 -0.5834  0.2616  0.7909
  102OSM   H12A10254   4.709   0.667  11.066 -0.2925 -0.7205  0.6217
  102OSM   H12B10255   4.675   0.788  10.945 -1.1868 -0.0748 -0.8905
  102OSM    C1110256   4.833   0.644  10.901 -0.1416  1.0341 -0.1286
  102OSM   H11A10257   4.849   0.539  10.933 -2.2882  0.7800  0.2191
  102OSM   H11B10258   4.911   0.704  10.953  0.1514 -0.7566  1.6025
  102OSM      P10259   4.839   0.794  10.690 -0.2714 -0.0710 -0.2596
  102OSM    O1310260   4.759   0.778  10.567  0.6543 -0.0677  0.6672
  102OSM    O1410261   4.812   0.904  10.793  0.1459  0.0735 -0.2843
  102OSM    O1110262   4.982   0.823  10.642  0.2586 -0.5561 -0.6690
  102OSM    O1210263   4.838   0.648  10.759 -0.4798 -0.7877 -0.4139
  102OSM    C1S10264   5.053   0.772  10.528 -0.0443  0.1857 -1.0509
  102OSM    H1S10265   4.988   0.690  10.490 -0.3864 -0.3793  0.6829
  102OSM    H1T10266   5.143   0.714  10.559 -0.2035  1.0125  1.1327
  102OSM     NF10267   5.175   0.814  10.318 -0.2757 -0.7308 -0.0945
  102OSM    HNF10268   5.271   0.800  10.341 -0.1385  0.4382  0.1211
  102OSM    C2S10269   5.101   0.882  10.432 -0.8237 -0.1037  0.1467
  102OSM    H2S10270   5.013   0.936  10.392 -0.6510 -0.3891 -0.6429
  102OSM    C3S10271   5.184   0.989  10.513  0.5148  0.0812 -0.4181
  102OSM    H3S10272   5.273   0.935  10.552  0.6527 -0.2465 -1.1684
  102OSM     O310273   5.122   1.048  10.629  0.4298 -0.5686  0.3410
  102OSM    HO310274   5.048   0.992  10.651 -0.8751  1.0125  0.1653
  102OSM    C4S10275   5.243   1.089  10.420 -0.3477  0.1706 -0.3229
  102OSM    H4S10276   5.348   1.065  10.396 -1.0111 -2.0438 -1.1901
  102OSM    C5S10277   5.187   1.195  10.363  1.1696 -0.2263 -0.4732
  102OSM    H5S10278   5.077   1.206  10.365  1.1306 -0.5322  1.5477
  102OSM    C6S10279   5.260   1.281  10.266 -0.3877  0.6127 -0.3377
  102OSM    H6S10280   5.367   1.256  10.251 -1.0798 -2.5865 -0.7356
  102OSM    H6T10281   5.248   1.378  10.319 -0.0622  1.0038 -0.9779
  102OSM    C7S10282   5.197   1.272  10.124  0.0407  0.6760  0.4741
  102OSM    H7S10283   5.091   1.304  10.127 -0.5879 -1.2759  1.5391
  102OSM    H7T10284   5.186   1.166  10.091 -2.0142  0.8026  0.6332
  102OSM    C8S10285   5.282   1.363  10.027 -0.2397 -0.0237  0.4565
  102OSM    H8S10286   5.392   1.368  10.041 -0.0566  1.7857 -1.3041
  102OSM    H8T10287   5.240   1.466  10.029 -0.4746 -0.0997 -0.3111
  102OSM    C9S10288   5.253   1.327   9.877 -0.1581  0.0847  0.0884
  102OSM    H9S10289   5.151   1.361   9.851 -0.1841 -0.1902 -0.1730
  102OSM    H9T10290   5.246   1.216   9.866 -0.8984  0.1482 -0.1568
  102OSM   C10S10291   5.342   1.381   9.772  0.0034  0.0164 -0.9849
  102OSM   H10S10292   5.446   1.348   9.794  0.3542 -0.6103 -3.2657
  102OSM   H10T10293   5.341   1.492   9.769 -0.6159  0.0037 -1.5076
  102OSM   C11S10294   5.316   1.335   9.631  0.4060  0.6773  0.3351
  102OSM   H11S10295   5.209   1.341   9.603  0.6022 -0.0421 -0.6506
  102OSM   H11T10296   5.342   1.227   9.625  1.6025  1.0498 -2.1830
  102OSM   C12S10297   5.413   1.396   9.532  0.3785 -0.4502  0.4003
  102OSM   H12S10298   5.515   1.360   9.558  0.6032 -0.6927 -0.7633
  102OSM   H12T10299   5.411   1.507   9.533 -1.5970 -0.4303 -0.4480
  102OSM   C13S10300   5.395   1.326   9.393  0.4775  0.0697 -0.5388
  102OSM   H13S10301   5.294   1.345   9.352 -0.8757 -0.8207  2.1943
  102OSM   H13T10302   5.403   1.215   9.400  0.5251  0.0726 -0.5400
  102OSM   C14S10303   5.503   1.369   9.292  0.3423  0.2963 -0.0608
  102OSM   H14S10304   5.505   1.315   9.195 -0.0774 -0.2070  0.2075
  102OSM   H14T10305   5.604   1.344   9.332  1.1458  0.3459 -1.9338
  102OSM   C15S10306   5.515   1.517   9.270 -0.6543  0.6198 -0.1759
  102OSM   H15S10307   5.565   1.559   9.360  0.4293  1.7060 -1.2427
  102OSM   H15T10308   5.414   1.564   9.267  0.1724  2.4626 -1.3869
  102OSM   C16S10309   5.594   1.544   9.148 -0.0175 -0.7779  0.7152
  102OSM   H16S10310   5.545   1.485   9.068  0.5599 -1.2003  0.6631
  102OSM   H16T10311   5.699   1.509   9.157  0.1791 -0.8257 -1.3405
  102OSM   C17S10312   5.578   1.693   9.117  0.1506  0.6108  0.8841
  102OSM   H17S10313   5.627   1.753   9.196 -0.4295  0.2093  1.5542
  102OSM   H17T10314   5.469   1.712   9.121 -0.1186 -0.6919  0.3232
  102OSM   C18S10315   5.645   1.741   8.978  0.3922  0.6496  0.3893
  102OSM   H18S10316   5.753   1.755   8.999  0.3188  1.1301  0.4609
  102OSM   H18T10317   5.593   1.834   8.947 -2.4591 -1.2730 -1.0725
  102OSM   H18U10318   5.624   1.668   8.897 -3.7566  0.4589  1.3629
  102OSM    C1F10319   5.115   0.748  10.218 -0.1586 -0.8390  0.0817
  102OSM     OF10320   4.990   0.739  10.216  0.1363  0.5545 -0.5509
  102OSM    C2F10321   5.201   0.690  10.109 -0.4501  0.5090 -0.1848
  102OSM    H2F10322   5.292   0.647  10.158 -2.1769 -2.1902  0.8753
  102OSM    H2G10323   5.223   0.778  10.045  0.4077  0.3513 -0.1283
  102OSM    C3F10324   5.120   0.571  10.044 -0.3502 -0.3014 -0.7204
  102OSM    H3F10325   5.020   0.605  10.009 -0.0464  1.9452  0.4276
  102OSM    H3G10326   5.104   0.482  10.109 -1.8671 -1.1053 -2.0969
  102OSM    C4F10327   5.195   0.505   9.925 -0.3269 -0.4909  0.3139
  102OSM    H4F10328   5.265   0.426   9.961  1.0993  0.4226 -0.3577
  102OSM    H4G10329   5.259   0.577   9.870 -3.1558  1.9082 -0.0811
  102OSM    C5F10330   5.089   0.457   9.817 -0.7734  0.0546  0.6658
  102OSM    H5F10331   5.027   0.545   9.792  1.6906  1.7590  0.1945
  102OSM    H5G10332   5.023   0.381   9.865 -0.7599 -0.3749  0.0177
  102OSM    C6F10333   5.161   0.426   9.685 -0.8560 -0.5671 -0.6624
  102OSM    H6F10334   5.216   0.333   9.711  0.4485  0.5111  0.6548
  102OSM    H6G10335   5.237   0.502   9.656  0.0460 -0.8298  0.8932
  102OSM    C7F10336   5.056   0.415   9.579 -0.4463  0.0268  0.4077
  102OSM    H7F10337   5.009   0.515   9.568 -1.1026 -0.1819  1.2428
  102OSM    H7G10338   4.985   0.338   9.616  2.6040 -1.9352  2.6990
  102OSM    C8F10339   5.132   0.372   9.449  0.6089 -0.6719 -0.0371
  102OSM    H8F10340   5.217   0.307   9.479  0.5745 -0.4482  0.5385
  102OSM    H8G10341   5.174   0.462   9.399 -1.6222 -0.7301 -2.2719
  102OSM    C9F10342   5.042   0.293   9.356  0.8630  0.6419  0.0046
  102OSM    H9F10343   5.001   0.202   9.402  0.7753  0.5433 -0.2637
  102OSM   C10F10344   5.024   0.316   9.227  0.2826  0.7524  0.2577
  102OSM   H10F10345   4.955   0.244   9.180 -1.8405  2.3770  0.7234
  102OSM   C11F10346   5.078   0.422   9.137 -0.7568  0.0309 -0.8191
  102OSM   H11F10347   5.137   0.509   9.174  1.1101 -1.7648  0.6644
  102OSM   H11G10348   4.990   0.475   9.092 -1.3438 -1.3778 -1.3753
  102OSM   C12F10349   5.161   0.354   9.027 -0.0441 -0.3543  0.2186
  102OSM   H12F10350   5.248   0.299   9.070  1.1453  0.0775 -1.4744
  102OSM   H12G10351   5.202   0.442   8.972 -0.5532  0.9319  1.8415
  102OSM   C13F10352   5.082   0.253   8.940 -0.2555  0.6583  0.7390
  102OSM   H13F10353   4.992   0.311   8.910  1.0290  1.4323 -1.8978
  102OSM   H13G10354   5.060   0.165   9.005  0.3434  0.9201  1.3057
  102OSM   C14F10355   5.159   0.211   8.815 -0.8885 -0.3226  0.0622
  102OSM   H14F10356   5.244   0.146   8.842 -0.7628 -1.6091 -3.0302
  102OSM   H14G10357   5.205   0.303   8.774  0.4564  0.1795  2.5093
  102OSM   C15F10358   5.081   0.131   8.709 -0.1550 -0.1148  0.1804
  102OSM   H15F10359   5.051   0.216   8.644  0.5970  0.5113  0.6327
  102OSM   H15G10360   4.986   0.084   8.740 -1.4751  2.5703  0.4121
  102OSM   C16F10361   5.167   0.017   8.644  0.5822 -0.5009  0.1608
  102OSM   H16F10362   5.187  -0.054   8.727 -2.3889 -0.4301  1.0505
  102OSM   H16G10363   5.268   0.061   8.625  1.0303 -0.6090  2.0165
  102OSM   C17F10364   5.100  -0.048   8.526  0.1704 -0.0628 -0.1663
  102OSM   H17F10365   5.042   0.029   8.470  0.1040 -0.5910 -0.8485
  102OSM   H17G10366   5.024  -0.125   8.553 -0.3617 -0.1652 -1.7958
  102OSM   C18F10367   5.198  -0.112   8.425  0.1472 -0.0766 -0.0433
  102OSM   H18F10368   5.131  -0.119   8.337 -0.0740  0.2152  0.0968
  102OSM   H18G10369   5.247  -0.208   8.451  1.4595  0.2135 -1.3222
  102OSM   H18H10370   5.277  -0.037   8.401  1.8404 -1.2986  1.5001
  103OSM      N10371   3.754   0.312  10.758  0.9391 -0.2697 -0.0694
  103OSM    C1510372   3.674   0.289  10.884 -0.6268 -0.4713  0.6135
  103OSM   H15A10373   3.729   0.221  10.949 -1.7951 -1.8361  0.2243
  103OSM   H15B10374   3.578   0.242  10.871 -0.9198 -0.0709  1.2420
  103OSM   H15C10375   3.657   0.384  10.933  0.8444  1.1696 -1.8576
  103OSM    C1410376   3.665   0.388  10.665 -0.1847 -0.3939  0.0414
  103OSM   H14A10377   3.617   0.312  10.605 -2.8726 -2.7410  4.5960
  103OSM   H14B10378   3.721   0.452  10.599 -2.4245  3.1003  1.2531
  103OSM   H14C10379   3.601   0.460  10.713 -2.1098 -0.6056 -2.0418
  103OSM    C1310380   3.867   0.404  10.790  0.0453 -0.1427 -0.6608
  103OSM   H13A10381   3.928   0.357  10.866  0.7014 -1.7197 -2.0911
  103OSM   H13B10382   3.838   0.498  10.835  2.5471  0.2178  0.4022
  103OSM   H13C10383   3.932   0.422  10.706  1.0620 -0.1964  0.0943
  103OSM    C1210384   3.788   0.185  10.682 -0.0631 -0.5450 -0.4522
  103OSM   H12A10385   3.845   0.206  10.593  1.7564 -1.4511  0.4422
  103OSM   H12B10386   3.694   0.159  10.637 -0.9888  0.0720  1.0359
  103OSM    C1110387   3.864   0.073  10.761  0.3538  0.0367 -0.1722
  103OSM   H11A10388   3.960   0.115  10.798  1.1733  0.5425 -2.7334
  103OSM   H11B10389   3.878  -0.010  10.689  0.7309  0.5289 -0.6635
  103OSM      P10390   3.668  -0.062  10.883 -0.0397  0.3435  0.0915
  103OSM    O1310391   3.660  -0.120  11.018 -0.1524 -0.1380  0.5037
  103OSM    O1410392   3.554   0.024  10.848 -0.2821  0.3759  0.3772
  103OSM    O1110393   3.692  -0.168  10.768 -0.5364 -0.3796 -0.3008
  103OSM    O1210394   3.799   0.031  10.884 -0.5518  0.0226  0.7504
  103OSM    C1S10395   3.651  -0.150  10.635  0.1034 -0.1229 -0.0740
  103OSM    H1S10396   3.706  -0.067  10.585 -1.6040  1.2189  0.1888
  103OSM    H1T10397   3.548  -0.112  10.646 -0.2512 -1.3936  1.2391
  103OSM     NF10398   3.621  -0.263  10.416  0.8763 -0.2616 -0.6509
  103OSM    HNF10399   3.525  -0.279  10.394  1.4969 -1.0415 -3.0159
  103OSM    C2S10400   3.662  -0.278  10.551  0.6239  0.3776 -0.8270
  103OSM    H2S10401   3.765  -0.319  10.552  0.1403 -1.2596 -3.6367
  103OSM    C3S10402   3.574  -0.390  10.630  0.3859  0.8811 -0.8226
  103OSM    H3S10403   3.467  -0.360  10.637  0.0356 -0.4261 -0.1221
  103OSM     O310404   3.597  -0.434  10.762 -0.8383  0.4188 -0.0692
  103OSM    HO310405   3.672  -0.379  10.787 -0.0078 -0.5524 -0.3592
  103OSM    C4S10406   3.568  -0.515  10.546 -0.1084  0.0226  0.2877
  103OSM    H4S10407   3.665  -0.547  10.506  0.1543  1.0150  0.1202
  103OSM    C5S10408   3.459  -0.579  10.491 -0.3802 -0.0853 -0.1888
  103OSM    H5S10409   3.354  -0.546  10.497 -0.3190  0.6848 -2.4545
  103OSM    C6S10410   3.476  -0.710  10.411 -0.4377  0.3927 -0.6882
  103OSM    H6S10411   3.399  -0.790  10.418  1.6710 -1.8796 -1.8073
  103OSM    H6T10412   3.568  -0.758  10.452 -1.2651 -2.0049 -1.4501
  103OSM    C7S10413   3.488  -0.688  10.261  0.3186  0.1642  1.2311
  103OSM    H7S10414   3.397  -0.637  10.223  0.5868 -0.3903 -0.2554
  103OSM    H7T10415   3.483  -0.786  10.209  1.6101  1.8823 -2.5372
  103OSM    C8S10416   3.618  -0.620  10.228 -0.0413 -0.3155  0.8869
  103OSM    H8S10417   3.695  -0.672  10.290  1.1774  0.0768 -0.2603
  103OSM    H8T10418   3.610  -0.513  10.255 -2.4142 -0.4747  0.9954
  103OSM    C9S10419   3.658  -0.609  10.081 -0.1041  1.2489 -0.4179
  103OSM    H9S10420   3.691  -0.708  10.045 -2.8836  0.3083 -0.6061
  103OSM    H9T10421   3.746  -0.541  10.082  0.8803  0.0329  1.2420
  103OSM   C10S10422   3.550  -0.564   9.988  0.3569 -0.8020  0.2514
  103OSM   H10S10423   3.517  -0.467  10.030  1.7929 -0.0318 -0.3452
  103OSM   H10T10424   3.463  -0.633   9.983 -0.5404  0.3320 -0.2662
  103OSM   C11S10425   3.607  -0.541   9.840 -0.0382  0.1560 -0.2211
  103OSM   H11S10426   3.628  -0.643   9.800 -0.6172 -0.4558  0.9825
  103OSM   H11T10427   3.706  -0.490   9.844  0.0507 -0.0388  0.2211
  103OSM   C12S10428   3.508  -0.464   9.754  0.3859  0.9006 -0.7974
  103OSM   H12S10429   3.470  -0.375   9.809 -1.5209 -0.1483 -0.3439
  103OSM   H12T10430   3.422  -0.528   9.728  1.4955 -0.6927 -0.6661
  103OSM   C13S10431   3.565  -0.416   9.619 -0.3192  0.0124  0.4025
  103OSM   H13S10432   3.668  -0.377   9.633 -0.0793 -0.4849  0.0632
  103OSM   H13T10433   3.502  -0.327   9.597 -0.9734  0.1046  2.4541
  103OSM   C14S10434   3.537  -0.519   9.503  0.6942 -0.5412 -0.5338
  103OSM   H14S10435   3.428  -0.538   9.496  0.5716 -0.2594  0.5696
  103OSM   H14T10436   3.583  -0.614   9.538  3.5120  1.4611  1.6695
  103OSM   C15S10437   3.592  -0.469   9.372  0.2466 -0.3490  0.2414
  103OSM   H15S10438   3.689  -0.520   9.358  0.8719  0.5485  1.1754
  103OSM   H15T10439   3.610  -0.359   9.372  0.3984 -0.3739  0.1173
  103OSM   C16S10440   3.488  -0.501   9.257  0.1843 -0.3070 -0.7080
  103OSM   H16S10441   3.389  -0.460   9.287 -0.0491 -1.0578 -0.4186
  103OSM   H16T10442   3.469  -0.610   9.255  0.4030 -0.8467  5.7004
  103OSM   C17S10443   3.523  -0.443   9.121 -0.9121 -0.2524 -0.0833
  103OSM   H17S10444   3.539  -0.334   9.130  0.3191 -0.3394 -0.9985
  103OSM   H17T10445   3.432  -0.445   9.057  0.0563  2.8392 -1.7539
  103OSM   C18S10446   3.631  -0.515   9.040 -0.0260 -0.0228  0.4798
  103OSM   H18S10447   3.608  -0.623   9.049  0.9192 -0.3872 -1.0530
  103OSM   H18T10448   3.736  -0.492   9.070  0.7203 -0.3018 -1.7426
  103OSM   H18U10449   3.633  -0.479   8.935  1.9940 -0.6467  0.2478
  103OSM    C1F10450   3.688  -0.199  10.321 -0.3434 -0.5763 -0.8611
  103OSM     OF10451   3.806  -0.172  10.338  0.0725  0.0875 -0.6453
  103OSM    C2F10452   3.621  -0.195  10.182  0.3692  0.0849 -0.3276
  103OSM    H2F10453   3.516  -0.226  10.197  0.3622 -0.0234 -0.6021
  103OSM    H2G10454   3.685  -0.263  10.121 -1.4330  0.9515 -3.3982
  103OSM    C3F10455   3.632  -0.050  10.115  0.1884  0.6754  0.4292
  103OSM    H3F10456   3.738  -0.017  10.107  0.3833 -0.0956 -0.3092
  103OSM    H3G10457   3.576   0.021  10.179  0.8097  1.0863  0.5315
  103OSM    C4F10458   3.577  -0.034   9.976  0.2209  0.2179  0.2782
  103OSM    H4F10459   3.564   0.073   9.950  0.6538 -0.3697 -2.6575
  103OSM    H4G10460   3.475  -0.079   9.979 -0.7569  2.3258  0.4288
  103OSM    C5F10461   3.673  -0.103   9.862 -0.0165 -0.0241  0.2663
  103OSM    H5F10462   3.679  -0.214   9.869 -0.7840 -0.1993 -1.2043
  103OSM    H5G10463   3.775  -0.060   9.873  0.6082 -1.2769 -0.4313
  103OSM    C6F10464   3.624  -0.062   9.714  0.2898  0.3144  0.2403
  103OSM    H6F10465   3.514  -0.076   9.703  0.0743 -0.9259  3.0445
  103OSM    H6G10466   3.673  -0.144   9.657  0.0267 -0.6725  1.3725
  103OSM    C7F10467   3.664   0.077   9.648 -0.0048  0.1894 -0.3396
  103OSM    H7F10468   3.764   0.116   9.677  0.3494 -0.3878 -0.7710
  103OSM    H7G10469   3.584   0.149   9.677  1.5579  2.1629 -0.7759
  103OSM    C8F10470   3.677   0.080   9.497 -0.4894 -0.0189  0.3598
  103OSM    H8F10471   3.708  -0.022   9.465  0.5310 -0.4207  2.4241
  103OSM    H8G10472   3.758   0.149   9.465 -1.0022  1.2231  1.6448
  103OSM    C9F10473   3.547   0.127   9.436 -0.0769 -0.5597  0.1574
  103OSM    H9F10474   3.500   0.207   9.494 -2.6971 -2.6993  1.2070
  103OSM   C10F10475   3.472   0.059   9.343 -0.8656 -0.2297 -0.0005
  103OSM   H10F10476   3.369   0.090   9.319 -1.2446  0.2082  1.9953
  103OSM   C11F10477   3.518  -0.065   9.270 -0.4999  0.2905 -0.5877
  103OSM   H11F10478   3.464  -0.158   9.300  2.9261 -1.9970 -0.9171
  103OSM   H11G10479   3.620  -0.095   9.305 -0.4547 -1.5550 -2.1433
  103OSM   C12F10480   3.526  -0.055   9.113 -0.3652  0.9259  0.2838
  103OSM   H12F10481   3.426  -0.033   9.071  0.0780 -1.2948 -2.1475
  103OSM   H12G10482   3.557  -0.146   9.058  1.8560  1.1821  1.0069
  103OSM   C13F10483   3.629   0.046   9.062 -0.3742 -0.0158 -0.3607
  103OSM   H13F10484   3.733   0.016   9.087 -0.3239  0.5467  0.1437
  103OSM   H13G10485   3.613   0.143   9.114 -4.8151 -0.9201  0.3971
  103OSM   C14F10486   3.626   0.062   8.911  0.2183 -0.7714  0.0739
  103OSM   H14F10487   3.535   0.123   8.888  0.5739  0.3627  1.4829
  103OSM   H14G10488   3.628  -0.037   8.863 -0.5162 -1.9863  2.3736
  103OSM   C15F10489   3.753   0.134   8.876  0.9326 -0.2884  0.4784
  103OSM   H15F10490   3.838   0.067   8.901 -0.0735 -1.2598  1.4467
  103OSM   H15G10491   3.768   0.228   8.932  2.0075 -0.7772  1.0228
  103OSM   C16F10492   3.742   0.171   8.729 -0.2399  0.2006  0.4306
  103OSM   H16F10493   3.653   0.236   8.712 -1.0891 -1.2185 -0.7379
  103OSM   H16G10494   3.723   0.083   8.665  1.8701  0.6836 -0.9830
  103OSM   C17F10495   3.870   0.237   8.672 -0.4271 -0.3523 -0.3725
  103OSM   H17F10496   3.854   0.260   8.564 -4.0952  0.2715  0.1786
  103OSM   H17G10497   3.958   0.170   8.681 -0.6612 -0.5853  0.1901
  103OSM   C18F10498   3.898   0.369   8.743  0.2704 -1.4941 -0.5837
  103OSM   H18F10499   3.988   0.413   8.694  0.3272  0.2658  1.0131
  103OSM   H18G10500   3.912   0.353   8.852 -2.0049  0.2067  0.0181
  103OSM   H18H10501   3.810   0.436   8.738  0.7384 -0.7048  1.1977
  104OSM      N10502   5.719   5.866  10.839 -0.6455 -0.0452 -0.2011
  104OSM    C1510503   5.858   5.904  10.783  0.0128 -0.0558  0.7658
  104OSM   H15A10504   5.939   5.834  10.802  0.0087  0.4583  2.9654
  104OSM   H15B10505   5.886   6.001  10.822 -0.1854  2.4471 -4.4539
  104OSM   H15C10506   5.862   5.911  10.675  0.5421  1.2696  0.8583
  104OSM    C1410507   5.682   5.729  10.786 -1.0472 -0.8888  0.4166
  104OSM   H14A10508   5.703   5.718  10.681  1.0370  0.4526  0.6281
  104OSM   H14B10509   5.578   5.700  10.789 -1.7083  0.9193 -1.9320
  104OSM   H14C10510   5.750   5.664  10.840  0.6421 -0.5161 -1.1571
  104OSM    C1310511   5.726   5.860  10.994 -0.2046 -0.3114  0.2931
  104OSM   H13A10512   5.635   5.814  11.031 -0.9255  1.3416  0.6665
  104OSM   H13B10513   5.743   5.958  11.035  2.0149 -0.7983  0.6749
  104OSM   H13C10514   5.808   5.798  11.026  0.9870  2.0084  1.9892
  104OSM    C1210515   5.619   5.968  10.782 -0.2975  1.0999  0.7001
  104OSM   H12A10516   5.521   5.928  10.806 -0.6973  1.4425 -0.3164
  104OSM   H12B10517   5.615   5.955  10.675 -1.2711 -1.2118  0.9550
  104OSM    C1110518   5.634   6.113  10.816 -0.4900 -0.1942  0.2507
  104OSM   H11A10519   5.732   6.155  10.785 -0.1747 -1.8604 -1.1415
  104OSM   H11B10520   5.628   6.119  10.927  0.1468  1.0012  0.2382
  104OSM      P10521   5.385   6.193  10.815 -0.0870 -0.2987 -0.2132
  104OSM    O1310522   5.345   6.065  10.874  0.1935  0.3040  0.4027
  104OSM    O1410523   5.391   6.310  10.906  0.7035 -0.3078  0.1739
  104OSM    O1110524   5.283   6.222  10.700  0.1907  0.4268 -0.0792
  104OSM    O1210525   5.526   6.187  10.753 -0.3893 -0.0300  0.1983
  104OSM    C1S10526   5.316   6.211  10.564 -0.9699  0.1094 -0.3924
  104OSM    H1S10527   5.349   6.106  10.554  0.6795  0.6372 -0.7951
  104OSM    H1T10528   5.402   6.279  10.543  0.4359 -1.1775  0.9208
  104OSM     NF10529   5.250   6.199  10.332 -0.0229  0.5632 -0.5146
  104OSM    HNF10530   5.273   6.262  10.258  0.8795  0.6459 -0.1729
  104OSM    C2S10531   5.202   6.235  10.466  0.0032 -0.8300  0.4373
  104OSM    H2S10532   5.116   6.171  10.491 -0.2593 -0.1159  1.4369
  104OSM    C3S10533   5.149   6.386  10.487 -0.1244  0.3575  0.3169
  104OSM    H3S10534   5.222   6.460  10.449  0.3635  0.0470  0.6399
  104OSM     O310535   5.116   6.430  10.619 -0.0298 -0.5350 -0.0652
  104OSM    HO310536   5.160   6.364  10.673 -0.3777 -2.6070 -2.1614
  104OSM    C4S10537   5.030   6.395  10.399  0.4808  0.2128  0.5077
  104OSM    H4S10538   4.958   6.314  10.414 -1.1572  1.3660 -0.7481
  104OSM    C5S10539   5.019   6.476  10.292  0.7364 -0.4761 -0.5485
  104OSM    H5S10540   5.110   6.526  10.254 -0.3254 -0.4085 -3.2520
  104OSM    C6S10541   4.911   6.469  10.187 -0.5439  0.0145  0.4038
  104OSM    H6S10542   4.863   6.567  10.167 -0.9033 -0.2589 -0.1057
  104OSM    H6T10543   4.824   6.408  10.220 -1.0144  0.3638 -0.1694
  104OSM    C7S10544   4.971   6.405  10.055 -0.1722  0.4348 -0.8798
  104OSM    H7S10545   5.002   6.299  10.061 -2.1386 -0.1952 -0.9139
  104OSM    H7T10546   5.061   6.462  10.024  0.0970  0.4393 -0.1265
  104OSM    C8S10547   4.875   6.416   9.936  0.5940  0.3873 -0.4494
  104OSM    H8S10548   4.848   6.524   9.927 -1.3916 -0.1683 -1.7149
  104OSM    H8T10549   4.782   6.362   9.965  0.3775  0.8891 -0.1875
  104OSM    C9S10550   4.924   6.361   9.802  0.4384 -0.0187  0.2958
  104OSM    H9S10551   4.933   6.251   9.808 -0.4961 -0.3528 -2.5544
  104OSM    H9T10552   5.022   6.411   9.794  1.2662 -1.5121  0.8140
  104OSM   C10S10553   4.819   6.388   9.692 -0.3551 -0.1241  0.6742
  104OSM   H10S10554   4.780   6.492   9.691 -1.0001 -0.3570  0.8735
  104OSM   H10T10555   4.729   6.329   9.718 -1.1776  0.4287 -0.8097
  104OSM   C11S10556   4.855   6.374   9.543 -0.3514 -0.4100 -0.4325
  104OSM   H11S10557   4.888   6.269   9.530  2.1252  0.0702  1.2973
  104OSM   H11T10558   4.948   6.433   9.528 -0.0640 -0.3829  1.3009
  104OSM   C12S10559   4.748   6.415   9.446 -0.1952  0.3795  0.3061
  104OSM   H12S10560   4.726   6.522   9.467 -2.0671 -0.1635  1.3641
  104OSM   H12T10561   4.660   6.348   9.461  0.2135 -0.3294 -0.3881
  104OSM   C13S10562   4.796   6.394   9.300 -0.0879  0.6643  0.5121
  104OSM   H13S10563   4.844   6.294   9.292 -0.8610  0.2064  1.4149
  104OSM   H13T10564   4.880   6.465   9.285  1.3542 -0.9402  0.6348
  104OSM   C14S10565   4.674   6.402   9.205 -0.4051 -0.2385  0.2276
  104OSM   H14S10566   4.627   6.503   9.207  1.7854  0.8516 -0.0696
  104OSM   H14T10567   4.596   6.329   9.238 -3.4895  1.4183 -2.8152
  104OSM   C15S10568   4.696   6.375   9.053 -0.0224  1.0255  0.0649
  104OSM   H15S10569   4.765   6.455   9.015  0.3478 -0.2541 -2.1450
  104OSM   H15T10570   4.599   6.377   8.998  0.0572 -0.5092 -0.1625
  104OSM   C16S10571   4.764   6.234   9.020 -0.8584 -0.3195  0.2389
  104OSM   H16S10572   4.850   6.228   9.091  0.3810 -0.1371 -1.2089
  104OSM   H16T10573   4.800   6.249   8.916  3.6249 -1.0997  1.4714
  104OSM   C17S10574   4.673   6.116   9.042  0.1294 -0.9234  0.0963
  104OSM   H17S10575   4.574   6.135   8.995  0.4065 -0.9585 -0.5051
  104OSM   H17T10576   4.648   6.099   9.149 -0.0013 -1.3693 -0.0027
  104OSM   C18S10577   4.741   5.986   9.004  0.5059  0.5404  0.3224
  104OSM   H18S10578   4.841   5.974   9.052  1.6924 -0.4053 -2.1586
  104OSM   H18T10579   4.759   5.992   8.894  1.2304 -2.9466  0.1354
  104OSM   H18U10580   4.679   5.897   9.027 -0.5554  1.4979  1.2767
  104OSM    C1F10581   5.260   6.071  10.306 -0.1637  0.5699  0.3381
  104OSM     OF10582   5.226   5.980  10.387 -0.1585 -0.0739 -0.1177
  104OSM    C2F10583   5.312   6.042  10.170 -0.1124 -0.1932  0.5376
  104OSM    H2F10584   5.408   5.987  10.183  0.2187  0.3151  0.2752
  104OSM    H2G10585   5.339   6.134  10.113  1.7333 -1.0110 -0.0011
  104OSM    C3F10586   5.201   5.960  10.100  0.5945 -0.5148 -0.5474
  104OSM    H3F10587   5.100   6.006  10.094  0.5207 -0.5594  0.1800
  104OSM    H3G10588   5.198   5.861  10.150  1.1769 -0.5464 -0.5625
  104OSM    C4F10589   5.249   5.931   9.954 -0.6066 -0.1107 -0.2178
  104OSM    H4F10590   5.164   5.869   9.919 -0.2651 -0.8437  0.2238
  104OSM    H4G10591   5.343   5.872   9.956 -0.1435  0.5527 -1.3521
  104OSM    C5F10592   5.259   6.059   9.857  0.0074 -0.1695 -0.5247
  104OSM    H5F10593   5.357   6.106   9.879 -0.5992  0.9304 -0.1085
  104OSM    H5G10594   5.173   6.125   9.878 -0.1760 -0.9176  1.2961
  104OSM    C6F10595   5.249   6.016   9.710  0.8244  0.1826 -0.6518
  104OSM    H6F10596   5.319   5.932   9.692 -0.4571 -0.7677 -1.4382
  104OSM    H6G10597   5.280   6.102   9.647  0.1883  0.5981 -0.4080
  104OSM    C7F10598   5.110   5.966   9.673  0.3681 -0.2201 -0.1523
  104OSM    H7F10599   5.033   6.020   9.733  2.1092 -0.3231  2.3371
  104OSM    H7G10600   5.104   5.858   9.698 -0.1929  0.2109  1.7800
  104OSM    C8F10601   5.087   5.985   9.518 -1.0379 -0.6118 -0.3556
  104OSM    H8F10602   5.176   5.932   9.476 -0.1794  0.2017  0.3697
  104OSM    H8G10603   5.106   6.092   9.493  2.4858 -0.4565  2.1556
  104OSM    C9F10604   4.958   5.929   9.468  0.8927  0.0082 -0.7172
  104OSM    H9F10605   4.869   5.949   9.530  0.3648 -1.3279 -1.0109
  104OSM   C10F10606   4.938   5.888   9.339  0.0172 -0.1690  0.4168
  104OSM   H10F10607   4.842   5.838   9.320 -0.6880 -1.2271  5.2403
  104OSM   C11F10608   5.041   5.878   9.234 -0.2830 -0.7106  0.1710
  104OSM   H11F10609   5.144   5.877   9.277  0.1605  1.0405 -0.7580
  104OSM   H11G10610   5.032   5.972   9.176  2.2834 -0.6123 -0.2074
  104OSM   C12F10611   5.013   5.757   9.146 -0.0946  0.1905  0.5607
  104OSM   H12F10612   4.905   5.757   9.119 -0.7534  0.6805  3.0150
  104OSM   H12G10613   5.038   5.669   9.210 -0.1482 -0.3348 -0.1203
  104OSM   C13F10614   5.104   5.763   9.018  0.2682  0.1567  0.4807
  104OSM   H13F10615   5.178   5.845   9.022  0.2014  0.2355  0.1055
  104OSM   H13G10616   5.027   5.800   8.947 -0.5291  0.7768  1.6225
  104OSM   C14F10617   5.172   5.629   8.961 -0.4092 -0.2286 -1.1484
  104OSM   H14F10618   5.091   5.554   8.952 -0.0131 -0.8747  0.3814
  104OSM   H14G10619   5.251   5.601   9.034 -0.8739  0.5220 -0.3282
  104OSM   C15F10620   5.237   5.648   8.824 -0.3993 -0.7708 -0.7605
  104OSM   H15F10621   5.155   5.688   8.761  0.5613 -2.1384 -3.0175
  104OSM   H15G10622   5.266   5.549   8.781  1.0565 -1.0408  0.7437
  104OSM   C16F10623   5.350   5.753   8.825  0.5706 -0.4370 -0.5146
  104OSM   H16F10624   5.425   5.722   8.901  0.9597  1.1958 -0.1967
  104OSM   H16G10625   5.307   5.850   8.856 -0.1101 -0.5957 -0.9482
  104OSM   C17F10626   5.408   5.781   8.686  0.7554  0.0186 -0.6099
  104OSM   H17F10627   5.319   5.818   8.631 -1.5143 -4.5865 -0.5787
  104OSM   H17G10628   5.433   5.680   8.647 -1.1471 -1.2625  1.2720
  104OSM   C18F10629   5.517   5.883   8.689  0.0424  0.1605 -1.1289
  104OSM   H18F10630   5.545   5.920   8.588 -0.0349  2.9604 -0.2076
  104OSM   H18G10631   5.599   5.842   8.753  1.0102  2.1380 -1.0321
  104OSM   H18H10632   5.475   5.967   8.747 -2.1913 -3.0556  2.3950
  105OSM      N10633   2.087   0.066  10.928 -0.2230 -0.8913 -0.1651
  105OSM    C1510634   1.997   0.100  11.044 -0.3970  0.4746  0.0971
  105OSM   H15A10635   2.039   0.046  11.128 -0.1393 -0.9038 -0.8663
  105OSM   H15B10636   1.898   0.059  11.033 -0.2862  0.9176 -4.8837
  105OSM   H15C10637   1.986   0.206  11.058 -0.1988  0.4676  0.3077
  105OSM    C1410638   2.223   0.081  10.971 -0.0868 -0.6915  0.1648
  105OSM   H14A10639   2.255   0.025  11.058 -0.5006  0.4534  1.0798
  105OSM   H14B10640   2.248   0.181  11.004  1.2563 -0.4899 -1.3469
  105OSM   H14C10641   2.286   0.071  10.884 -0.4061 -0.2719 -0.1207
  105OSM    C1310642   2.058  -0.075  10.883  0.1984 -0.2738  0.0932
  105OSM   H13A10643   2.093  -0.152  10.951  0.8788  0.1506  0.2297
  105OSM   H13B10644   2.111  -0.085  10.789 -0.9945  2.8455 -1.0156
  105OSM   H13C10645   1.952  -0.095  10.875  0.6759 -3.6644  0.6768
  105OSM    C1210646   2.043   0.142  10.810 -0.0804 -0.4062  0.8759
  105OSM   H12A10647   1.949   0.101  10.776 -1.9279  3.2762  1.0962
  105OSM   H12B10648   2.111   0.134  10.726 -1.4741 -2.7899 -0.1452
  105OSM    C1110649   2.027   0.302  10.828  0.4476 -0.2409  1.1116
  105OSM   H11A10650   2.026   0.349  10.727  0.4314 -1.4790  0.5052
  105OSM   H11B10651   2.116   0.328  10.889  1.3172 -2.6302  0.9808
  105OSM      P10652   1.768   0.287  10.851 -0.2110  0.3930  0.3410
  105OSM    O1310653   1.734   0.160  10.914  0.0180 -0.4962 -0.2988
  105OSM    O1410654   1.666   0.397  10.868  0.9440  0.7454  0.0663
  105OSM    O1110655   1.781   0.243  10.697  0.3421  0.5385  0.5583
  105OSM    O1210656   1.911   0.341  10.899 -0.2485  0.7724  0.4209
  105OSM    C1S10657   1.777   0.350  10.595  0.2256  0.3920  0.4674
  105OSM    H1S10658   1.832   0.444  10.613  0.3171 -0.1958  3.7518
  105OSM    H1T10659   1.671   0.384  10.590 -0.4623 -1.2669  2.4294
  105OSM     NF10660   1.795   0.406  10.352 -0.1316 -0.4370  0.2334
  105OSM    HNF10661   1.710   0.405  10.300 -1.0438 -0.8778  1.6700
  105OSM    C2S10662   1.813   0.296  10.450  1.0825 -0.6624  0.1204
  105OSM    H2S10663   1.916   0.254  10.449  1.3115 -0.1036  0.0209
  105OSM    C3S10664   1.707   0.178  10.431 -0.4358  0.1664 -0.3307
  105OSM    H3S10665   1.604   0.213  10.455 -1.1506  0.0680 -2.9729
  105OSM     O310666   1.729   0.058  10.508 -0.3030  0.4373  0.4396
  105OSM    HO310667   1.796   0.093  10.567 -0.2020  1.6036 -0.3316
  105OSM    C4S10668   1.703   0.144  10.286 -0.1465 -0.0379  0.1974
  105OSM    H4S10669   1.619   0.191  10.232  0.5603  0.4655 -0.4962
  105OSM    C5S10670   1.782   0.072  10.209 -0.8231 -0.3462  0.5896
  105OSM    H5S10671   1.870   0.019  10.247 -0.1101 -0.5365 -1.2186
  105OSM    C6S10672   1.761   0.058  10.062  0.2508 -0.1715 -0.0212
  105OSM    H6S10673   1.682  -0.020  10.053 -1.9002  1.3119  3.5016
  105OSM    H6T10674   1.850   0.013  10.012 -0.5157 -0.1382 -1.4616
  105OSM    C7S10675   1.734   0.197   9.994  0.1759  0.3596 -0.2827
  105OSM    H7S10676   1.819   0.259  10.030  0.3548  0.4224 -0.8086
  105OSM    H7T10677   1.633   0.236  10.016  1.9456  4.1581  2.1648
  105OSM    C8S10678   1.733   0.191   9.843  0.3229 -0.1770  0.0525
  105OSM    H8S10679   1.640   0.141   9.808 -1.9604  2.1732  2.2805
  105OSM    H8T10680   1.822   0.127   9.826  0.5429  0.4584 -1.3893
  105OSM    C9S10681   1.731   0.329   9.789 -0.1086 -0.8379  0.1600
  105OSM    H9S10682   1.814   0.387   9.836  1.1426 -0.6322 -2.1689
  105OSM    H9T10683   1.639   0.390   9.803  0.8871  0.5509  0.9494
  105OSM   C10S10684   1.784   0.340   9.636  1.4298  0.8521 -0.0340
  105OSM   H10S10685   1.866   0.266   9.627  0.5000 -0.1477 -0.6172
  105OSM   H10T10686   1.804   0.448   9.625 -0.6002  1.0752 -2.5888
  105OSM   C11S10687   1.667   0.298   9.542  0.3514  0.1668  0.7619
  105OSM   H11S10688   1.579   0.363   9.555 -0.4302 -0.3484 -1.4640
  105OSM   H11T10689   1.635   0.194   9.565 -0.2775 -0.4601 -2.4217
  105OSM   C12S10690   1.710   0.304   9.394 -0.0972  0.1377  0.4048
  105OSM   H12S10691   1.737   0.409   9.371  0.4437 -0.2431 -0.7656
  105OSM   H12T10692   1.617   0.281   9.337 -0.1578 -0.2761  0.6600
  105OSM   C13S10693   1.823   0.212   9.355  0.8989 -0.4780  0.0763
  105OSM   H13S10694   1.802   0.112   9.399  0.1701 -0.6912 -0.7246
  105OSM   H13T10695   1.917   0.257   9.394  1.1469 -0.7374 -0.2235
  105OSM   C14S10696   1.824   0.198   9.197  0.7224 -0.2492  0.1416
  105OSM   H14S10697   1.921   0.149   9.173  1.2057  0.4476  0.6124
  105OSM   H14T10698   1.819   0.297   9.147  1.6724 -1.1444 -1.8264
  105OSM   C15S10699   1.710   0.107   9.141 -0.2660 -0.6053  0.0003
  105OSM   H15S10700   1.611   0.156   9.153  1.5467  3.5522 -0.3874
  105OSM   H15T10701   1.719   0.015   9.204 -1.5022 -0.0316  1.0558
  105OSM   C16S10702   1.721   0.061   8.989 -0.5128  1.2903  0.1115
  105OSM   H16S10703   1.827   0.033   8.970  0.3943  2.1129  3.3642
  105OSM   H16T10704   1.693   0.144   8.920  1.2883  0.5054 -1.6526
  105OSM   C17S10705   1.625  -0.054   8.962 -0.1744 -0.0833  0.1944
  105OSM   H17S10706   1.520  -0.027   8.987 -0.1092 -0.8554  1.3961
  105OSM   H17T10707   1.651  -0.139   9.028 -2.4297 -0.2923  0.9109
  105OSM   C18S10708   1.647  -0.088   8.813  0.2878 -0.0295  0.0933
  105OSM   H18S10709   1.633   0.005   8.753 -0.5341  0.3681  0.8791
  105OSM   H18T10710   1.584  -0.171   8.776 -1.6880  1.3451  0.2018
  105OSM   H18U10711   1.752  -0.112   8.785 -0.6130 -0.3170 -3.5098
  105OSM    C1F10712   1.878   0.514  10.353 -0.6736 -0.4399  0.0353
  105OSM     OF10713   1.981   0.509  10.420 -0.5237  0.3897  0.3788
  105OSM    C2F10714   1.845   0.632  10.269  0.8886  0.1449 -0.7192
  105OSM    H2F10715   1.815   0.713  10.339  1.3096  1.6831 -2.2569
  105OSM    H2G10716   1.754   0.616  10.207  1.7469 -1.5128 -1.6142
  105OSM    C3F10717   1.947   0.676  10.168 -0.1326 -0.8171 -0.8201
  105OSM    H3F10718   2.045   0.704  10.212  0.9366  0.2357 -3.6794
  105OSM    H3G10719   1.911   0.768  10.118 -0.2616 -0.4711 -0.1123
  105OSM    C4F10720   1.978   0.573  10.066  0.8906 -0.7692  0.0224
  105OSM    H4F10721   1.879   0.543  10.023  0.5292  0.0793  0.2510
  105OSM    H4G10722   2.024   0.479  10.103 -1.6170 -1.5144  1.5040
  105OSM    C5F10723   2.055   0.639   9.957 -0.2524  0.2303 -0.7500
  105OSM    H5F10724   2.145   0.695   9.992 -1.3425  1.4293  0.2493
  105OSM    H5G10725   1.994   0.720   9.910  0.0577 -0.9326 -3.3037
  105OSM    C6F10726   2.098   0.539   9.841  1.1394 -0.2103 -0.4482
  105OSM    H6F10727   2.011   0.497   9.787  0.6096  1.0596 -0.6062
  105OSM    H6G10728   2.154   0.462   9.899  2.7154  0.5778 -0.8591
  105OSM    C7F10729   2.188   0.615   9.733  0.4384 -0.1813 -0.2305
  105OSM    H7F10730   2.267   0.669   9.790 -0.0029 -1.3025  1.5448
  105OSM    H7G10731   2.122   0.687   9.681  0.6067 -0.7996 -1.3312
  105OSM    C8F10732   2.255   0.525   9.636 -0.1329  0.7294  0.2498
  105OSM    H8F10733   2.305   0.442   9.690 -0.6351 -0.1548 -0.5977
  105OSM    H8G10734   2.339   0.582   9.592 -1.0615  0.3414 -2.1914
  105OSM    C9F10735   2.164   0.477   9.520  0.1762 -0.4498 -0.3584
  105OSM    H9F10736   2.057   0.476   9.545  0.8953 -1.1710  3.1597
  105OSM   C10F10737   2.193   0.473   9.393 -0.9571 -0.3925 -0.0035
  105OSM   H10F10738   2.131   0.421   9.319  0.4411  0.6500 -2.0132
  105OSM   C11F10739   2.334   0.499   9.346  0.4411  0.3418  0.3293
  105OSM   H11F10740   2.398   0.422   9.394 -1.3941 -1.3256  0.2061
  105OSM   H11G10741   2.376   0.598   9.373  0.4068  0.5550 -0.3754
  105OSM   C12F10742   2.358   0.497   9.195 -0.1786  0.0826 -0.1215
  105OSM   H12F10743   2.463   0.531   9.185 -0.3169  0.4309 -0.4454
  105OSM   H12G10744   2.293   0.573   9.145  0.4644  0.7215 -0.0091
  105OSM   C13F10745   2.350   0.359   9.133  1.0476  0.5449  0.0284
  105OSM   H13F10746   2.252   0.312   9.158  0.1330  1.4343 -1.6196
  105OSM   H13G10747   2.425   0.295   9.182 -1.3083 -2.0144  0.5279
  105OSM   C14F10748   2.364   0.348   8.983  0.8497  0.0006 -0.0498
  105OSM   H14F10749   2.470   0.378   8.969  0.8154  1.9301  2.9702
  105OSM   H14G10750   2.292   0.414   8.928 -0.7319 -1.0188  0.7338
  105OSM   C15F10751   2.360   0.201   8.941 -0.4456 -0.4351 -0.2815
  105OSM   H15F10752   2.272   0.150   8.986 -0.6287  1.3030  1.4559
  105OSM   H15G10753   2.452   0.155   8.984  0.6583  2.6680  0.9748
  105OSM   C16F10754   2.369   0.185   8.791  0.1363 -0.1424  0.2262
  105OSM   H16F10755   2.394   0.078   8.775  0.8986 -0.0679  0.8570
  105OSM   H16G10756   2.455   0.243   8.753 -0.5383  2.0120  1.7736
  105OSM   C17F10757   2.247   0.219   8.702  0.0432 -0.0831  0.0326
  105OSM   H17F10758   2.200   0.312   8.741  0.2578 -0.0087  0.1182
  105OSM   H17G10759   2.174   0.139   8.729 -2.3250  2.0905  0.4580
  105OSM   C18F10760   2.267   0.237   8.558  0.1902 -0.0719 -0.5514
  105OSM   H18F10761   2.324   0.150   8.520 -0.0422 -0.5504  0.1741
  105OSM   H18G10762   2.327   0.325   8.525  1.0379 -0.7328 -0.8085
  105OSM   H18H10763   2.176   0.222   8.496  0.5052 -0.9971 -0.8065
  106OSM      N10764   0.595   2.265  10.717  0.2555 -0.1442  0.0491
  106OSM    C1510765   0.719   2.210  10.785 -0.0094  0.0078 -0.6233
  106OSM   H15A10766   0.699   2.131  10.855 -0.7461 -0.2903 -1.1537
  106OSM   H15B10767   0.764   2.297  10.830 -0.0204  0.0089 -0.6158
  106OSM   H15C10768   0.790   2.176  10.711  0.6737 -0.2265  0.1232
  106OSM    C1410769   0.513   2.332  10.817  0.0355  0.6472 -0.4159
  106OSM   H14A10770   0.421   2.351  10.763 -1.8571  1.0748  2.6978
  106OSM   H14B10771   0.556   2.425  10.850 -0.4022  0.8907 -0.5182
  106OSM   H14C10772   0.489   2.265  10.897 -0.2449  0.2977 -0.7900
  106OSM    C1310773   0.628   2.368  10.610  0.3791  0.9413 -0.3278
  106OSM   H13A10774   0.670   2.458  10.653  1.2205  0.4385 -0.0881
  106OSM   H13B10775   0.538   2.386  10.554  0.4109 -0.3817 -0.8296
  106OSM   H13C10776   0.699   2.325  10.542  0.3385 -1.4099  1.0258
  106OSM    C1210777   0.520   2.149  10.647  0.1680  0.5022  0.3700
  106OSM   H12A10778   0.511   2.071  10.721 -0.9566 -0.0543 -0.3339
  106OSM   H12B10779   0.589   2.102  10.579 -0.1664  0.5398  0.0031
  106OSM    C1110780   0.382   2.169  10.576 -0.3769 -0.3950 -0.3185
  106OSM   H11A10781   0.360   2.073  10.524  2.4102  0.2090 -2.8486
  106OSM   H11B10782   0.387   2.242  10.493  0.8241  0.6381  0.6264
  106OSM      P10783   0.197   2.121  10.762  0.5485  0.3639 -0.0745
  106OSM    O1310784   0.297   2.070  10.856 -0.1953 -0.5683 -0.2477
  106OSM    O1410785   0.083   2.199  10.814 -0.1159 -0.2844 -0.0849
  106OSM    O1110786   0.165   2.000  10.666 -0.0297  0.0773 -0.4507
  106OSM    O1210787   0.280   2.215  10.667 -0.5062  0.5980  0.5062
  106OSM    C1S10788   0.075   2.024  10.558  0.9261 -0.3006  0.0893
  106OSM    H1S10789   0.107   2.110  10.495  2.5459  0.0577  1.3061
  106OSM    H1T10790  -0.031   2.037  10.586  0.0879 -0.5796 -2.6765
  106OSM     NF10791   0.021   1.906  10.351  0.1416 -0.2806  0.4519
  106OSM    HNF10792  -0.070   1.883  10.319  1.3623 -2.4401 -1.7935
  106OSM    C2S10793   0.076   1.883  10.482 -0.0981  0.6760  0.7714
  106OSM    H2S10794   0.182   1.850  10.474  0.0371  1.3935 -0.8377
  106OSM    C3S10795  -0.014   1.783  10.561  0.5663 -0.1026  0.2565
  106OSM    H3S10796  -0.115   1.821  10.532  0.6572 -1.4439 -2.0443
  106OSM     O310797  -0.000   1.787  10.699  0.0698  0.0986 -0.0074
  106OSM    HO310798   0.071   1.849  10.718 -0.2800  0.4909  0.0384
  106OSM    C4S10799   0.005   1.644  10.500 -0.0751 -0.4140  0.5557
  106OSM    H4S10800   0.104   1.600  10.519  2.2747  2.8806 -2.6707
  106OSM    C5S10801  -0.087   1.578  10.428  0.2003  0.1152 -0.6672
  106OSM    H5S10802  -0.180   1.624  10.391 -0.0700  0.6557  0.6514
  106OSM    C6S10803  -0.064   1.443  10.375  0.9941  0.2841  1.2047
  106OSM    H6S10804  -0.137   1.379  10.429  0.4615 -2.2994 -2.2097
  106OSM    H6T10805   0.040   1.405  10.387  0.7271 -0.8493  0.1083
  106OSM    C7S10806  -0.107   1.424  10.225 -0.1972 -0.4289 -0.5610
  106OSM    H7S10807  -0.203   1.476  10.206  0.7122  0.6658 -2.4439
  106OSM    H7T10808  -0.113   1.314  10.213  0.6577 -0.7799  1.6465
  106OSM    C8S10809  -0.001   1.486  10.126 -0.5559 -0.2700  0.5725
  106OSM    H8S10810   0.098   1.438  10.141 -0.2428  0.2289  0.1988
  106OSM    H8T10811   0.018   1.594  10.146 -1.2804 -0.2020  0.8836
  106OSM    C9S10812  -0.044   1.471   9.982 -0.3776  0.1785 -0.0744
  106OSM    H9S10813  -0.139   1.526   9.969 -0.4557 -0.1235 -0.8478
  106OSM    H9T10814  -0.065   1.365   9.954  0.6735  0.1409 -0.7772
  106OSM   C10S10815   0.058   1.511   9.869  0.0858  0.0416  0.2481
  106OSM   H10S10816   0.146   1.447   9.890 -2.6533 -4.0441  0.6422
  106OSM   H10T10817   0.089   1.617   9.872 -0.4252  0.1875  0.4446
  106OSM   C11S10818  -0.001   1.474   9.730  0.2448  0.0489  0.5664
  106OSM   H11S10819  -0.055   1.377   9.737 -0.1940  0.3903  2.0708
  106OSM   H11T10820   0.081   1.461   9.655  0.3827  1.5043  0.4371
  106OSM   C12S10821  -0.108   1.572   9.684  0.4203  1.1019  0.6254
  106OSM   H12S10822  -0.098   1.672   9.730 -1.6749  1.3015  0.7466
  106OSM   H12T10823  -0.209   1.543   9.722  1.0999  1.2671  2.6664
  106OSM   C13S10824  -0.110   1.583   9.532 -0.2317 -0.0281 -0.5557
  106OSM   H13S10825  -0.127   1.483   9.487  0.0432 -0.7304  0.8364
  106OSM   H13T10826  -0.010   1.601   9.487  0.2066 -2.4191 -0.7029
  106OSM   C14S10827  -0.214   1.686   9.485 -0.8622  0.9657  0.0306
  106OSM   H14S10828  -0.210   1.779   9.546 -0.2302  1.0576 -0.1473
  106OSM   H14T10829  -0.313   1.636   9.490 -0.1409 -0.7813 -1.8531
  106OSM   C15S10830  -0.184   1.711   9.330  0.1725  0.2008 -0.5656
  106OSM   H15S10831  -0.077   1.738   9.317  0.5736 -0.7379  0.5221
  106OSM   H15T10832  -0.244   1.797   9.295 -3.9113 -0.9768  2.6365
  106OSM   C16S10833  -0.226   1.578   9.257  0.3545 -0.8162  0.3812
  106OSM   H16S10834  -0.325   1.546   9.295 -0.3539 -1.4787 -1.8303
  106OSM   H16T10835  -0.153   1.498   9.281  1.9801  0.2943 -0.5953
  106OSM   C17S10836  -0.219   1.588   9.098 -0.0263 -0.0314 -1.0783
  106OSM   H17S10837  -0.125   1.634   9.062  0.3678 -1.1546 -1.5290
  106OSM   H17T10838  -0.295   1.656   9.053  0.8841  2.4495  0.8608
  106OSM   C18S10839  -0.231   1.445   9.031  0.0285 -0.3898 -1.0918
  106OSM   H18S10840  -0.216   1.447   8.921  2.4908  1.6378 -0.8097
  106OSM   H18T10841  -0.324   1.393   9.063  0.2244  1.2321  2.5251
  106OSM   H18U10842  -0.144   1.396   9.079 -0.1460  0.6642  0.3534
  106OSM    C1F10843   0.096   1.977  10.258  0.4002  0.9167 -0.2295
  106OSM     OF10844   0.218   1.974  10.265  0.8065  0.2316 -0.6661
  106OSM    C2F10845   0.023   2.053  10.148 -0.2747 -0.0274 -0.1603
  106OSM    H2F10846  -0.010   2.151  10.190 -3.3529 -0.6503 -0.8686
  106OSM    H2G10847  -0.072   2.003  10.121  0.6542 -1.7450 -0.3783
  106OSM    C3F10848   0.110   2.082  10.021  0.0182 -0.5354  0.2542
  106OSM    H3F10849   0.202   2.135  10.054  0.4818 -1.1986  0.0601
  106OSM    H3G10850   0.047   2.150   9.961  0.1622  0.9822  1.7773
  106OSM    C4F10851   0.136   1.960   9.929  0.5454  0.5689  0.1219
  106OSM    H4F10852   0.034   1.923   9.903  0.6926 -1.3707  1.9713
  106OSM    H4G10853   0.176   1.879   9.994  0.3603  1.5425  1.4829
  106OSM    C5F10854   0.212   1.990   9.800 -0.1669  0.1412  0.7866
  106OSM    H5F10855   0.320   1.992   9.822  0.0923  0.4469 -0.4442
  106OSM    H5G10856   0.177   2.084   9.752 -0.8283 -0.5493 -0.1231
  106OSM    C6F10857   0.199   1.877   9.695  0.3440 -0.6219 -0.6642
  106OSM    H6F10858   0.091   1.885   9.667 -0.5688  0.5516  2.6645
  106OSM    H6G10859   0.212   1.775   9.738 -0.5824 -0.7999 -0.7681
  106OSM    C7F10860   0.278   1.908   9.570  0.0085  0.0144 -1.0266
  106OSM    H7F10861   0.389   1.905   9.576 -0.0380 -4.0415  0.8175
  106OSM    H7G10862   0.261   2.017   9.556 -2.8510 -0.1753  0.2468
  106OSM    C8F10863   0.248   1.807   9.450  0.8178 -0.0327 -0.2868
  106OSM    H8F10864   0.138   1.800   9.436  0.8051 -2.5485  0.4931
  106OSM    H8G10865   0.284   1.708   9.487 -2.2611 -0.8464  0.8450
  106OSM    C9F10866   0.314   1.866   9.328 -0.1111  0.5156  0.0591
  106OSM    H9F10867   0.324   1.975   9.329  3.7809  0.3399  2.4842
  106OSM   C10F10868   0.386   1.795   9.240  0.0429 -0.2825 -0.8411
  106OSM   H10F10869   0.418   1.838   9.144 -2.5304 -0.8470 -2.0457
  106OSM   C11F10870   0.411   1.648   9.251  0.1019 -1.0139  0.1551
  106OSM   H11F10871   0.407   1.614   9.357 -0.3535 -0.5912  0.2746
  106OSM   H11G10872   0.511   1.624   9.208  0.3034  0.6084 -0.3456
  106OSM   C12F10873   0.327   1.554   9.166 -0.0619 -0.7667 -0.5944
  106OSM   H12F10874   0.392   1.467   9.140 -2.5201 -2.1885 -2.4445
  106OSM   H12G10875   0.298   1.606   9.072 -0.8970  2.0694  1.1185
  106OSM   C13F10876   0.200   1.498   9.232 -0.1821 -0.5969  0.3711
  106OSM   H13F10877   0.127   1.582   9.236 -1.1511 -1.4439  1.0147
  106OSM   H13G10878   0.221   1.465   9.336  2.8258  1.8645  0.6965
  106OSM   C14F10879   0.123   1.389   9.153 -0.3135  0.3168  0.1474
  106OSM   H14F10880   0.081   1.422   9.056 -0.3901  0.0818  0.0999
  106OSM   H14G10881   0.035   1.373   9.220 -0.1189 -1.7457 -0.0300
  106OSM   C15F10882   0.199   1.259   9.137  0.0282  0.0381 -0.4758
  106OSM   H15F10883   0.248   1.228   9.232 -1.7026 -2.3766 -0.2772
  106OSM   H15G10884   0.286   1.274   9.069 -0.0361 -0.4092 -0.6582
  106OSM   C16F10885   0.126   1.147   9.052 -0.1175 -0.0242  0.4014
  106OSM   H16F10886   0.102   1.185   8.950 -1.1429  1.4205  1.1540
  106OSM   H16G10887   0.029   1.139   9.105  0.3781 -0.3570  1.2682
  106OSM   C17F10888   0.191   1.012   9.043 -0.9016 -0.3797  0.3897
  106OSM   H17F10889   0.129   0.944   8.980  0.9142 -1.3530 -0.4147
  106OSM   H17G10890   0.181   0.974   9.147 -1.0100 -2.1241 -0.2176
  106OSM   C18F10891   0.346   1.012   9.008  0.0803  0.4216 -0.2084
  106OSM   H18F10892   0.373   0.911   8.969 -1.4523 -0.5794  1.2017
  106OSM   H18G10893   0.407   1.032   9.099 -2.4942  2.1245  1.2828
  106OSM   H18H10894   0.354   1.078   8.919 -1.8446 -2.0140 -2.3707
  107OSM      N10895   3.272   5.528  10.869 -0.1925 -0.0943 -0.5691
  107OSM    C1510896   3.384   5.512  10.962 -0.0879 -0.0197 -0.9456
  107OSM   H15A10897   3.365   5.452  11.050  1.8834  3.1150  1.8716
  107OSM   H15B10898   3.429   5.605  10.993  1.0437 -0.5826 -0.8640
  107OSM   H15C10899   3.467   5.463  10.913 -1.2640 -3.4917  0.2271
  107OSM    C1410900   3.218   5.393  10.831 -0.3300 -0.1178  0.1679
  107OSM   H14A10901   3.155   5.412  10.746 -2.0323  2.5830  1.8765
  107OSM   H14B10902   3.157   5.351  10.910  1.1532 -0.5522  1.1302
  107OSM   H14C10903   3.299   5.328  10.801  0.9252  1.0637  0.8838
  107OSM    C1310904   3.158   5.606  10.937 -0.2663 -0.0006  0.0368
  107OSM   H13A10905   3.131   5.556  11.029  1.9502 -2.2816 -0.4182
  107OSM   H13B10906   3.073   5.610  10.871 -0.8793  2.1072  0.8867
  107OSM   H13C10907   3.187   5.708  10.954 -1.5875  0.0390  2.3524
  107OSM    C1210908   3.317   5.599  10.743 -0.3039  0.1725  0.5085
  107OSM   H12A10909   3.229   5.595  10.680 -1.1042  0.7350  1.5491
  107OSM   H12B10910   3.391   5.543  10.688 -0.7462 -0.8762  0.9532
  107OSM    C1110911   3.363   5.745  10.754 -0.7854 -0.1172  0.3560
  107OSM   H11A10912   3.279   5.799  10.805 -1.1065 -0.6773  0.4273
  107OSM   H11B10913   3.375   5.801  10.659 -0.3077  1.7715  1.4582
  107OSM      P10914   3.618   5.800  10.790 -0.1981  0.7140  0.0135
  107OSM    O1310915   3.639   5.945  10.799  0.3027  0.2033 -0.2389
  107OSM    O1410916   3.716   5.714  10.856 -0.5155  0.0104  0.0214
  107OSM    O1110917   3.605   5.765  10.636 -0.4181 -0.3398  0.2394
  107OSM    O1210918   3.477   5.762  10.839  0.3880  0.1608  0.0710
  107OSM    C1S10919   3.621   5.632  10.593 -0.3057  0.7404  0.4198
  107OSM    H1S10920   3.550   5.564  10.645 -1.2775  0.7337 -0.8684
  107OSM    H1T10921   3.724   5.602  10.621 -0.6772 -1.7195 -0.6072
  107OSM     NF10922   3.595   5.486  10.380 -0.4037 -0.0151  0.1545
  107OSM    HNF10923   3.670   5.441  10.334 -1.6431 -0.9274 -1.0504
  107OSM    C2S10924   3.608   5.623  10.431 -0.3184  0.6640 -0.8458
  107OSM    H2S10925   3.517   5.681  10.404 -1.3991 -0.7532 -0.3547
  107OSM    C3S10926   3.726   5.693  10.373 -0.1122 -0.3312 -0.0230
  107OSM    H3S10927   3.810   5.625  10.397 -0.3306 -0.8827 -0.7523
  107OSM     O310928   3.757   5.828  10.422 -0.1900  0.0745 -0.0748
  107OSM    HO310929   3.706   5.828  10.504  0.3109  0.3648  0.2393
  107OSM    C4S10930   3.727   5.687  10.220  0.3711 -0.3261  0.2851
  107OSM    H4S10931   3.798   5.613  10.179 -0.3459 -2.3544  2.4973
  107OSM    C5S10932   3.670   5.777  10.137  0.7309  0.2580  0.1820
  107OSM    H5S10933   3.622   5.868  10.177  1.2500  1.1725 -1.2111
  107OSM    C6S10934   3.681   5.776   9.983  0.0561 -0.0785 -0.2591
  107OSM    H6S10935   3.734   5.684   9.952  0.2028  0.7232 -2.5994
  107OSM    H6T10936   3.749   5.857   9.950  1.7647 -1.4237 -0.1554
  107OSM    C7S10937   3.543   5.793   9.915 -0.4929 -0.3655 -0.1043
  107OSM    H7S10938   3.491   5.886   9.946 -0.0855  0.4173 -1.6126
  107OSM    H7T10939   3.477   5.707   9.938 -1.1575  0.4630  1.1783
  107OSM    C8S10940   3.567   5.803   9.766 -0.2625  0.2768 -0.1066
  107OSM    H8S10941   3.615   5.708   9.735 -0.2227  0.2965 -0.1053
  107OSM    H8T10942   3.629   5.888   9.729 -0.8686  1.5108  1.5696
  107OSM    C9S10943   3.439   5.804   9.686 -0.0598 -0.5737 -0.2531
  107OSM    H9S10944   3.378   5.895   9.702 -1.4725 -1.0396 -2.5692
  107OSM    H9T10945   3.387   5.715   9.728 -0.4093  0.0501  0.6779
  107OSM   C10S10946   3.451   5.778   9.535 -0.5025  0.2656 -0.6926
  107OSM   H10S10947   3.350   5.761   9.492  0.3704 -1.7859 -2.0813
  107OSM   H10T10948   3.505   5.683   9.520  1.3785  0.9889  1.1125
  107OSM   C11S10949   3.515   5.891   9.451 -0.2895 -0.9160  0.9831
  107OSM   H11S10950   3.625   5.895   9.468 -0.1724  0.0838  0.0859
  107OSM   H11T10951   3.461   5.985   9.473 -0.0657 -0.6068  0.2347
  107OSM   C12S10952   3.496   5.866   9.300  0.0313  0.1432  0.2518
  107OSM   H12S10953   3.531   5.958   9.247  1.3289 -0.2321  0.4290
  107OSM   H12T10954   3.385   5.864   9.295  0.0326  0.2133  0.1968
  107OSM   C13S10955   3.558   5.738   9.236  0.2347 -0.5127  0.1086
  107OSM   H13S10956   3.522   5.652   9.296 -0.4939  0.0858  0.5433
  107OSM   H13T10957   3.669   5.746   9.245  0.4280 -0.1354 -2.0248
  107OSM   C14S10958   3.519   5.716   9.089 -0.8993  0.8459 -1.0356
  107OSM   H14S10959   3.565   5.798   9.030  3.8805 -0.8467 -0.0962
  107OSM   H14T10960   3.410   5.700   9.073 -0.7815  1.0949 -2.1936
  107OSM   C15S10961   3.586   5.588   9.029  0.3027  0.5945 -0.0719
  107OSM   H15S10962   3.544   5.504   9.089 -1.2454  0.2644 -1.5603
  107OSM   H15T10963   3.695   5.599   9.045  0.4145  1.3065 -1.2303
  107OSM   C16S10964   3.555   5.562   8.882 -0.0236  0.3937  0.0005
  107OSM   H16S10965   3.451   5.532   8.859  0.1220 -0.4336  0.3481
  107OSM   H16T10966   3.620   5.478   8.848  1.9698  2.0535 -0.5314
  107OSM   C17S10967   3.581   5.678   8.782 -0.3121  0.6825  0.6109
  107OSM   H17S10968   3.686   5.711   8.795  0.8247 -1.4833 -2.2253
  107OSM   H17T10969   3.508   5.759   8.805  0.1200  1.0227  0.8127
  107OSM   C18S10970   3.566   5.633   8.638  0.3773  0.3516 -0.0543
  107OSM   H18S10971   3.614   5.703   8.567  0.3712 -1.2798 -1.7602
  107OSM   H18T10972   3.462   5.621   8.601  0.6718 -4.4703  0.0401
  107OSM   H18U10973   3.608   5.531   8.622 -1.5580 -1.3931  4.3077
  107OSM    C1F10974   3.499   5.409  10.423  0.3915  0.5182  0.3847
  107OSM     OF10975   3.399   5.458  10.483 -0.2288  0.7356  0.8295
  107OSM    C2F10976   3.496   5.270  10.380  0.0790  0.3331  0.4475
  107OSM    H2F10977   3.568   5.215  10.446  0.3539  1.1874  0.8747
  107OSM    H2G10978   3.554   5.268  10.285 -0.6937  2.1606 -0.0882
  107OSM    C3F10979   3.357   5.195  10.364  0.8677  0.1636 -0.1337
  107OSM    H3F10980   3.290   5.270  10.316 -0.5892 -1.4523 -0.7369
  107OSM    H3G10981   3.309   5.186  10.464 -0.2326  1.1069 -0.5455
  107OSM    C4F10982   3.364   5.054  10.297  0.3676 -0.2029 -0.3849
  107OSM    H4F10983   3.373   4.970  10.370 -0.4422 -2.0210 -2.2921
  107OSM    H4G10984   3.448   5.058  10.224 -1.9391  2.6025 -3.1140
  107OSM    C5F10985   3.227   5.036  10.228  0.1776 -0.0978  0.0639
  107OSM    H5F10986   3.199   5.129  10.175 -0.6565 -0.3652  0.0183
  107OSM    H5G10987   3.145   5.019  10.301  1.3815  0.7983  1.6963
  107OSM    C6F10988   3.233   4.924  10.124  0.1332  0.2510  0.0525
  107OSM    H6F10989   3.321   4.923  10.056 -0.1453  1.7069 -0.3603
  107OSM    H6G10990   3.153   4.938  10.048 -0.0662  0.0872  0.2318
  107OSM    C7F10991   3.223   4.795  10.200  0.2463 -0.0861  0.1227
  107OSM    H7F10992   3.128   4.784  10.257  0.8873 -0.0689  1.2260
  107OSM    H7G10993   3.296   4.801  10.284  0.4449 -0.4931 -0.0164
  107OSM    C8F10994   3.250   4.662  10.129  0.2056  0.5625  0.4768
  107OSM    H8F10995   3.254   4.591  10.214 -0.5598  0.7294  0.6536
  107OSM    H8G10996   3.349   4.665  10.077 -0.0569 -0.7056 -0.1469
  107OSM    C9F10997   3.132   4.645  10.035 -0.5303 -0.2061  0.8335
  107OSM    H9F10998   3.037   4.625  10.087 -0.9217 -0.3834  0.0694
  107OSM   C10F10999   3.125   4.670   9.905 -0.2406 -0.2887 -0.4891
  107OSM   H10F11000   3.033   4.657   9.847 -1.1656 -0.9893  1.0603
  107OSM   C11F11001   3.230   4.729   9.821  0.3036 -0.6189  0.6624
  107OSM   H11F11002   3.269   4.652   9.751 -0.3497  1.1505 -1.8184
  107OSM   H11G11003   3.318   4.759   9.882  2.4335 -2.5843 -1.2095
  107OSM   C12F11004   3.182   4.846   9.728 -0.2474  0.9401  0.3766
  107OSM   H12F11005   3.138   4.917   9.802 -0.9856 -0.7564  1.6348
  107OSM   H12G11006   3.109   4.801   9.658  1.2192  2.7750 -2.5061
  107OSM   C13F11007   3.292   4.895   9.635  0.5027  0.0904  0.0378
  107OSM   H13F11008   3.327   4.807   9.578 -0.2344 -0.5706  0.5829
  107OSM   H13G11009   3.376   4.931   9.699 -0.2416 -0.1276  1.1663
  107OSM   C14F11010   3.243   4.997   9.534  0.2755  0.4281 -0.2127
  107OSM   H14F11011   3.246   5.094   9.588  1.0862  0.4611 -0.3050
  107OSM   H14G11012   3.138   4.972   9.509  0.5062 -2.6131  1.3393
  107OSM   C15F11013   3.331   5.009   9.409  0.4490 -0.2648 -0.4917
  107OSM   H15F11014   3.311   4.924   9.341 -1.1761 -1.3803  1.2943
  107OSM   H15G11015   3.431   4.995   9.455 -0.5067  1.9457  2.6129
  107OSM   C16F11016   3.316   5.147   9.339  0.2532  0.3442 -0.3674
  107OSM   H16F11017   3.315   5.230   9.413 -0.2062 -1.5205  1.8384
  107OSM   H16G11018   3.223   5.159   9.279  0.6506  2.4981 -0.6338
  107OSM   C17F11019   3.434   5.171   9.245 -0.0830  0.8262  0.6555
  107OSM   H17F11020   3.511   5.120   9.308  0.8854  1.7406  0.2336
  107OSM   H17G11021   3.461   5.278   9.254 -0.4943  1.1370 -1.4189
  107OSM   C18F11022   3.440   5.130   9.098  0.5499 -1.1932  0.7622
  107OSM   H18F11023   3.393   5.031   9.081  0.2073 -1.1942  1.6178
  107OSM   H18G11024   3.544   5.131   9.061  1.0708 -1.1746  2.1543
  107OSM   H18H11025   3.375   5.196   9.036  1.0508 -0.0115  1.4564
  108OSM      N11026   1.341   0.188  10.778  0.5630  0.1047  0.3896
  108OSM    C1511027   1.461   0.103  10.762  0.3683 -0.1083  0.2498
  108OSM   H15A11028   1.456   0.050  10.668 -0.5083  1.6289 -0.7483
  108OSM   H15B11029   1.463   0.029  10.840  1.2282 -0.7060 -0.3230
  108OSM   H15C11030   1.548   0.167  10.772 -1.0548  1.7921  1.1726
  108OSM    C1411031   1.363   0.267  10.901 -0.3351 -0.4769 -0.8872
  108OSM   H14A11032   1.460   0.311  10.921 -0.2977 -1.4773  1.5556
  108OSM   H14B11033   1.342   0.204  10.987 -0.8043 -0.7616 -1.2051
  108OSM   H14C11034   1.292   0.347  10.913  0.1096 -0.1493 -0.3845
  108OSM    C1311035   1.330   0.287  10.666  0.3332  0.1739  0.4237
  108OSM   H13A11036   1.269   0.372  10.693 -0.1204 -0.4148  1.3220
  108OSM   H13B11037   1.299   0.252  10.569 -2.2303  2.1334  0.4252
  108OSM   H13C11038   1.427   0.333  10.657  0.9200  0.0389  4.2578
  108OSM    C1211039   1.223   0.096  10.777 -0.5168  1.3843 -0.5611
  108OSM   H12A11040   1.254   0.008  10.831 -2.1477  0.3319 -1.2403
  108OSM   H12B11041   1.194   0.069  10.677 -0.4045  0.7438 -0.4234
  108OSM    C1111042   1.098   0.156  10.840  0.9063  1.0347 -0.1172
  108OSM   H11A11043   1.081   0.252  10.789  0.6891  0.3678 -1.3372
  108OSM   H11B11044   1.114   0.178  10.948 -0.1918 -2.8870  1.0326
  108OSM      P11045   0.937  -0.028  10.943  0.3676 -0.2624 -0.2297
  108OSM    O1311046   1.045  -0.044  11.044  0.1613 -0.2033  0.1484
  108OSM    O1411047   0.800   0.009  10.995  0.4180 -0.7390  0.2582
  108OSM    O1111048   0.918  -0.166  10.867 -0.1402 -0.3417 -0.4791
  108OSM    O1211049   0.992   0.059  10.821 -0.0915  0.0354 -0.4104
  108OSM    C1S11050   0.854  -0.187  10.744  0.0358  0.1388  0.7119
  108OSM    H1S11051   0.797  -0.094  10.724  0.5612 -0.1200 -2.4382
  108OSM    H1T11052   0.784  -0.273  10.748 -0.1273  0.2710  0.6846
  108OSM     NF11053   0.876  -0.214  10.498 -0.0191  0.6076 -0.1146
  108OSM    HNF11054   0.860  -0.300  10.451 -3.4477  0.9349  0.2179
  108OSM    C2S11055   0.950  -0.217  10.627 -0.0722  0.2951 -0.0110
  108OSM    H2S11056   1.023  -0.134  10.623  0.5986 -0.2870 -0.0524
  108OSM    C3S11057   1.024  -0.344  10.656  0.0289  0.2793 -0.3310
  108OSM    H3S11058   0.941  -0.416  10.676 -0.5050  0.7437 -0.8597
  108OSM     O311059   1.104  -0.341  10.770 -0.0662 -0.3558  0.1379
  108OSM    HO311060   1.059  -0.270  10.815 -1.4689 -1.1490  0.0611
  108OSM    C4S11061   1.089  -0.390  10.530 -0.2273  0.0591 -0.1422
  108OSM    H4S11062   1.018  -0.444  10.465 -0.8104  0.7990 -0.1370
  108OSM    C5S11063   1.214  -0.385  10.488 -0.6044 -0.3827  0.4576
  108OSM    H5S11064   1.286  -0.333  10.553  1.1994 -2.8158  0.5521
  108OSM    C6S11065   1.279  -0.436  10.358  0.4664 -0.4223  0.4766
  108OSM    H6S11066   1.323  -0.537  10.370 -0.0005 -0.6830 -0.0103
  108OSM    H6T11067   1.359  -0.368  10.322 -1.0971  1.2597 -0.0137
  108OSM    C7S11068   1.174  -0.457  10.250 -0.3472  0.6268 -0.4929
  108OSM    H7S11069   1.123  -0.358  10.239 -0.4805  0.6343  0.1829
  108OSM    H7T11070   1.100  -0.531  10.287 -1.8219  1.4897 -1.6134
  108OSM    C8S11071   1.239  -0.492  10.120 -0.1462 -0.1227  0.2576
  108OSM    H8S11072   1.278  -0.596  10.122 -0.7370 -0.3657 -0.1652
  108OSM    H8T11073   1.321  -0.418  10.112 -0.3320  0.0980  0.3646
  108OSM    C9S11074   1.148  -0.477   9.999 -0.5470  0.0759 -0.2980
  108OSM    H9S11075   1.101  -0.377  10.006  0.1916  0.5010 -1.1490
  108OSM    H9T11076   1.069  -0.555   9.998 -1.3186  0.8251 -2.0373
  108OSM   C10S11077   1.222  -0.474   9.869  0.4453  0.0002  0.0766
  108OSM   H10S11078   1.308  -0.404   9.876 -0.5761  1.2303  0.7827
  108OSM   H10T11079   1.147  -0.427   9.802 -2.4492 -0.6154  2.6446
  108OSM   C11S11080   1.263  -0.608   9.801 -0.5807  0.4593 -0.1373
  108OSM   H11S11081   1.173  -0.672   9.811 -0.8478  0.7694 -0.5577
  108OSM   H11T11082   1.355  -0.649   9.848  0.1125 -0.4623 -2.2015
  108OSM   C12S11083   1.298  -0.577   9.647 -0.2443  0.0336 -0.1148
  108OSM   H12S11084   1.401  -0.536   9.651  0.4238 -1.3997 -1.5777
  108OSM   H12T11085   1.225  -0.507   9.600 -0.4471 -0.2927 -0.2878
  108OSM   C13S11086   1.304  -0.695   9.551  0.7576 -0.0142  0.2464
  108OSM   H13S11087   1.203  -0.740   9.548  0.4073  0.8030 -0.4678
  108OSM   H13T11088   1.371  -0.777   9.585  1.0132  0.3857  0.7277
  108OSM   C14S11089   1.348  -0.641   9.412 -0.4080  0.3773 -0.5747
  108OSM   H14S11090   1.452  -0.601   9.415  0.2351 -1.0893 -1.8400
  108OSM   H14T11091   1.287  -0.561   9.366 -0.7473 -1.4135 -3.4295
  108OSM   C15S11092   1.345  -0.753   9.304 -0.7810  0.2405  0.3066
  108OSM   H15S11093   1.243  -0.792   9.283 -0.1084 -0.0208 -2.9595
  108OSM   H15T11094   1.400  -0.835   9.354 -1.3762 -0.1225  0.3700
  108OSM   C16S11095   1.405  -0.702   9.172 -0.5852  0.0942  0.0967
  108OSM   H16S11096   1.500  -0.646   9.186 -0.8259  0.7088 -0.6542
  108OSM   H16T11097   1.329  -0.637   9.123 -1.8219  0.8328  2.7903
  108OSM   C17S11098   1.439  -0.829   9.090 -0.4752  0.0953  0.1448
  108OSM   H17S11099   1.339  -0.863   9.055  0.4508 -2.4282 -0.2483
  108OSM   H17T11100   1.489  -0.909   9.149 -0.5845  1.0606  1.5953
  108OSM   C18S11101   1.546  -0.807   8.981 -0.2505  0.9832 -0.0950
  108OSM   H18S11102   1.578  -0.905   8.940  0.5897  0.1898  2.3291
  108OSM   H18T11103   1.631  -0.758   9.034  1.2536 -1.0211 -0.5187
  108OSM   H18U11104   1.507  -0.739   8.902  0.3622 -0.0588 -1.3427
  108OSM    C1F11105   0.798  -0.110  10.452  0.1070  0.7918  0.3106
  108OSM     OF11106   0.806  -0.001  10.510 -0.1999  0.4705  0.6009
  108OSM    C2F11107   0.701  -0.139  10.331 -0.4457 -0.1324 -0.0099
  108OSM    H2F11108   0.629  -0.213  10.371  0.5259 -1.9142 -1.4102
  108OSM    H2G11109   0.762  -0.199  10.261  1.9522  0.8478  1.1273
  108OSM    C3F11110   0.636  -0.012  10.283  0.6801  0.2021  0.6361
  108OSM    H3F11111   0.722   0.050  10.249 -0.0545  0.0568 -1.6683
  108OSM    H3G11112   0.575   0.047  10.354 -1.8646 -0.0211 -1.2335
  108OSM    C4F11113   0.556  -0.027  10.145 -0.3099  1.1278 -0.0080
  108OSM    H4F11114   0.497   0.065  10.126 -1.4506  0.8811  2.0105
  108OSM    H4G11115   0.482  -0.109  10.161  0.8568  0.0374 -0.0456
  108OSM    C5F11116   0.652  -0.057  10.036  0.3071  0.3422  0.5783
  108OSM    H5F11117   0.693  -0.160  10.042  0.5655  0.4375  0.4777
  108OSM    H5G11118   0.738   0.013  10.029 -0.0095  0.5871 -2.1058
  108OSM    C6F11119   0.582  -0.046   9.900  0.3432  0.2418 -0.4139
  108OSM    H6F11120   0.549   0.058   9.876 -0.4551 -0.9197 -5.6086
  108OSM    H6G11121   0.492  -0.111   9.895  0.2766  0.3989 -2.3085
  108OSM    C7F11122   0.673  -0.075   9.779  0.7544  1.0423  0.1925
  108OSM    H7F11123   0.724  -0.173   9.790  1.0413  1.2372  0.6226
  108OSM    H7G11124   0.743   0.009   9.765 -1.6569  2.9835 -0.9799
  108OSM    C8F11125   0.585  -0.069   9.653 -0.2289  0.3786  0.2203
  108OSM    H8F11126   0.644  -0.046   9.562  2.0228  0.9055  1.7397
  108OSM    H8G11127   0.514   0.016   9.660  0.8677  1.5271 -1.7858
  108OSM    C9F11128   0.501  -0.191   9.649  0.1512 -0.8131 -0.7072
  108OSM    H9F11129   0.440  -0.215   9.737 -2.8490  0.4485 -2.2802
  108OSM   C10F11130   0.489  -0.274   9.541 -0.4734 -0.8493 -0.6172
  108OSM   H10F11131   0.415  -0.354   9.555 -3.3393  1.9572  2.0602
  108OSM   C11F11132   0.538  -0.249   9.400  0.1270  0.4195 -0.2175
  108OSM   H11F11133   0.555  -0.141   9.381 -1.0100  0.5615 -0.4979
  108OSM   H11G11134   0.455  -0.270   9.329 -0.0254  0.8125 -0.1592
  108OSM   C12F11135   0.654  -0.335   9.343  1.2866 -0.0369 -0.6180
  108OSM   H12F11136   0.623  -0.440   9.365 -1.6613  0.8790  0.0879
  108OSM   H12G11137   0.746  -0.308   9.398  0.9965  0.4216 -0.3573
  108OSM   C13F11138   0.679  -0.319   9.197  0.3417 -0.3598 -0.0080
  108OSM   H13F11139   0.588  -0.335   9.135  0.1478  0.6348  0.0028
  108OSM   H13G11140   0.748  -0.400   9.163  1.0972  0.9858 -1.8763
  108OSM   C14F11141   0.730  -0.179   9.162 -0.4625  0.2122  0.2707
  108OSM   H14F11142   0.840  -0.176   9.175 -0.5650 -2.0615  2.1341
  108OSM   H14G11143   0.679  -0.115   9.238 -1.1615 -0.2655  0.2108
  108OSM   C15F11144   0.691  -0.133   9.022 -0.2509  0.3738  0.3198
  108OSM   H15F11145   0.716  -0.024   9.022 -1.8859  0.7736  0.4837
  108OSM   H15G11146   0.581  -0.137   9.003  0.0570 -4.3064 -1.8617
  108OSM   C16F11147   0.767  -0.208   8.911 -0.1297 -0.2396  0.2301
  108OSM   H16F11148   0.738  -0.315   8.913  2.6515 -1.2561 -3.4754
  108OSM   H16G11149   0.876  -0.214   8.928  0.2437  1.9725 -0.9671
  108OSM   C17F11150   0.732  -0.152   8.770  0.1962  0.6934  0.1802
  108OSM   H17F11151   0.761  -0.046   8.753 -1.5460  0.9208 -1.7622
  108OSM   H17G11152   0.623  -0.145   8.755  0.1340  0.5304  0.5429
  108OSM   C18F11153   0.799  -0.245   8.668  0.5362 -0.2685  0.6926
  108OSM   H18F11154   0.753  -0.232   8.568  1.7987  0.0899  0.1528
  108OSM   H18G11155   0.792  -0.353   8.694 -1.1692 -1.1098 -2.6824
  108OSM   H18H11156   0.906  -0.223   8.652  0.3896  1.7568  2.1063
  109OSM      N11157   4.677   2.155  10.743 -0.2663 -0.0349  0.1184
  109OSM    C1511158   4.605   2.231  10.853  0.0796  0.3430 -0.5534
  109OSM   H15A11159   4.649   2.228  10.951  1.5792  1.2590 -1.1717
  109OSM   H15B11160   4.501   2.202  10.866  0.6038 -0.7577  1.5947
  109OSM   H15C11161   4.605   2.336  10.825  0.4714  0.7340  0.8700
  109OSM    C1411162   4.671   2.017  10.763 -0.4261  0.0529 -0.3464
  109OSM   H14A11163   4.721   1.964  10.684 -0.9204 -0.5148 -0.2837
  109OSM   H14B11164   4.566   1.990  10.761 -0.7804  1.2569  0.3469
  109OSM   H14C11165   4.712   1.981  10.856 -3.2781 -1.2287  0.5215
  109OSM    C1311166   4.614   2.182  10.610  0.3686  0.3765 -0.2228
  109OSM   H13A11167   4.646   2.107  10.539  1.5225  0.2499  0.4061
  109OSM   H13B11168   4.637   2.282  10.575 -1.8375  0.5186 -1.4011
  109OSM   H13C11169   4.507   2.173  10.614  0.2339  1.6630 -0.5068
  109OSM    C1211170   4.824   2.203  10.747  0.0685 -0.1897 -0.7834
  109OSM   H12A11171   4.832   2.300  10.700  0.6809 -0.4351 -1.1809
  109OSM   H12B11172   4.889   2.141  10.688  0.5693  0.1468 -0.5978
  109OSM    C1111173   4.886   2.198  10.895  0.1224  0.5161  0.6870
  109OSM   H11A11174   4.848   2.105  10.943 -0.3841 -0.7948 -2.0205
  109OSM   H11B11175   4.854   2.289  10.949  0.8613 -0.0075  2.0582
  109OSM      P11176   5.132   2.091  10.911  0.3626  0.2581 -0.7210
  109OSM    O1311177   5.245   2.152  10.986 -0.5713 -1.0312  0.1963
  109OSM    O1411178   5.068   1.971  10.974  0.1951  0.1581  0.6508
  109OSM    O1111179   5.173   2.054  10.760  0.2603 -0.1331  0.2072
  109OSM    O1211180   5.026   2.207  10.876  0.6601 -0.5974 -0.2790
  109OSM    C1S11181   5.241   2.157  10.684 -0.3519 -0.9783 -0.2645
  109OSM    H1S11182   5.333   2.184  10.739 -1.5322  1.4091  0.6415
  109OSM    H1T11183   5.177   2.246  10.670  0.4638 -0.5147 -1.1941
  109OSM     NF11184   5.368   2.199  10.479 -0.0086  0.2927 -0.1328
  109OSM    HNF11185   5.335   2.272  10.419 -1.1433 -0.3768 -0.3477
  109OSM    C2S11186   5.268   2.109  10.538  0.6736  0.1427  0.2351
  109OSM    H2S11187   5.303   2.003  10.540  0.1168 -0.0486 -0.1104
  109OSM    C3S11188   5.134   2.101  10.458 -0.1337 -0.5382 -0.2737
  109OSM    H3S11189   5.084   2.200  10.459 -1.4074 -1.1358 -1.5806
  109OSM     O311190   5.035   2.022  10.515  0.0560 -0.4344 -0.4607
  109OSM    HO311191   5.077   1.998  10.598 -0.3193  1.2394  0.2452
  109OSM    C4S11192   5.154   2.042  10.320 -0.1127 -0.2792  0.3124
  109OSM    H4S11193   5.191   1.939  10.321 -0.4624 -0.4026  1.7612
  109OSM    C5S11194   5.110   2.103  10.205 -0.5375  0.3410  0.9800
  109OSM    H5S11195   5.062   2.202  10.206  1.1015  1.1852  2.8600
  109OSM    C6S11196   5.112   2.057  10.059 -0.8604 -0.3973  1.1627
  109OSM    H6S11197   5.005   2.039  10.035 -0.4544 -0.0468 -1.0412
  109OSM    H6T11198   5.174   1.968  10.033 -0.0882  0.6277 -0.6515
  109OSM    C7S11199   5.175   2.157   9.961 -0.5474  0.5684 -0.0109
  109OSM    H7S11200   5.285   2.157   9.974 -0.3656  0.2425 -1.4147
  109OSM    H7T11201   5.131   2.259   9.970 -0.3790  0.5241  1.6864
  109OSM    C8S11202   5.156   2.115   9.815  0.1857  0.0605  0.6053
  109OSM    H8S11203   5.061   2.143   9.765  0.6478  1.4782  0.4887
  109OSM    H8T11204   5.171   2.005   9.817  3.2397  0.3569  2.9940
  109OSM    C9S11205   5.271   2.176   9.728  0.6434 -0.1324 -0.4439
  109OSM    H9S11206   5.362   2.124   9.764  0.7922 -0.1207 -0.7984
  109OSM    H9T11207   5.287   2.286   9.726  0.6573 -0.0946  1.0175
  109OSM   C10S11208   5.253   2.145   9.577 -0.2524  0.1923  0.9449
  109OSM   H10S11209   5.182   2.218   9.532  0.1734 -0.2316 -0.4830
  109OSM   H10T11210   5.229   2.041   9.548 -1.5215  1.0472 -1.3430
  109OSM   C11S11211   5.377   2.181   9.491  0.1975 -0.0747 -0.1621
  109OSM   H11S11212   5.472   2.163   9.547  1.2691 -0.4222 -2.0191
  109OSM   H11T11213   5.374   2.291   9.476 -0.8037  0.3296  2.4386
  109OSM   C12S11214   5.373   2.103   9.353  0.0662 -0.1434 -0.2204
  109OSM   H12S11215   5.267   2.094   9.322 -0.2739 -0.9338  1.1005
  109OSM   H12T11216   5.402   1.995   9.357  0.3988 -0.0957 -1.1325
  109OSM   C13S11217   5.457   2.176   9.246 -0.6240  0.6653  0.3064
  109OSM   H13S11218   5.437   2.284   9.266 -0.3632  0.8709 -0.5039
  109OSM   H13T11219   5.411   2.145   9.150 -1.1897 -1.2097  1.1414
  109OSM   C14S11220   5.607   2.129   9.241  0.6194 -0.1954  0.9743
  109OSM   H14S11221   5.607   2.017   9.244  1.1166 -0.1875  1.9668
  109OSM   H14T11222   5.666   2.157   9.332  1.0396 -1.0843  0.9897
  109OSM   C15S11223   5.671   2.181   9.112 -0.5790  0.0086 -0.0238
  109OSM   H15S11224   5.659   2.290   9.097 -2.7079 -0.2284 -0.4748
  109OSM   H15T11225   5.625   2.125   9.027  2.6002 -1.5871 -0.8614
  109OSM   C16S11226   5.820   2.155   9.111 -0.7293 -0.4790  0.0901
  109OSM   H16S11227   5.846   2.085   9.193 -0.4836  0.3871  0.7699
  109OSM   H16T11228   5.880   2.244   9.140  1.0767 -1.2284 -1.1758
  109OSM   C17S11229   5.880   2.106   8.979  0.0798 -0.1568 -0.0717
  109OSM   H17S11230   5.801   2.044   8.932 -0.2680  1.1285 -1.2859
  109OSM   H17T11231   5.966   2.039   8.998 -1.0472 -1.5680  0.1749
  109OSM   C18S11232   5.901   2.232   8.892  0.3753 -0.1409 -0.7373
  109OSM   H18S11233   5.822   2.308   8.910  0.9904  0.2894  0.2604
  109OSM   H18T11234   5.921   2.203   8.786  2.5477  1.4208 -0.8375
  109OSM   H18U11235   5.991   2.278   8.937 -1.1704 -0.0092  2.4794
  109OSM    C1F11236   5.497   2.178  10.515  0.0298  0.6039  0.6709
  109OSM     OF11237   5.527   2.080  10.579  0.5781  1.2788  0.4000
  109OSM    C2F11238   5.603   2.270  10.484 -0.3589 -0.0061 -0.0715
  109OSM    H2F11239   5.681   2.275  10.563  0.3902  0.7254 -0.8315
  109OSM    H2G11240   5.559   2.372  10.474 -0.6435  0.3895  3.7771
  109OSM    C3F11241   5.676   2.239  10.348  0.1067  0.1289 -0.0321
  109OSM    H3F11242   5.723   2.139  10.358  1.2588  0.1466 -3.8467
  109OSM    H3G11243   5.759   2.312  10.343  1.6881 -1.5849  0.0182
  109OSM    C4F11244   5.589   2.244  10.222 -0.0135 -0.4885 -0.9800
  109OSM    H4F11245   5.503   2.174  10.228 -1.3330  1.1499  1.0010
  109OSM    H4G11246   5.660   2.208  10.145  1.3294 -2.3795  1.0106
  109OSM    C5F11247   5.555   2.389  10.190  0.2411 -0.5940  1.1881
  109OSM    H5F11248   5.640   2.452  10.225 -0.4370  0.4887  0.9442
  109OSM    H5G11249   5.467   2.431  10.244 -0.4674  0.7871 -0.8801
  109OSM    C6F11250   5.542   2.418  10.037  0.4332 -0.0940 -0.1997
  109OSM    H6F11251   5.475   2.343   9.990  0.8830 -1.9121  1.9038
  109OSM    H6G11252   5.640   2.394   9.991 -0.0067 -3.3080  0.2612
  109OSM    C7F11253   5.502   2.566  10.017 -1.0194 -0.0963 -0.3596
  109OSM    H7F11254   5.574   2.631  10.071  1.9271 -2.9953 -0.4613
  109OSM    H7G11255   5.398   2.569  10.055 -0.2453 -0.5325  1.9857
  109OSM    C8F11256   5.512   2.603   9.869  0.6172 -0.2723  0.0415
  109OSM    H8F11257   5.449   2.693   9.854  1.4499  0.2240 -0.5991
  109OSM    H8G11258   5.458   2.524   9.813  0.7476 -1.0642  1.0133
  109OSM    C9F11259   5.643   2.642   9.806 -0.0768 -0.7661 -0.2906
  109OSM    H9F11260   5.674   2.741   9.841 -1.7394 -0.1607 -0.4223
  109OSM   C10F11261   5.707   2.571   9.708  0.1301 -0.5091  0.5074
  109OSM   H10F11262   5.800   2.614   9.667 -0.6372 -1.5936 -2.6483
  109OSM   C11F11263   5.664   2.445   9.635  0.6429 -0.1073 -0.1824
  109OSM   H11F11264   5.554   2.444   9.620  0.6492  0.3969 -0.2750
  109OSM   H11G11265   5.688   2.354   9.695 -0.9427  0.9100  2.1246
  109OSM   C12F11266   5.717   2.439   9.493  0.1217 -0.3146  0.4174
  109OSM   H12F11267   5.689   2.346   9.440  0.0047 -1.1839  1.9669
  109OSM   H12G11268   5.828   2.438   9.492  0.1585 -0.9646  2.0696
  109OSM   C13F11269   5.675   2.556   9.398  0.0497 -0.7295  0.5016
  109OSM   H13F11270   5.716   2.655   9.428  0.9924  0.0876 -2.9322
  109OSM   H13G11271   5.566   2.571   9.406 -0.5455 -3.4605 -1.2280
  109OSM   C14F11272   5.729   2.543   9.256 -0.3831 -0.4130  0.2760
  109OSM   H14F11273   5.687   2.620   9.186 -0.8593  1.2771  2.3122
  109OSM   H14G11274   5.712   2.442   9.214 -0.0855  0.4109 -1.9763
  109OSM   C15F11275   5.879   2.568   9.253 -0.1125  0.3315 -0.1322
  109OSM   H15F11276   5.943   2.497   9.310  0.8531  1.5766  0.3897
  109OSM   H15G11277   5.883   2.670   9.297 -0.2605 -0.0507  0.8055
  109OSM   C16F11278   5.939   2.569   9.111 -0.3727  0.0294  0.3185
  109OSM   H16F11279   5.941   2.463   9.077  0.3021 -0.2101  1.0649
  109OSM   H16G11280   6.046   2.595   9.122 -0.7457  2.2544 -0.8790
  109OSM   C17F11281   5.864   2.659   9.010 -0.1343 -0.1336 -0.3868
  109OSM   H17F11282   5.827   2.746   9.069 -2.2680 -1.5152  0.4261
  109OSM   H17G11283   5.774   2.601   8.979 -0.5009  0.9585 -1.4506
  109OSM   C18F11284   5.943   2.698   8.883  0.3586  0.2237 -0.3069
  109OSM   H18F11285   5.974   2.613   8.819  1.3660  0.3357  0.0238
  109OSM   H18G11286   6.036   2.738   8.928  0.6117 -1.4831  0.8002
  109OSM   H18H11287   5.886   2.774   8.826  1.1419  1.7898  0.9382
  110OSM      N11288   6.735   4.161  11.280  0.2434  0.2820  0.4011
  110OSM    C1511289   6.733   4.007  11.257 -0.5439  0.0122 -1.0536
  110OSM   H15A11290   6.829   3.959  11.268 -1.9818 -2.6457  1.5559
  110OSM   H15B11291   6.685   3.989  11.161 -2.3506  0.3044 -0.2418
  110OSM   H15C11292   6.691   3.943  11.333  4.8385 -1.3270  1.2042
  110OSM    C1411293   6.591   4.218  11.270  0.2179 -0.4459  0.1829
  110OSM   H14A11294   6.585   4.326  11.267  2.6283 -0.2540 -2.3118
  110OSM   H14B11295   6.523   4.196  11.350  0.3499 -0.2610  0.3460
  110OSM   H14C11296   6.543   4.180  11.181 -1.1176  2.2178 -0.3341
  110OSM    C1311297   6.784   4.187  11.418  0.7889 -0.5717  0.0245
  110OSM   H13A11298   6.706   4.159  11.487  0.9283  1.4743  1.1022
  110OSM   H13B11299   6.808   4.291  11.437 -0.5398 -0.1129 -0.7045
  110OSM   H13C11300   6.874   4.133  11.442  0.1259 -1.3645  0.7982
  110OSM    C1211301   6.834   4.217  11.178 -0.3509  0.1460  0.1681
  110OSM   H12A11302   6.930   4.176  11.206 -0.1626  1.1128  1.0091
  110OSM   H12B11303   6.843   4.323  11.197 -0.3762  0.1274  0.2910
  110OSM    C1111304   6.812   4.182  11.028  0.4424 -0.2093  0.5616
  110OSM   H11A11305   6.880   4.244  10.964  0.5527 -0.3218  0.5701
  110OSM   H11B11306   6.706   4.205  11.005  0.5528  0.1597  0.4125
  110OSM      P11307   6.972   3.984  10.997  0.4456  0.5626 -0.1158
  110OSM    O1311308   7.043   4.014  11.122  0.4646 -0.1213  0.0616
  110OSM    O1411309   6.944   3.841  10.970 -0.2442  0.4201  0.3671
  110OSM    O1111310   7.041   4.051  10.878 -0.4653 -0.0757 -0.0880
  110OSM    O1211311   6.832   4.048  10.995 -0.8615  0.1615  0.0463
  110OSM    C1S11312   7.019   4.002  10.743  0.0028  0.1164  0.0754
  110OSM    H1S11313   6.983   3.897  10.745  0.9071 -0.1990  0.1815
  110OSM    H1T11314   7.119   3.995  10.696 -0.4402  0.4473 -0.9398
  110OSM     NF11315   6.896   4.025  10.531 -0.8191  0.5073 -0.1809
  110OSM    HNF11316   6.948   4.048  10.449 -1.7826  2.3478 -0.3231
  110OSM    C2S11317   6.935   4.097  10.652  0.7791  0.3187 -0.3608
  110OSM    H2S11318   6.842   4.121  10.708 -0.3067 -2.3000 -0.8976
  110OSM    C3S11319   7.010   4.229  10.636 -0.5097 -0.6627 -0.4295
  110OSM    H3S11320   7.108   4.198  10.595 -0.5348 -1.3531  0.0201
  110OSM     O311321   7.040   4.301  10.758 -0.0205 -0.6985  0.2040
  110OSM    HO311322   7.019   4.245  10.833  0.4369 -0.2532  0.6615
  110OSM    C4S11323   6.944   4.310  10.528 -0.4503 -0.0729  0.9537
  110OSM    H4S11324   7.000   4.287  10.436  2.7116  1.0839  2.4499
  110OSM    C5S11325   6.844   4.390  10.534  0.4740 -0.3882  0.0188
  110OSM    H5S11326   6.798   4.415  10.630  2.0420  3.0877  0.0136
  110OSM    C6S11327   6.782   4.447  10.410  0.3206 -0.5992 -0.7020
  110OSM    H6S11328   6.844   4.457  10.318 -0.7706 -0.2435 -1.4121
  110OSM    H6T11329   6.768   4.550  10.449  1.2391 -1.0942  1.0418
  110OSM    C7S11330   6.643   4.371  10.393 -0.2591  0.6793  0.3269
  110OSM    H7S11331   6.585   4.369  10.487  1.0389 -1.3118  1.1440
  110OSM    H7T11332   6.676   4.268  10.367  0.2350  0.9950 -0.3620
  110OSM    C8S11333   6.548   4.416  10.281  0.8462  0.3713 -0.1175
  110OSM    H8S11334   6.515   4.520  10.305 -1.1600 -0.3735  0.4865
  110OSM    H8T11335   6.457   4.356  10.304  1.2625 -1.0795 -2.0252
  110OSM    C9S11336   6.609   4.390  10.140 -0.0884  0.5202  0.5642
  110OSM    H9S11337   6.544   4.322  10.081  1.8119 -0.4593 -0.4767
  110OSM    H9T11338   6.705   4.338  10.161 -0.0866  0.4277  0.3255
  110OSM   C10S11339   6.652   4.515  10.060 -0.2206  0.4538  0.7420
  110OSM   H10S11340   6.735   4.567  10.115 -1.3887  1.2764  1.7858
  110OSM   H10T11341   6.563   4.580  10.044 -0.9256 -0.1761  2.0117
  110OSM   C11S11342   6.713   4.484   9.925  0.0089  0.1886  0.7923
  110OSM   H11S11343   6.766   4.387   9.934  0.2945  0.1260 -1.1440
  110OSM   H11T11344   6.796   4.554   9.901  1.2742 -1.5234 -0.0148
  110OSM   C12S11345   6.603   4.481   9.808 -1.1195  0.3960 -0.2876
  110OSM   H12S11346   6.571   4.587   9.796  1.6808  1.4190  0.2665
  110OSM   H12T11347   6.514   4.430   9.849 -0.2191  0.4197  1.8520
  110OSM   C13S11348   6.656   4.410   9.678 -0.2118 -0.0073 -0.1725
  110OSM   H13S11349   6.693   4.310   9.707  1.3815  0.4287 -0.6205
  110OSM   H13T11350   6.744   4.465   9.640 -1.0103  0.4414 -1.4536
  110OSM   C14S11351   6.552   4.398   9.573 -0.2598 -0.0559  0.6007
  110OSM   H14S11352   6.491   4.489   9.553 -1.0260 -0.8918 -1.0683
  110OSM   H14T11353   6.487   4.316   9.612  0.9932 -0.0039  2.9784
  110OSM   C15S11354   6.611   4.355   9.439 -0.4401 -0.5938 -0.1232
  110OSM   H15S11355   6.666   4.260   9.460  0.7430  0.2067  0.5337
  110OSM   H15T11356   6.680   4.433   9.401 -2.9321  2.1964  0.6995
  110OSM   C16S11357   6.499   4.308   9.344 -0.3001  0.1530  0.3899
  110OSM   H16S11358   6.424   4.389   9.354 -0.2395  0.3719 -0.8294
  110OSM   H16T11359   6.440   4.222   9.383 -1.0853  0.6393  0.2788
  110OSM   C17S11360   6.539   4.302   9.196 -0.6532  0.0991  0.0246
  110OSM   H17S11361   6.621   4.227   9.190 -0.8956 -0.1704  0.0309
  110OSM   H17T11362   6.584   4.398   9.164  0.1801  0.0239  0.9058
  110OSM   C18S11363   6.426   4.256   9.099 -0.2249 -0.6336 -0.5547
  110OSM   H18S11364   6.376   4.165   9.139  0.2202 -0.0419  1.4804
  110OSM   H18T11365   6.467   4.236   8.998 -1.0338  1.4159 -1.3418
  110OSM   H18U11366   6.352   4.339   9.086  0.4073 -0.2453 -1.7156
  110OSM    C1F11367   6.812   3.920  10.531  0.2177 -0.5875  0.0147
  110OSM     OF11368   6.769   3.874  10.638  0.4281 -1.0734  0.0856
  110OSM    C2F11369   6.771   3.882  10.391 -1.1022  0.1944  0.2083
  110OSM    H2F11370   6.839   3.806  10.347 -1.2277  1.1452 -1.7523
  110OSM    H2G11371   6.794   3.975  10.333  4.5065 -2.1379 -2.0823
  110OSM    C3F11372   6.628   3.828  10.389 -0.0114 -0.1809  0.2079
  110OSM    H3F11373   6.561   3.909  10.425 -1.0768 -0.8223 -0.2771
  110OSM    H3G11374   6.613   3.745  10.462 -0.1770 -0.3174  0.0174
  110OSM    C4F11375   6.586   3.784  10.251  0.0065 -0.1216 -0.0933
  110OSM    H4F11376   6.527   3.690  10.258  2.0922 -1.5751 -0.8248
  110OSM    H4G11377   6.678   3.758  10.195  1.6654  0.9639  1.9540
  110OSM    C5F11378   6.514   3.885  10.155  0.2557  0.2180  0.0449
  110OSM    H5F11379   6.584   3.961  10.114 -0.0930  1.2039  1.2081
  110OSM    H5G11380   6.427   3.939  10.198 -0.2784 -1.3900  1.0707
  110OSM    C6F11381   6.467   3.808  10.022  0.1085 -0.0278  0.5921
  110OSM    H6F11382   6.407   3.723  10.061  2.0083 -1.2639  0.9524
  110OSM    H6G11383   6.554   3.758   9.974 -0.1699 -0.4544  0.5355
  110OSM    C7F11384   6.376   3.897   9.933 -0.4586 -0.2946 -1.7246
  110OSM    H7F11385   6.427   3.995   9.921  0.8435 -0.7341 -0.2009
  110OSM    H7G11386   6.290   3.913  10.002  0.1117 -1.5731 -0.6521
  110OSM    C8F11387   6.312   3.824   9.813 -0.3652  0.0777  0.4303
  110OSM    H8F11388   6.284   3.724   9.853 -1.1363 -0.5059 -1.4822
  110OSM    H8G11389   6.382   3.797   9.731 -0.1548 -1.8877  1.1835
  110OSM    C9F11390   6.200   3.905   9.755  0.3368  0.1185  0.4711
  110OSM    H9F11391   6.115   3.931   9.819 -0.6624 -2.2663  0.2110
  110OSM   C10F11392   6.189   3.956   9.631 -0.0838 -0.9460  0.5827
  110OSM   H10F11393   6.097   4.010   9.603 -1.7049 -2.9394  1.7845
  110OSM   C11F11394   6.290   3.954   9.520  0.1837  0.4582  0.6353
  110OSM   H11F11395   6.391   3.944   9.566  0.7123 -1.1554 -0.7698
  110OSM   H11G11396   6.295   4.041   9.450 -0.0190 -0.4912 -0.5891
  110OSM   C12F11397   6.278   3.831   9.420 -0.5037 -0.3986  0.1914
  110OSM   H12F11398   6.317   3.741   9.474  1.2225  0.5224  0.5603
  110OSM   H12G11399   6.348   3.840   9.334 -0.8922 -0.9746 -0.1907
  110OSM   C13F11400   6.143   3.814   9.354  0.1348  0.2746 -0.1550
  110OSM   H13F11401   6.065   3.819   9.433  0.3343 -0.2198  0.0786
  110OSM   H13G11402   6.142   3.709   9.317 -1.9594  0.5373 -0.9980
  110OSM   C14F11403   6.099   3.911   9.250  0.0833 -0.2486 -0.6738
  110OSM   H14F11404   6.090   4.012   9.294  1.6409 -0.4465  0.1843
  110OSM   H14G11405   6.002   3.873   9.211 -0.7914  1.3227 -0.0937
  110OSM   C15F11406   6.202   3.932   9.133 -0.3220  0.0867  0.6543
  110OSM   H15F11407   6.228   3.828   9.103 -1.9411 -0.7523  1.9990
  110OSM   H15G11408   6.285   3.986   9.184 -0.9144  0.5159  1.1756
  110OSM   C16F11409   6.152   4.018   9.025 -0.3801 -0.4418  0.1667
  110OSM   H16F11410   6.238   4.064   8.972 -0.5698 -0.2164  0.0458
  110OSM   H16G11411   6.101   4.111   9.060  0.2943 -0.2664  0.6916
  110OSM   C17F11412   6.053   3.955   8.919 -0.1988  0.1146  0.6366
  110OSM   H17F11413   5.957   3.927   8.969  0.1780 -1.2073  0.6590
  110OSM   H17G11414   6.111   3.862   8.899  0.9420  0.3245  2.7506
  110OSM   C18F11415   6.033   4.022   8.781 -0.1066  0.8874  0.1805
  110OSM   H18F11416   6.008   3.939   8.712 -0.7529  3.2555 -2.6462
  110OSM   H18G11417   6.116   4.084   8.741  1.4820 -3.5384 -4.5311
  110OSM   H18H11418   5.944   4.088   8.789 -1.1678  0.0256 -3.1060
  111OSM      N11419   6.295   2.795  11.218 -0.0441  0.2635 -0.1717
  111OSM    C1511420   6.239   2.662  11.236  0.3552 -0.3871  0.3516
  111OSM   H15A11421   6.289   2.596  11.166 -0.5506  0.5549 -1.2468
  111OSM   H15B11422   6.134   2.650  11.213  0.1517 -0.3087  1.1997
  111OSM   H15C11423   6.248   2.622  11.336 -2.9423  1.5097  1.5824
  111OSM    C1411424   6.229   2.872  11.328 -0.3013 -0.0972 -0.2605
  111OSM   H14A11425   6.254   2.815  11.416  1.1562  0.5989 -0.1802
  111OSM   H14B11426   6.123   2.883  11.312 -0.8138 -0.1919  2.5169
  111OSM   H14C11427   6.288   2.960  11.349 -1.7877  0.6075  1.1265
  111OSM    C1311428   6.446   2.799  11.245 -0.0546 -0.8746  0.2893
  111OSM   H13A11429   6.485   2.899  11.254 -2.3163  0.0394  0.4928
  111OSM   H13B11430   6.505   2.745  11.172 -0.8702 -0.3805 -0.7516
  111OSM   H13C11431   6.468   2.751  11.339  0.3882  2.2012  1.9055
  111OSM    C1211432   6.253   2.857  11.084 -0.0282 -0.0801  0.0069
  111OSM   H12A11433   6.263   2.964  11.091  1.3168 -0.0148 -1.9717
  111OSM   H12B11434   6.148   2.833  11.074 -0.3947  0.6467  1.7622
  111OSM    C1111435   6.309   2.790  10.956  0.1266 -0.0750  0.0921
  111OSM   H11A11436   6.417   2.816  10.952 -0.0472  0.7672  0.5333
  111OSM   H11B11437   6.254   2.835  10.870 -0.2679  0.5214  0.6519
  111OSM      P11438   6.185   2.564  10.886 -0.3921 -0.1367 -0.2869
  111OSM    O1311439   6.231   2.428  10.884 -0.4032  0.6265 -0.0766
  111OSM    O1411440   6.050   2.590  10.930  0.4893 -0.2984  0.2010
  111OSM    O1111441   6.190   2.616  10.738  0.6572 -0.4317  0.2171
  111OSM    O1211442   6.296   2.647  10.965 -0.5829 -0.2000 -0.6368
  111OSM    C1S11443   6.302   2.633  10.658 -0.1149 -0.3059 -0.5254
  111OSM    H1S11444   6.363   2.540  10.649 -0.7780 -0.8248  0.3195
  111OSM    H1T11445   6.381   2.698  10.703 -0.2763  0.9038 -1.8859
  111OSM     NF11446   6.368   2.663  10.410  0.0134  0.2074 -0.5346
  111OSM    HNF11447   6.435   2.737  10.399 -0.1921  0.5408  0.3653
  111OSM    C2S11448   6.261   2.676  10.508  0.4438  0.4686 -0.6858
  111OSM    H2S11449   6.172   2.622  10.469 -1.0785  2.3027  0.0930
  111OSM    C3S11450   6.210   2.822  10.519  0.0835  0.0366  0.4421
  111OSM    H3S11451   6.295   2.877  10.564  1.6831 -1.6080 -0.4415
  111OSM     O311452   6.093   2.819  10.607 -0.4659 -0.7942  0.0763
  111OSM    HO311453   6.107   2.746  10.668  0.8436  0.5623  1.4896
  111OSM    C4S11454   6.169   2.871  10.385  0.4056 -0.5542  0.4731
  111OSM    H4S11455   6.096   2.808  10.332  1.4133 -0.9840 -0.4276
  111OSM    C5S11456   6.218   2.988  10.345  0.2478  0.0173  0.1727
  111OSM    H5S11457   6.302   3.023  10.407 -1.1697 -0.0255  2.2369
  111OSM    C6S11458   6.200   3.058  10.212  0.3067 -0.1970 -0.5215
  111OSM    H6S11459   6.148   3.155  10.226 -0.4348 -0.8030  1.3878
  111OSM    H6T11460   6.133   2.998  10.146  1.6701 -0.5795 -1.5878
  111OSM    C7S11461   6.329   3.083  10.141  0.5138 -0.0928 -0.4021
  111OSM    H7S11462   6.392   2.994  10.158 -0.8660 -0.9987  0.1704
  111OSM    H7T11463   6.373   3.176  10.184  0.6680  0.2197 -1.2229
  111OSM    C8S11464   6.313   3.094   9.983 -0.0533 -0.4204 -0.1402
  111OSM    H8S11465   6.264   3.005   9.938 -1.5490  1.2781 -2.0844
  111OSM    H8T11466   6.417   3.097   9.945  0.3769 -0.6612  0.9805
  111OSM    C9S11467   6.229   3.215   9.935  0.3281 -0.3595  0.3141
  111OSM    H9S11468   6.290   3.303   9.964 -1.0712  0.6559  0.3067
  111OSM    H9T11469   6.134   3.224   9.993  0.0588  1.5551 -0.3685
  111OSM   C10S11470   6.215   3.233   9.786  0.2205  0.4896 -0.4263
  111OSM   H10S11471   6.159   3.329   9.778 -1.0624 -0.1428  0.6770
  111OSM   H10T11472   6.159   3.146   9.744 -0.4963  0.3860  0.6956
  111OSM   C11S11473   6.354   3.250   9.716  0.1103 -0.4551 -0.5534
  111OSM   H11S11474   6.414   3.160   9.742  2.3471  1.4497  1.2530
  111OSM   H11T11475   6.411   3.330   9.767  1.1741 -1.8631  0.5475
  111OSM   C12S11476   6.351   3.269   9.561  0.0157 -0.4967  0.0997
  111OSM   H12S11477   6.310   3.183   9.504 -0.8286 -0.5664  0.7972
  111OSM   H12T11478   6.457   3.262   9.528 -0.5121 -0.6918 -1.6910
  111OSM   C13S11479   6.282   3.399   9.510  0.4776  0.0960 -0.5845
  111OSM   H13S11480   6.324   3.494   9.549 -3.3142  1.0947  1.5628
  111OSM   H13T11481   6.174   3.399   9.539  0.3341  1.0219 -1.0918
  111OSM   C14S11482   6.279   3.406   9.360  0.4952 -0.0438 -0.6132
  111OSM   H14S11483   6.204   3.479   9.323 -0.8981 -0.9173  0.3602
  111OSM   H14T11484   6.247   3.312   9.310 -1.4632  0.4679 -0.3972
  111OSM   C15S11485   6.414   3.444   9.297 -0.6413 -0.6240 -0.8491
  111OSM   H15S11486   6.493   3.368   9.317  0.4179  0.4319 -0.9534
  111OSM   H15T11487   6.441   3.540   9.346  1.8653 -2.2954  1.3168
  111OSM   C16S11488   6.403   3.457   9.144 -0.2211  0.2646 -0.3333
  111OSM   H16S11489   6.321   3.523   9.108  0.5219  1.0248 -0.6530
  111OSM   H16T11490   6.386   3.356   9.101 -3.8935  1.3493 -1.8050
  111OSM   C17S11491   6.542   3.505   9.086  0.0102 -0.4506 -0.1166
  111OSM   H17S11492   6.620   3.428   9.070  1.2964  0.0946  2.8050
  111OSM   H17T11493   6.575   3.586   9.155  0.7205  0.5087 -1.5296
  111OSM   C18S11494   6.521   3.575   8.955 -0.0457 -0.2996  0.9632
  111OSM   H18S11495   6.486   3.509   8.872 -1.2869  1.3353  0.1492
  111OSM   H18T11496   6.613   3.636   8.938  0.3926 -1.2729 -0.4115
  111OSM   H18U11497   6.441   3.650   8.968  1.9522  2.1090  0.0741
  111OSM    C1F11498   6.399   2.542  10.367 -0.3059 -0.5754  0.1352
  111OSM     OF11499   6.344   2.444  10.413  0.1349  0.1220 -0.4517
  111OSM    C2F11500   6.509   2.534  10.266  0.3216 -1.0685  0.2127
  111OSM    H2F11501   6.537   2.632  10.222  2.3262 -1.6069  0.1867
  111OSM    H2G11502   6.464   2.483  10.177 -1.4893  2.0351 -0.8011
  111OSM    C3F11503   6.641   2.468  10.317  0.1335  0.0424 -0.4416
  111OSM    H3F11504   6.613   2.372  10.365 -0.3176 -0.5274 -1.7930
  111OSM    H3G11505   6.675   2.549  10.385  0.3332  0.4385 -1.0084
  111OSM    C4F11506   6.757   2.461  10.215  0.6355  0.2419 -0.5768
  111OSM    H4F11507   6.764   2.562  10.171 -0.6493 -0.8696 -3.5611
  111OSM    H4G11508   6.729   2.385  10.140  4.2659 -1.7443 -0.1583
  111OSM    C5F11509   6.899   2.436  10.270  0.2267  0.1355  0.2565
  111OSM    H5F11510   6.890   2.335  10.316  1.6376 -0.8567 -1.4839
  111OSM    H5G11511   6.918   2.515  10.345  2.0182 -2.7198  3.0496
  111OSM    C6F11512   6.994   2.434  10.156 -0.8524 -0.7275 -0.1881
  111OSM    H6F11513   6.997   2.533  10.104  0.1328 -1.6786 -2.0353
  111OSM    H6G11514   6.952   2.369  10.076  3.7132 -1.7846 -2.0261
  111OSM    C7F11515   7.139   2.386  10.200  0.6029 -0.0050 -0.0929
  111OSM    H7F11516   7.123   2.293  10.259 -1.5808  0.1620 -0.3370
  111OSM    H7G11517   7.193   2.463  10.258  0.9420 -0.5200  0.2849
  111OSM    C8F11518   7.216   2.348  10.064  0.1653 -0.2563 -0.2826
  111OSM    H8F11519   7.155   2.267  10.018 -0.6050  0.1951 -0.0671
  111OSM    H8G11520   7.310   2.302  10.103  0.0054 -1.5745 -1.3500
  111OSM    C9F11521   7.244   2.473   9.990  0.6137  0.6869 -0.1378
  111OSM    H9F11522   7.254   2.564  10.050  3.5275 -0.6010  1.5523
  111OSM   C10F11523   7.221   2.476   9.857 -1.0546 -0.0449  0.5103
  111OSM   H10F11524   7.234   2.571   9.801  0.0516  0.3087  1.3245
  111OSM   C11F11525   7.179   2.357   9.773  0.3775  0.1207  0.4223
  111OSM   H11F11526   7.083   2.310   9.803 -0.1530  1.2393  0.5048
  111OSM   H11G11527   7.261   2.281   9.778 -0.5291 -0.8160  1.4340
  111OSM   C12F11528   7.169   2.387   9.617  0.7164  0.3371 -0.7099
  111OSM   H12F11529   7.151   2.295   9.558 -1.4616  0.2042  0.0526
  111OSM   H12G11530   7.263   2.437   9.584  0.6165 -0.1027 -1.6798
  111OSM   C13F11531   7.037   2.457   9.585  0.4964  0.1643  0.2573
  111OSM   H13F11532   7.011   2.537   9.657 -1.4703 -1.8545  1.9357
  111OSM   H13G11533   6.957   2.381   9.594  1.0649 -0.3687  1.0260
  111OSM   C14F11534   7.045   2.516   9.440  0.2484 -0.0233  0.2195
  111OSM   H14F11535   7.054   2.431   9.370 -0.2452 -0.9829  1.2941
  111OSM   H14G11536   7.128   2.587   9.421 -0.2877  0.5524 -0.0358
  111OSM   C15F11537   6.897   2.548   9.397  0.3628 -0.2296  0.6923
  111OSM   H15F11538   6.865   2.640   9.451  1.6215  1.1145 -0.7091
  111OSM   H15G11539   6.834   2.466   9.436 -1.9930  0.9630 -0.3895
  111OSM   C16F11540   6.866   2.574   9.246  0.1600 -0.4733 -0.1516
  111OSM   H16F11541   6.911   2.487   9.195  0.9296 -0.0367 -0.2413
  111OSM   H16G11542   6.923   2.662   9.209 -1.5778  0.9761  0.4445
  111OSM   C17F11543   6.728   2.597   9.200 -0.3766 -0.1786 -0.4889
  111OSM   H17F11544   6.677   2.680   9.252 -1.6928 -1.2353 -0.0441
  111OSM   H17G11545   6.678   2.502   9.228  3.0023 -1.5812  1.3945
  111OSM   C18F11546   6.720   2.612   9.049 -0.3792  0.2294 -0.1715
  111OSM   H18F11547   6.774   2.700   9.008  1.9453 -1.6995 -1.5129
  111OSM   H18G11548   6.610   2.626   9.039 -0.1327  1.3804 -1.6068
  111OSM   H18H11549   6.760   2.525   8.992  1.3431  1.7320 -1.3987
  112OSM      N11550   1.108   6.187  11.085 -0.4073  0.0890 -0.3030
  112OSM    C1511551   1.253   6.170  11.108  0.1181 -0.2609  0.3914
  112OSM   H15A11552   1.312   6.205  11.024  1.3544 -0.6175  1.0792
  112OSM   H15B11553   1.287   6.076  11.149  1.0132  0.2105  0.7597
  112OSM   H15C11554   1.288   6.236  11.185 -1.0605  0.9959 -0.1045
  112OSM    C1411555   1.033   6.162  11.212  0.7577 -0.4673 -1.0341
  112OSM   H14A11556   0.931   6.194  11.197  1.0646  1.3578  0.4004
  112OSM   H14B11557   1.080   6.211  11.297  1.1552 -0.7861 -1.0670
  112OSM   H14C11558   1.028   6.055  11.230 -1.5903 -0.0878  1.1780
  112OSM    C1311559   1.085   6.332  11.052  0.5321 -0.4937 -0.0458
  112OSM   H13A11560   1.077   6.396  11.139 -0.9707  0.5088 -0.8791
  112OSM   H13B11561   1.001   6.347  10.986  0.8803 -3.4856 -1.3506
  112OSM   H13C11562   1.167   6.369  10.992  0.8303  0.2455  0.7840
  112OSM    C1211563   1.039   6.097  10.977  0.4598 -0.1230 -0.0350
  112OSM   H12A11564   1.059   5.991  10.989 -1.2062 -0.3964  0.6172
  112OSM   H12B11565   1.076   6.120  10.879 -0.0811  1.6662  0.1421
  112OSM    C1111566   0.884   6.104  10.972 -0.1542 -0.1664  0.0395
  112OSM   H11A11567   0.846   6.060  11.067 -0.2773  0.7314  0.4157
  112OSM   H11B11568   0.861   6.033  10.890  0.2139 -1.7491  1.2476
  112OSM      P11569   0.685   6.258  10.928 -0.0684 -0.1086  0.3547
  112OSM    O1311570   0.622   6.134  10.982 -0.1045 -0.0329 -0.4957
  112OSM    O1411571   0.628   6.384  10.983 -0.1114  0.4700  0.0740
  112OSM    O1111572   0.674   6.266  10.765 -0.3408  0.6247  0.1388
  112OSM    O1211573   0.838   6.239  10.955  0.0127 -0.2012  0.2940
  112OSM    C1S11574   0.690   6.142  10.691  0.1811  0.1014  0.1661
  112OSM    H1S11575   0.656   6.053  10.749  0.9647  0.1785  0.7591
  112OSM    H1T11576   0.799   6.133  10.673  0.2653  0.5863  0.4107
  112OSM     NF11577   0.616   6.007  10.499  0.2006 -0.0000  0.0642
  112OSM    HNF11578   0.692   5.980  10.441 -0.8159  0.0605 -1.3552
  112OSM    C2S11579   0.623   6.143  10.552 -0.0908  0.6141 -0.0635
  112OSM    H2S11580   0.523   6.188  10.573 -0.0498  0.6989 -0.0482
  112OSM    C3S11581   0.703   6.230  10.453  0.0931 -0.1381  0.2535
  112OSM    H3S11582   0.801   6.179  10.439  0.9102  1.9422 -2.6700
  112OSM     O311583   0.739   6.350  10.517 -0.3303 -0.2856 -0.9753
  112OSM    HO311584   0.704   6.340  10.606 -2.1352 -0.3587 -1.6382
  112OSM    C4S11585   0.634   6.255  10.319  0.3299 -0.0883 -0.4892
  112OSM    H4S11586   0.533   6.297  10.318 -0.5484 -2.0705 -0.8427
  112OSM    C5S11587   0.677   6.218  10.201 -0.8629 -0.3576 -0.0760
  112OSM    H5S11588   0.782   6.191  10.180 -1.6938 -0.7739 -4.8572
  112OSM    C6S11589   0.598   6.239  10.075  0.4778 -0.4098 -0.0802
  112OSM    H6S11590   0.490   6.253  10.096  0.3174  0.0823 -1.1478
  112OSM    H6T11591   0.606   6.157  10.000  0.6909  0.2369 -0.7777
  112OSM    C7S11592   0.637   6.370  10.005 -0.0206 -0.2238  0.0620
  112OSM    H7S11593   0.633   6.452  10.079  2.0383 -0.3214  0.3304
  112OSM    H7T11594   0.562   6.394   9.926 -1.4269  0.7093  1.6173
  112OSM    C8S11595   0.779   6.367   9.942  0.4727  0.2808  0.2414
  112OSM    H8S11596   0.847   6.331  10.022 -0.6820 -1.3220  0.5579
  112OSM    H8T11597   0.803   6.464   9.895  0.9805  0.0186 -0.0570
  112OSM    C9S11598   0.801   6.261   9.821 -0.6127 -0.2365 -0.5721
  112OSM    H9S11599   0.806   6.153   9.848  0.9751 -0.1388 -0.3833
  112OSM    H9T11600   0.906   6.286   9.795 -0.2647 -1.4454 -0.4312
  112OSM   C10S11601   0.721   6.283   9.689 -0.0001  0.3659 -0.2673
  112OSM   H10S11602   0.733   6.384   9.645  0.0991 -0.2242 -1.6307
  112OSM   H10T11603   0.614   6.271   9.720  0.5825  0.9020  2.2431
  112OSM   C11S11604   0.755   6.180   9.573  0.0146 -0.4948  0.0806
  112OSM   H11S11605   0.682   6.194   9.490  0.4543 -1.0246 -0.4082
  112OSM   H11T11606   0.733   6.081   9.618 -0.1202 -0.6254 -0.2648
  112OSM   C12S11607   0.896   6.187   9.523 -0.5208  0.1419  0.5025
  112OSM   H12S11608   0.966   6.145   9.599  0.7077  1.2313  0.0178
  112OSM   H12T11609   0.937   6.288   9.503  0.4492 -0.7836 -2.7086
  112OSM   C13S11610   0.911   6.101   9.397  0.2594 -0.0742 -0.7584
  112OSM   H13S11611   1.008   6.114   9.345  0.6074  0.4108 -0.0105
  112OSM   H13T11612   0.840   6.145   9.324 -0.1390  0.1352 -0.2599
  112OSM   C14S11613   0.889   5.955   9.418  0.8505  0.2363  0.7549
  112OSM   H14S11614   0.783   5.924   9.427  0.9315 -0.6995 -1.0780
  112OSM   H14T11615   0.930   5.926   9.517 -1.5263  0.2924  1.8368
  112OSM   C15S11616   0.959   5.868   9.316  0.3077 -0.3777  0.1885
  112OSM   H15S11617   0.922   5.763   9.329 -1.0780  0.1114  0.3641
  112OSM   H15T11618   1.068   5.862   9.334  0.2884  3.3044  2.3806
  112OSM   C16S11619   0.950   5.907   9.168  0.4727  0.4494 -0.3097
  112OSM   H16S11620   0.990   6.010   9.158  0.9160  0.4085  0.9566
  112OSM   H16T11621   0.840   5.919   9.150  0.4655  0.5932 -0.1716
  112OSM   C17S11622   1.040   5.817   9.087 -0.6047  0.2900  0.5540
  112OSM   H17S11623   1.146   5.807   9.121 -0.3307 -0.0150 -0.3590
  112OSM   H17T11624   1.052   5.864   8.987  0.5317  1.0258  1.0030
  112OSM   C18S11625   0.981   5.672   9.091 -0.2097 -0.7684 -0.6292
  112OSM   H18S11626   0.870   5.675   9.103 -0.3897 -1.6356 -1.8771
  112OSM   H18T11627   1.023   5.627   9.183 -1.1607  1.0866  0.7882
  112OSM   H18U11628   1.003   5.622   8.994  2.9444 -0.1265 -0.3515
  112OSM    C1F11629   0.543   5.913  10.552  0.2818 -0.7798  0.1168
  112OSM     OF11630   0.446   5.943  10.623 -0.0068 -0.9862 -0.1172
  112OSM    C2F11631   0.594   5.774  10.537 -0.1572 -0.2600 -0.1267
  112OSM    H2F11632   0.581   5.725  10.636  0.2125 -0.9475 -0.4093
  112OSM    H2G11633   0.705   5.771  10.530 -0.0361  2.0710 -0.0009
  112OSM    C3F11634   0.527   5.696  10.422  0.5035  0.4079  0.1597
  112OSM    H3F11635   0.430   5.648  10.448  0.5056 -1.3721 -2.6691
  112OSM    H3G11636   0.600   5.615  10.402  1.3255  0.7446  1.6285
  112OSM    C4F11637   0.519   5.775  10.292  1.1096 -0.3249  0.3051
  112OSM    H4F11638   0.623   5.798  10.259  0.3033  1.4550 -1.1948
  112OSM    H4G11639   0.462   5.867  10.319  0.0073 -1.2700  1.2697
  112OSM    C5F11640   0.443   5.687  10.185  0.0413 -0.9958 -0.7228
  112OSM    H5F11641   0.337   5.666  10.209  0.3828 -2.0416 -0.0301
  112OSM    H5G11642   0.488   5.585  10.186 -0.8538 -1.3955 -0.0766
  112OSM    C6F11643   0.454   5.753  10.050 -0.3635 -0.3545 -0.3641
  112OSM    H6F11644   0.554   5.796  10.026 -0.9072  1.1313 -0.0060
  112OSM    H6G11645   0.391   5.844  10.049  2.1696  1.6726  3.1583
  112OSM    C7F11646   0.403   5.669   9.936  0.2835  0.3302 -0.0616
  112OSM    H7F11647   0.295   5.647   9.951  0.1146 -0.2552 -1.9288
  112OSM    H7G11648   0.454   5.572   9.952  1.3580  0.7647 -0.7976
  112OSM    C8F11649   0.419   5.725   9.797 -0.2830 -0.0035 -0.0726
  112OSM    H8F11650   0.356   5.816   9.798 -0.0489  0.1969 -1.3825
  112OSM    H8G11651   0.366   5.666   9.719  1.6217 -0.0638 -1.3943
  112OSM    C9F11652   0.558   5.752   9.745 -0.4836 -0.5880  0.3108
  112OSM    H9F11653   0.580   5.860   9.742 -0.0752 -0.6581  0.7361
  112OSM   C10F11654   0.644   5.675   9.686 -0.1784 -0.1162 -1.2220
  112OSM   H10F11655   0.742   5.711   9.653  0.0630  0.2656 -0.1162
  112OSM   C11F11656   0.618   5.528   9.672 -0.2657  0.0912 -0.1844
  112OSM   H11F11657   0.537   5.490   9.739  1.2104  0.6262  2.0404
  112OSM   H11G11658   0.711   5.477   9.706 -1.2437 -1.9286 -0.3786
  112OSM   C12F11659   0.602   5.486   9.526  0.1597  0.3035 -0.2440
  112OSM   H12F11660   0.509   5.525   9.480 -0.5824 -0.0381  0.9122
  112OSM   H12G11661   0.583   5.376   9.522 -0.4665  0.2396  2.3703
  112OSM   C13F11662   0.724   5.517   9.436 -0.0807 -0.9941  0.0824
  112OSM   H13F11663   0.810   5.485   9.499  0.6821  0.3603 -0.2314
  112OSM   H13G11664   0.738   5.626   9.419 -0.0550 -0.4552  3.0132
  112OSM   C14F11665   0.745   5.439   9.301 -0.0430 -0.7707 -0.0898
  112OSM   H14F11666   0.762   5.331   9.320  1.6880 -0.6405 -0.7736
  112OSM   H14G11667   0.829   5.478   9.240 -0.5510 -0.1985 -0.4463
  112OSM   C15F11668   0.613   5.459   9.215 -0.6921  0.1495 -0.1119
  112OSM   H15F11669   0.600   5.565   9.184  1.9588  0.8587  0.8889
  112OSM   H15G11670   0.520   5.436   9.270 -0.2853  0.1952  0.6111
  112OSM   C16F11671   0.616   5.383   9.081  0.0134 -0.3309  0.1131
  112OSM   H16F11672   0.609   5.275   9.104 -0.5612 -0.0870  1.1310
  112OSM   H16G11673   0.706   5.420   9.027  1.2072 -2.6664  0.4154
  112OSM   C17F11674   0.492   5.428   8.996  0.2934 -0.3841  0.5953
  112OSM   H17F11675   0.487   5.537   9.015  0.7028  0.4147 -3.1282
  112OSM   H17G11676   0.401   5.375   9.033  0.1737 -0.1479  0.6401
  112OSM   C18F11677   0.491   5.402   8.842 -0.3259 -0.0942  0.4374
  112OSM   H18F11678   0.399   5.451   8.803 -0.8533  0.4552  2.2554
  112OSM   H18G11679   0.484   5.297   8.808 -0.5714  0.2002 -0.4532
  112OSM   H18H11680   0.578   5.453   8.798 -1.3232  0.4560 -0.9739
  113OSM      N11681   1.193   5.400  11.261  0.0035  0.2935  0.2969
  113OSM    C1511682   1.235   5.394  11.402 -0.3716 -0.4322 -0.3679
  113OSM   H15A11683   1.276   5.491  11.425  0.7984 -1.0287  0.1621
  113OSM   H15B11684   1.317   5.325  11.416  1.2649  1.2463 -1.2407
  113OSM   H15C11685   1.157   5.366  11.471  0.5309 -1.9247  0.1100
  113OSM    C1411686   1.153   5.260  11.226 -0.4798  0.1514  0.2566
  113OSM   H14A11687   1.066   5.234  11.285  0.4874  1.7707  2.5553
  113OSM   H14B11688   1.240   5.198  11.244 -0.2898  0.5908  0.8743
  113OSM   H14C11689   1.128   5.269  11.122 -0.8195  2.5962  0.4885
  113OSM    C1311690   1.073   5.491  11.254  0.9334  0.6488  0.0799
  113OSM   H13A11691   1.059   5.526  11.153 -2.2968  3.3235  1.2828
  113OSM   H13B11692   1.083   5.581  11.311  0.4677  0.5681  0.2947
  113OSM   H13C11693   0.979   5.444  11.279  0.3767  1.9801  0.5749
  113OSM    C1211694   1.300   5.444  11.175 -0.1720 -1.0609  1.3612
  113OSM   H12A11695   1.386   5.382  11.199  3.2595  2.6433 -0.1899
  113OSM   H12B11696   1.347   5.538  11.200  1.0572 -1.0510 -0.6881
  113OSM    C1111697   1.273   5.450  11.019  0.5159 -0.2108 -0.3552
  113OSM   H11A11698   1.222   5.355  10.991  2.5928 -1.1345 -1.1962
  113OSM   H11B11699   1.369   5.455  10.964  0.6888  0.9439  0.0137
  113OSM      P11700   1.235   5.704  10.973 -0.0466  0.2376  0.0855
  113OSM    O1311701   1.117   5.790  10.990  0.0602  0.0635 -0.9077
  113OSM    O1411702   1.352   5.728  11.061  0.3422 -0.5967 -0.0428
  113OSM    O1111703   1.280   5.722  10.819  0.0524  0.2589 -0.3721
  113OSM    O1211704   1.180   5.559  10.990 -0.1914  0.1165 -0.0368
  113OSM    C1S11705   1.321   5.604  10.749  0.0693  0.6620  0.8168
  113OSM    H1S11706   1.241   5.528  10.743  1.5263 -0.9420  0.9860
  113OSM    H1T11707   1.412   5.568  10.802  0.2131  0.7164  0.6082
  113OSM     NF11708   1.365   5.555  10.509 -0.0871 -1.0893  0.2355
  113OSM    HNF11709   1.451   5.551  10.459  0.7713  0.2672  1.5152
  113OSM    C2S11710   1.363   5.658  10.613  0.1421  0.3725  0.2700
  113OSM    H2S11711   1.281   5.730  10.592 -2.1084 -1.1567  3.0544
  113OSM    C3S11712   1.496   5.740  10.614  0.3356  0.2361 -0.0043
  113OSM    H3S11713   1.587   5.678  10.627  1.3202  1.9226  1.8879
  113OSM     O311714   1.502   5.834  10.724 -0.4503 -0.5122 -0.4058
  113OSM    HO311715   1.429   5.806  10.780 -0.4394 -0.1804 -0.2267
  113OSM    C4S11716   1.505   5.810  10.482 -0.2293  0.4089  0.1658
  113OSM    H4S11717   1.572   5.759  10.411 -0.4841  1.7504 -1.1050
  113OSM    C5S11718   1.455   5.929  10.442  0.1427  0.4923 -0.0152
  113OSM    H5S11719   1.388   5.994  10.501  0.5847  0.1017  0.9386
  113OSM    C6S11720   1.481   5.993  10.306 -0.2102  0.6390  0.2274
  113OSM    H6S11721   1.532   6.092  10.316 -0.8946  0.9478  0.7406
  113OSM    H6T11722   1.386   6.007  10.251 -0.4155 -3.0207 -0.6142
  113OSM    C7S11723   1.559   5.911  10.201 -0.0219 -0.6046  0.2598
  113OSM    H7S11724   1.507   5.818  10.171  0.1928 -0.0702 -1.9689
  113OSM    H7T11725   1.658   5.879  10.240  0.3800  0.8397  0.4830
  113OSM    C8S11726   1.580   5.996  10.069 -0.2457  0.6820 -0.4140
  113OSM    H8S11727   1.656   6.076  10.084 -1.7087  2.1223 -0.5097
  113OSM    H8T11728   1.483   6.043  10.043 -1.7759 -1.2216  1.4756
  113OSM    C9S11729   1.635   5.906   9.961 -0.7707  0.1668  0.3091
  113OSM    H9S11730   1.576   5.812   9.955 -0.1874 -0.1473 -1.1875
  113OSM    H9T11731   1.740   5.878   9.985 -0.6292 -2.7814 -2.9836
  113OSM   C10S11732   1.624   5.969   9.821 -0.1705  0.4818 -1.0027
  113OSM   H10S11733   1.672   6.070   9.824  0.0400  0.3842 -1.0770
  113OSM   H10T11734   1.517   5.979   9.795 -0.8575 -0.9376  1.0645
  113OSM   C11S11735   1.706   5.883   9.723  0.2363  0.1127  0.0607
  113OSM   H11S11736   1.663   5.780   9.725  0.6374 -0.0837 -0.8093
  113OSM   H11T11737   1.805   5.881   9.772 -0.5649  2.0754  1.9352
  113OSM   C12S11738   1.714   5.943   9.580  0.1618 -0.3439 -0.0124
  113OSM   H12S11739   1.767   6.041   9.570 -0.7672  0.3114  1.1668
  113OSM   H12T11740   1.617   5.954   9.528  0.0858  2.3885  0.5457
  113OSM   C13S11741   1.790   5.840   9.493  0.6114 -0.9800  0.5014
  113OSM   H13S11742   1.748   5.737   9.492 -0.8786 -0.3983  0.7550
  113OSM   H13T11743   1.895   5.828   9.527  1.4790  2.4657 -0.6299
  113OSM   C14S11744   1.802   5.894   9.346  0.4857  0.0504 -0.6163
  113OSM   H14S11745   1.886   5.967   9.345  0.2069  0.4254 -2.9979
  113OSM   H14T11746   1.701   5.924   9.311  0.7137 -1.0739 -2.3116
  113OSM   C15S11747   1.832   5.782   9.256  0.1147  0.4151  0.2076
  113OSM   H15S11748   1.753   5.705   9.260  3.1627 -2.9852  0.3918
  113OSM   H15T11749   1.919   5.723   9.291 -0.6799 -1.3472 -0.7015
  113OSM   C16S11750   1.864   5.828   9.111  0.6878 -0.0106  0.2228
  113OSM   H16S11751   1.964   5.877   9.117  0.3308  0.6227  1.5657
  113OSM   H16T11752   1.798   5.906   9.066  2.5072  0.8257 -1.1031
  113OSM   C17S11753   1.872   5.715   9.012 -0.1155  1.0807 -0.1229
  113OSM   H17S11754   1.773   5.664   9.015  0.5297 -0.1870  1.7210
  113OSM   H17T11755   1.942   5.635   9.044 -0.4614  1.6122  2.1085
  113OSM   C18S11756   1.926   5.753   8.878 -0.5196  0.2005  0.0838
  113OSM   H18S11757   1.895   5.684   8.797  3.2512 -1.4563 -0.1340
  113OSM   H18T11758   2.035   5.772   8.879  0.1926 -3.3090 -0.3909
  113OSM   H18U11759   1.883   5.855   8.863  0.8994  0.9715  1.0129
  113OSM    C1F11760   1.256   5.490  10.457  0.2466 -0.1668 -0.1786
  113OSM     OF11761   1.145   5.537  10.492 -0.6477  1.0485 -0.0564
  113OSM    C2F11762   1.277   5.382  10.354 -0.6161 -0.1564 -0.4307
  113OSM    H2F11763   1.282   5.297  10.426  0.6310 -0.3811 -0.7669
  113OSM    H2G11764   1.378   5.393  10.308  0.2924 -1.7464  1.0681
  113OSM    C3F11765   1.160   5.367  10.255 -0.5647  0.1453 -0.6469
  113OSM    H3F11766   1.140   5.459  10.195 -0.1621 -0.3439 -1.5564
  113OSM    H3G11767   1.069   5.338  10.312  1.1731  0.6867  2.6516
  113OSM    C4F11768   1.180   5.252  10.162 -0.8256 -0.1897 -0.2289
  113OSM    H4F11769   1.093   5.248  10.093 -0.9807 -0.0997 -0.0402
  113OSM    H4G11770   1.195   5.153  10.210  3.4193  0.1090 -0.5148
  113OSM    C5F11771   1.290   5.265  10.054  0.1096  0.2020  0.2031
  113OSM    H5F11772   1.385   5.242  10.107 -0.4424  0.5546  1.3949
  113OSM    H5G11773   1.303   5.372  10.025  0.6402  0.8092  2.4705
  113OSM    C6F11774   1.263   5.177   9.936  0.1221 -0.0556  0.6314
  113OSM    H6F11775   1.176   5.215   9.878  1.0966 -1.6628 -2.0919
  113OSM    H6G11776   1.235   5.072   9.960  0.4093 -0.9788 -2.5470
  113OSM    C7F11777   1.382   5.179   9.833  0.1230 -0.1281 -0.3203
  113OSM    H7F11778   1.475   5.139   9.877 -0.0732 -0.0204  0.1928
  113OSM    H7G11779   1.406   5.286   9.818 -0.3847  0.4036  2.1979
  113OSM    C8F11780   1.362   5.095   9.705 -0.1655  0.8179 -0.4361
  113OSM    H8F11781   1.255   5.068   9.691 -0.4366  0.9397  1.2533
  113OSM    H8G11782   1.427   5.007   9.722  1.9684  2.3266 -0.3168
  113OSM    C9F11783   1.408   5.172   9.583 -0.1124 -0.0436 -0.2050
  113OSM    H9F11784   1.361   5.271   9.572  1.4915  0.7542 -0.0605
  113OSM   C10F11785   1.489   5.131   9.480  0.0901 -0.4505 -0.3020
  113OSM   H10F11786   1.507   5.195   9.393 -1.1526 -0.3517 -0.5040
  113OSM   C11F11787   1.537   4.993   9.458 -0.5606  0.2057  0.0144
  113OSM   H11F11788   1.499   4.913   9.526 -0.9741 -1.8511 -2.4731
  113OSM   H11G11789   1.647   4.991   9.473 -0.6575  1.0902  0.9635
  113OSM   C12F11790   1.509   4.952   9.311 -0.1705  0.6501  0.6353
  113OSM   H12F11791   1.576   4.866   9.288 -0.3441  0.5212  0.6074
  113OSM   H12G11792   1.539   5.043   9.254  2.2902 -0.0810  0.6663
  113OSM   C13F11793   1.365   4.912   9.285  0.1504  0.2516 -0.1129
  113OSM   H13F11794   1.302   4.998   9.317  1.1905  1.0454 -0.1314
  113OSM   H13G11795   1.346   4.814   9.334 -2.0596  0.7613  0.1530
  113OSM   C14F11796   1.340   4.889   9.132  0.4093 -0.2464 -0.5868
  113OSM   H14F11797   1.413   4.815   9.092  0.5397  0.1213 -1.0281
  113OSM   H14G11798   1.344   4.982   9.072 -0.4944 -0.4296 -0.9519
  113OSM   C15F11799   1.197   4.830   9.108  0.2320  0.5184  0.1340
  113OSM   H15F11800   1.204   4.726   9.146  0.3346  0.0739 -1.0661
  113OSM   H15G11801   1.174   4.822   9.000 -0.3587  1.5240  0.1745
  113OSM   C16F11802   1.081   4.909   9.177 -0.3623  0.3401  0.0384
  113OSM   H16F11803   1.081   4.903   9.288  2.3076 -3.3115  0.0453
  113OSM   H16G11804   0.992   4.848   9.147 -0.4859  1.5075 -2.1459
  113OSM   C17F11805   1.060   5.053   9.134 -0.0538 -0.0169  0.0300
  113OSM   H17F11806   1.046   5.063   9.024  0.4886 -1.0408 -0.1463
  113OSM   H17G11807   1.150   5.109   9.168  0.6163 -0.0377 -1.6170
  113OSM   C18F11808   0.937   5.126   9.190 -0.3425 -0.2055  0.7827
  113OSM   H18F11809   0.957   5.141   9.298  0.3478 -0.0402  0.6345
  113OSM   H18G11810   0.836   5.084   9.171 -0.0624  0.3132 -2.5456
  113OSM   H18H11811   0.934   5.233   9.161  2.5470 -0.2717 -0.0462
  114OSM      N11812   1.414   2.781  11.395 -0.0640  0.3589  0.3766
  114OSM    C1511813   1.527   2.692  11.350  0.2762  0.0910  1.0104
  114OSM   H15A11814   1.487   2.596  11.322  1.1119 -0.7462  2.5775
  114OSM   H15B11815   1.596   2.668  11.429 -1.8168 -2.4489  2.2164
  114OSM   H15C11816   1.571   2.741  11.265 -1.2279 -0.1646  0.0446
  114OSM    C1411817   1.338   2.715  11.505 -0.2897  1.3238  0.0527
  114OSM   H14A11818   1.267   2.785  11.547 -0.0551  1.3393  0.4258
  114OSM   H14B11819   1.399   2.693  11.591 -0.7182  0.2200  0.0866
  114OSM   H14C11820   1.294   2.625  11.466 -1.3814  2.2048 -0.8318
  114OSM    C1311821   1.469   2.911  11.452  0.3372 -0.2477 -0.0881
  114OSM   H13A11822   1.388   2.954  11.509  1.0374  0.8025  0.1279
  114OSM   H13B11823   1.490   2.983  11.375  1.7474  0.6708  1.1131
  114OSM   H13C11824   1.559   2.895  11.509  2.7561  0.2105 -3.4359
  114OSM    C1211825   1.318   2.816  11.279 -0.5320 -0.7027 -0.2028
  114OSM   H12A11826   1.254   2.897  11.312  3.8613  2.9637  0.3126
  114OSM   H12B11827   1.257   2.730  11.258  0.2907 -1.6247  1.0277
  114OSM    C1111828   1.370   2.859  11.137 -0.3443 -0.5886  0.8195
  114OSM   H11A11829   1.283   2.898  11.080  1.9337  0.4802 -2.1721
  114OSM   H11B11830   1.416   2.776  11.079  1.8877  1.5042 -0.5652
  114OSM      P11831   1.439   3.112  11.129  0.4871 -0.1832  0.1259
  114OSM    O1311832   1.344   3.152  11.233  0.9132 -0.1542  0.1027
  114OSM    O1411833   1.569   3.181  11.125 -0.0678  0.1020 -0.7531
  114OSM    O1111834   1.369   3.132  10.989  0.5893 -0.5249 -0.2977
  114OSM    O1211835   1.471   2.966  11.146  0.4257  0.1561 -0.0648
  114OSM    C1S11836   1.450   3.144  10.864  0.9773 -0.0147 -0.5905
  114OSM    H1S11837   1.480   3.039  10.841 -0.0555 -0.7220  1.0936
  114OSM    H1T11838   1.545   3.195  10.890  1.2518 -1.4067  1.4286
  114OSM     NF11839   1.448   3.219  10.627 -0.1176  0.0195 -0.2293
  114OSM    HNF11840   1.479   3.308  10.594  1.4841 -0.1794  0.6664
  114OSM    C2S11841   1.369   3.219  10.751  0.0367 -0.7430  0.9170
  114OSM    H2S11842   1.279   3.158  10.729 -0.1119 -1.1920  2.6741
  114OSM    C3S11843   1.319   3.361  10.784  0.0331 -0.0817 -0.5480
  114OSM    H3S11844   1.406   3.426  10.806  0.0685 -1.4005  4.5254
  114OSM     O311845   1.255   3.358  10.908  0.0042 -0.4578  0.2068
  114OSM    HO311846   1.293   3.276  10.941 -1.2906 -0.9181  0.6151
  114OSM    C4S11847   1.224   3.424  10.683  0.1323 -0.0070  0.5280
  114OSM    H4S11848   1.121   3.389  10.671 -0.0151  1.0944 -2.2885
  114OSM    C5S11849   1.266   3.528  10.607 -0.0446  0.5162 -0.0317
  114OSM    H5S11850   1.371   3.561  10.612 -0.1336  0.6218  1.6008
  114OSM    C6S11851   1.177   3.599  10.504 -0.2313 -0.1523  0.5082
  114OSM    H6S11852   1.232   3.658  10.429 -0.4823 -0.9216 -0.3014
  114OSM    H6T11853   1.131   3.681  10.564 -1.8559  0.5202 -1.5271
  114OSM    C7S11854   1.069   3.523  10.428 -0.4209 -0.6312  0.2516
  114OSM    H7S11855   1.008   3.598  10.374  0.3216 -0.6574 -0.6394
  114OSM    H7T11856   1.000   3.482  10.505 -0.5072 -1.8891 -0.4723
  114OSM    C8S11857   1.128   3.413  10.335  0.1382 -0.0627  0.5440
  114OSM    H8S11858   1.041   3.376  10.277 -1.1541  1.6283  1.3056
  114OSM    H8T11859   1.176   3.336  10.398  0.9190 -0.7422 -0.8439
  114OSM    C9S11860   1.229   3.474  10.234 -0.2052  0.0237  0.3154
  114OSM    H9S11861   1.314   3.525  10.283  2.2650 -2.1520 -1.3838
  114OSM    H9T11862   1.170   3.552  10.182 -1.3294  0.4782  2.1761
  114OSM   C10S11863   1.279   3.380  10.111 -0.1465  0.6887 -0.2268
  114OSM   H10S11864   1.348   3.307  10.158  1.0461  0.1497 -2.6626
  114OSM   H10T11865   1.338   3.431  10.031  3.1673 -1.2513  0.7806
  114OSM   C11S11866   1.175   3.301  10.036  0.8071 -0.4392  0.4280
  114OSM   H11S11867   1.108   3.381   9.999  1.0439 -0.6080 -0.3778
  114OSM   H11T11868   1.120   3.231  10.103  0.2396 -1.7795 -1.3618
  114OSM   C12S11869   1.231   3.214   9.922  0.3165 -0.1831 -0.7512
  114OSM   H12S11870   1.307   3.148   9.970 -1.6466 -3.4043 -1.7383
  114OSM   H12T11871   1.271   3.277   9.841 -0.9420  2.3458  0.4688
  114OSM   C13S11872   1.114   3.130   9.868  0.1627 -0.3854  0.6976
  114OSM   H13S11873   1.036   3.208   9.857  1.6065  0.9068 -0.9200
  114OSM   H13T11874   1.094   3.048   9.941  1.0997 -1.6135 -0.3750
  114OSM   C14S11875   1.154   3.076   9.729  0.8171  0.1605  0.3874
  114OSM   H14S11876   1.174   3.163   9.664  1.5671 -1.7174 -2.0397
  114OSM   H14T11877   1.063   3.019   9.700  0.1146 -0.2587  3.1186
  114OSM   C15S11878   1.275   2.985   9.738 -0.0551  0.4273  0.5459
  114OSM   H15S11879   1.239   2.902   9.802 -0.2565 -1.2459 -1.5872
  114OSM   H15T11880   1.351   3.051   9.784 -2.5190  2.9493  1.2551
  114OSM   C16S11881   1.315   2.953   9.597  0.0910  0.3043 -0.5603
  114OSM   H16S11882   1.426   2.966   9.594  0.1766 -0.1985  0.0843
  114OSM   H16T11883   1.264   3.004   9.513 -1.7666 -1.4445 -0.5613
  114OSM   C17S11884   1.303   2.798   9.568  0.2298 -0.2153 -0.2119
  114OSM   H17S11885   1.197   2.771   9.587  0.3623  0.5521  1.9417
  114OSM   H17T11886   1.360   2.746   9.648  0.8571  2.0972  0.9599
  114OSM   C18S11887   1.363   2.748   9.434 -0.9157  0.0553 -0.1839
  114OSM   H18S11888   1.302   2.791   9.352 -2.4471 -0.5219  0.6164
  114OSM   H18T11889   1.354   2.638   9.429  2.1303 -0.3785  1.3454
  114OSM   H18U11890   1.471   2.770   9.416 -1.1623 -0.5701 -2.7100
  114OSM    C1F11891   1.467   3.111  10.553 -0.2125 -0.2453  0.0067
  114OSM     OF11892   1.416   3.002  10.581  0.1611  0.3123 -0.3172
  114OSM    C2F11893   1.528   3.124  10.420  0.2936 -0.4574 -0.0984
  114OSM    H2F11894   1.632   3.162  10.427  0.0656 -0.1184  2.0711
  114OSM    H2G11895   1.473   3.195  10.354  0.9694 -1.3733 -1.7097
  114OSM    C3F11896   1.516   2.988  10.339 -0.7158 -0.1173 -0.5768
  114OSM    H3F11897   1.415   2.942  10.349 -1.0938  0.1432 -2.8246
  114OSM    H3G11898   1.587   2.918  10.388 -1.8787 -1.2216 -0.4157
  114OSM    C4F11899   1.549   3.011  10.196  0.3604  0.1230 -0.2549
  114OSM    H4F11900   1.634   3.081  10.183 -0.2712  1.1905  1.1120
  114OSM    H4G11901   1.465   3.072  10.155 -0.1232 -0.2673  0.1424
  114OSM    C5F11902   1.582   2.885  10.115  0.1913  0.5403 -0.1009
  114OSM    H5F11903   1.493   2.819  10.121  1.6017 -1.3566  1.2582
  114OSM    H5G11904   1.678   2.843  10.152  0.3086 -0.2517 -1.2641
  114OSM    C6F11905   1.614   2.914   9.971  0.2252  0.8777  0.3352
  114OSM    H6F11906   1.696   2.986   9.947 -0.2160  1.0945 -0.5515
  114OSM    H6G11907   1.520   2.959   9.934  0.5823 -0.8252 -2.9894
  114OSM    C7F11908   1.627   2.789   9.879  0.0842 -0.1501  0.7214
  114OSM    H7F11909   1.576   2.806   9.782 -2.3448 -0.7958  1.7975
  114OSM    H7G11910   1.577   2.708   9.938 -1.4612 -0.4759 -0.9494
  114OSM    C8F11911   1.778   2.761   9.869  0.3433 -0.4676  0.4520
  114OSM    H8F11912   1.814   2.754   9.974  3.5670  2.5887 -0.2554
  114OSM    H8G11913   1.820   2.854   9.825  1.8391  0.0627  2.8317
  114OSM    C9F11914   1.809   2.637   9.792  0.7456  1.0780  0.3524
  114OSM    H9F11915   1.806   2.546   9.853 -0.0950 -1.2668 -2.8962
  114OSM   C10F11916   1.830   2.614   9.664  0.2597 -0.5100  0.5869
  114OSM   H10F11917   1.844   2.508   9.639 -0.4173 -0.4712  0.0088
  114OSM   C11F11918   1.823   2.701   9.535 -0.2372 -0.4354  0.3189
  114OSM   H11F11919   1.929   2.724   9.512 -0.4811 -0.2359 -0.6236
  114OSM   H11G11920   1.768   2.796   9.555  0.1234 -0.3516  0.9463
  114OSM   C12F11921   1.752   2.633   9.422  0.3930 -0.1704  0.0050
  114OSM   H12F11922   1.661   2.581   9.459  1.8689 -1.7131  1.6961
  114OSM   H12G11923   1.828   2.561   9.383  1.5504 -0.7162  2.9924
  114OSM   C13F11924   1.731   2.727   9.298 -0.2896 -0.4618 -0.0937
  114OSM   H13F11925   1.816   2.798   9.300  0.6212 -1.5645  1.1077
  114OSM   H13G11926   1.638   2.787   9.314  0.0667  0.4463 -1.2905
  114OSM   C14F11927   1.736   2.640   9.175  0.4859 -0.0536 -0.1376
  114OSM   H14F11928   1.703   2.535   9.193  1.9219 -0.4057  0.6088
  114OSM   H14G11929   1.843   2.643   9.144  0.2352 -0.7347 -1.1179
  114OSM   C15F11930   1.642   2.700   9.067  0.2789  0.3610  0.0935
  114OSM   H15F11931   1.653   2.810   9.050 -0.6475  0.5167  0.4106
  114OSM   H15G11932   1.536   2.680   9.095  0.2966  1.4146  1.0174
  114OSM   C16F11933   1.663   2.643   8.926  0.0284  0.4483 -1.4791
  114OSM   H16F11934   1.657   2.532   8.917  1.8405  0.4486 -3.4145
  114OSM   H16G11935   1.766   2.667   8.895 -0.0666  0.2670 -1.9457
  114OSM   C17F11936   1.565   2.693   8.817  0.3012 -1.1114  0.2557
  114OSM   H17F11937   1.575   2.803   8.803 -0.1729 -1.1641 -0.5847
  114OSM   H17G11938   1.462   2.671   8.854  0.8327 -0.6603  2.0832
  114OSM   C18F11939   1.596   2.639   8.682 -0.4518  0.3968 -0.1477
  114OSM   H18F11940   1.561   2.534   8.676 -0.2242  0.0653  2.7391
  114OSM   H18G11941   1.702   2.627   8.653 -0.3479  0.2720  0.2803
  114OSM   H18H11942   1.548   2.698   8.600  1.9087  1.6801 -0.6854
  115OSM      N11943   2.708   1.369   6.007  0.4320  0.6326  0.1713
  115OSM    C1511944   2.567   1.340   5.953 -0.7816 -0.8753  0.0933
  115OSM   H15A11945   2.489   1.387   6.012 -1.3136  1.8515 -2.5205
  115OSM   H15B11946   2.561   1.236   5.926 -0.9309 -0.8360 -0.0255
  115OSM   H15C11947   2.561   1.391   5.858 -1.1665 -0.3292  0.4036
  115OSM    C1411948   2.810   1.295   5.927  0.0909 -0.8958 -0.6464
  115OSM   H14A11949   2.798   1.188   5.937 -0.5951 -0.8820 -1.2182
  115OSM   H14B11950   2.909   1.313   5.968 -0.0729 -1.4564  0.0151
  115OSM   H14C11951   2.824   1.318   5.822  5.7592 -2.5084 -0.6083
  115OSM    C1311952   2.732   1.514   5.998  0.3178 -0.0556  0.0548
  115OSM   H13A11953   2.689   1.552   5.907  0.4549 -2.5668 -1.1357
  115OSM   H13B11954   2.835   1.537   6.022  0.2219 -2.2678  3.1582
  115OSM   H13C11955   2.677   1.556   6.082  1.3101  2.5320 -0.4889
  115OSM    C1211956   2.723   1.314   6.148  0.7331 -0.1105 -0.2494
  115OSM   H12A11957   2.824   1.334   6.180  1.4101 -0.5515 -1.9912
  115OSM   H12B11958   2.711   1.207   6.139 -1.1248  0.2048 -3.3473
  115OSM    C1111959   2.618   1.371   6.251 -0.1213 -0.5493  0.7183
  115OSM   H11A11960   2.614   1.479   6.229 -1.3296 -0.8380 -0.6134
  115OSM   H11B11961   2.658   1.359   6.354 -1.6344  0.4073  1.4490
  115OSM      P11962   2.450   1.165   6.257 -0.1834  0.0044  0.1708
  115OSM    O1311963   2.308   1.136   6.227 -0.8370  0.1734  0.4102
  115OSM    O1411964   2.554   1.083   6.188 -0.2683 -0.2112  0.1679
  115OSM    O1111965   2.452   1.162   6.419 -0.1303  1.0128 -0.1037
  115OSM    O1211966   2.481   1.324   6.236 -0.2098 -0.3357  0.0425
  115OSM    C1S11967   2.464   1.029   6.480  0.1384  0.1898 -0.1777
  115OSM    H1S11968   2.552   0.972   6.441  0.1656  0.6288 -0.7624
  115OSM    H1T11969   2.369   0.974   6.466 -0.3289  1.3500 -1.7659
  115OSM     NF11970   2.503   0.903   6.705 -0.0399  0.1898  0.5089
  115OSM    HNF11971   2.425   0.864   6.753  0.5901 -1.6286  0.1408
  115OSM    C2S11972   2.477   1.032   6.644 -0.6825 -0.6357  0.4818
  115OSM    H2S11973   2.565   1.092   6.673 -1.9061  0.5114  1.9923
  115OSM    C3S11974   2.356   1.114   6.702 -0.4072 -0.3398 -0.3500
  115OSM    H3S11975   2.266   1.050   6.694 -1.1944  0.7937 -0.8899
  115OSM     O311976   2.327   1.233   6.626  0.1500 -0.3551  0.8682
  115OSM    HO311977   2.376   1.243   6.545  0.1600  0.2255  0.9361
  115OSM    C4S11978   2.377   1.152   6.847  0.4786  0.2367 -0.5496
  115OSM    H4S11979   2.354   1.076   6.924 -1.1791  0.2820 -0.9713
  115OSM    C5S11980   2.430   1.261   6.902 -0.2512  0.4078  0.4911
  115OSM    H5S11981   2.468   1.335   6.831 -0.7602 -1.8162 -2.2942
  115OSM    C6S11982   2.455   1.301   7.043  0.0195  0.1762 -0.1162
  115OSM    H6S11983   2.395   1.390   7.073  0.7455  0.6624 -0.0820
  115OSM    H6T11984   2.560   1.337   7.047  0.2897 -0.0865 -2.9682
  115OSM    C7S11985   2.445   1.197   7.157  0.0246  0.1246  0.1378
  115OSM    H7S11986   2.504   1.109   7.122 -2.3185  0.3500 -5.4459
  115OSM    H7T11987   2.345   1.153   7.178  0.0803  1.0051  2.4314
  115OSM    C8S11988   2.491   1.248   7.298  0.8763  0.1517  0.2344
  115OSM    H8S11989   2.592   1.286   7.269  0.5056  0.1019 -1.2245
  115OSM    H8T11990   2.502   1.162   7.367  1.2379 -0.7429 -0.9032
  115OSM    C9S11991   2.413   1.361   7.362  0.3807 -0.3115 -0.1259
  115OSM    H9S11992   2.341   1.325   7.439 -0.4786 -1.7374 -1.5244
  115OSM    H9T11993   2.359   1.416   7.283 -2.5619 -1.0266  1.2417
  115OSM   C10S11994   2.520   1.454   7.431 -0.6966 -0.7545 -0.3280
  115OSM   H10S11995   2.600   1.486   7.361  0.5127 -0.4403  1.1478
  115OSM   H10T11996   2.568   1.382   7.500 -0.5157  1.3891  1.9630
  115OSM   C11S11997   2.459   1.573   7.511 -0.1445  0.7497  0.2490
  115OSM   H11S11998   2.418   1.644   7.435 -1.5946 -1.7764 -1.4828
  115OSM   H11T11999   2.529   1.635   7.571  0.8812  1.2948 -1.4214
  115OSM   C12S12000   2.330   1.541   7.589 -0.7058  0.8643  0.8092
  115OSM   H12S12001   2.350   1.456   7.658 -2.8545 -1.2462 -0.9866
  115OSM   H12T12002   2.252   1.512   7.515  1.3300  0.0453 -1.1226
  115OSM   C13S12003   2.282   1.671   7.663  0.7195 -0.4958 -0.0736
  115OSM   H13S12004   2.278   1.753   7.588  0.7077  0.8551  1.3475
  115OSM   H13T12005   2.352   1.682   7.749 -1.0885  1.0963  1.2722
  115OSM   C14S12006   2.141   1.650   7.725 -0.7036 -0.1439  0.1085
  115OSM   H14S12007   2.155   1.563   7.792  1.9552  0.4748  0.4451
  115OSM   H14T12008   2.075   1.626   7.639  0.8490  0.8428 -1.4180
  115OSM   C15S12009   2.092   1.782   7.795 -0.6130 -0.5546  0.2015
  115OSM   H15S12010   2.116   1.866   7.727  1.0032 -2.4543 -1.7398
  115OSM   H15T12011   2.159   1.794   7.882 -0.8628  1.7382  0.1252
  115OSM   C16S12012   1.944   1.772   7.829 -0.0189 -0.7172 -1.0430
  115OSM   H16S12013   1.921   1.688   7.897  0.8804  0.5100  0.8433
  115OSM   H16T12014   1.905   1.751   7.727  1.4428  0.1131 -1.8155
  115OSM   C17S12015   1.869   1.888   7.880 -0.3046 -0.5445 -0.0404
  115OSM   H17S12016   1.777   1.862   7.936  0.8155  0.0492  2.2027
  115OSM   H17T12017   1.828   1.940   7.791 -0.5331 -2.9255 -1.4158
  115OSM   C18S12018   1.937   1.988   7.979  0.0392  0.2808  0.5465
  115OSM   H18S12019   2.010   1.930   8.040  1.4329  2.5660  1.1924
  115OSM   H18T12020   1.865   2.045   8.043 -0.9798 -0.4223  0.0454
  115OSM   H18U12021   2.005   2.058   7.925  0.8279 -0.2666  0.8139
  115OSM    C1F12022   2.617   0.837   6.691 -0.0698  0.2886 -0.1948
  115OSM     OF12023   2.695   0.874   6.607 -0.8174 -0.2638  0.0809
  115OSM    C2F12024   2.648   0.719   6.784 -0.4675 -0.3244  0.6272
  115OSM    H2F12025   2.749   0.686   6.754 -1.1166 -1.0047 -0.9209
  115OSM    H2G12026   2.582   0.633   6.761  0.2273 -0.6109 -0.3153
  115OSM    C3F12027   2.617   0.750   6.928 -1.0145 -0.1189 -0.7585
  115OSM    H3F12028   2.652   0.661   6.985 -1.1224  1.3269  1.7462
  115OSM    H3G12029   2.508   0.750   6.949 -0.7302  1.1129  1.0389
  115OSM    C4F12030   2.694   0.873   6.984  0.3615 -0.0194 -0.0272
  115OSM    H4F12031   2.650   0.971   6.955  0.4561 -0.2797 -1.1019
  115OSM    H4G12032   2.790   0.878   6.929 -0.7200 -0.5564 -2.0999
  115OSM    C5F12033   2.721   0.872   7.137  0.8453  0.1494 -0.0050
  115OSM    H5F12034   2.776   0.783   7.174  0.5719  0.6010  1.5462
  115OSM    H5G12035   2.623   0.862   7.189  1.2831 -1.6440  0.5465
  115OSM    C6F12036   2.795   0.999   7.180 -0.3681  0.2449 -0.4838
  115OSM    H6F12037   2.723   1.084   7.174  0.7545  1.4524  1.8694
  115OSM    H6G12038   2.874   1.020   7.104 -0.0159  0.6414 -0.0168
  115OSM    C7F12039   2.855   0.974   7.312  0.5268  0.3252 -0.7309
  115OSM    H7F12040   2.947   1.035   7.322  0.6807  0.0549 -0.4712
  115OSM    H7G12041   2.898   0.871   7.306  1.9655  0.9877 -2.9072
  115OSM    C8F12042   2.774   0.989   7.439  0.3536 -0.2665  0.8337
  115OSM    H8F12043   2.686   0.922   7.437  1.9263 -2.4610  1.7399
  115OSM    H8G12044   2.729   1.091   7.435  1.6656  0.3055 -2.5516
  115OSM    C9F12045   2.860   0.968   7.566 -0.2749 -0.4765 -1.2162
  115OSM    H9F12046   2.863   0.865   7.603 -0.2106  0.3455  1.2012
  115OSM   C10F12047   2.905   1.063   7.650  0.8735 -0.7514 -0.2793
  115OSM   H10F12048   2.945   1.032   7.747 -0.7610  1.6473  1.2434
  115OSM   C11F12049   2.883   1.212   7.646  0.4958 -0.3601  0.5949
  115OSM   H11F12050   2.825   1.253   7.561  0.1535 -1.4854  0.2654
  115OSM   H11G12051   2.983   1.252   7.618  0.1952 -0.7620 -1.1926
  115OSM   C12F12052   2.823   1.264   7.771  0.4787 -0.0695  0.1582
  115OSM   H12F12053   2.850   1.372   7.776 -3.2235  0.9752  0.6775
  115OSM   H12G12054   2.867   1.206   7.854 -1.1349 -0.5244  0.7114
  115OSM   C13F12055   2.673   1.259   7.769 -0.2816  0.2069 -0.6332
  115OSM   H13F12056   2.648   1.153   7.750  1.3406 -0.4239  0.5355
  115OSM   H13G12057   2.649   1.318   7.678 -1.6257 -0.5853 -0.8153
  115OSM   C14F12058   2.606   1.313   7.889  0.0185  0.4455  0.5754
  115OSM   H14F12059   2.629   1.254   7.981 -1.4825 -0.4720  0.3867
  115OSM   H14G12060   2.500   1.282   7.876  0.3552 -1.2599  1.5928
  115OSM   C15F12061   2.603   1.463   7.922  0.4950  0.2399  1.1648
  115OSM   H15F12062   2.582   1.523   7.831  0.5154  0.8180  1.5406
  115OSM   H15G12063   2.699   1.500   7.963  1.1040  1.6897 -1.3754
  115OSM   C16F12064   2.503   1.481   8.034 -0.2751 -0.3564  0.3800
  115OSM   H16F12065   2.555   1.459   8.130  0.0213 -1.4183 -0.0233
  115OSM   H16G12066   2.416   1.412   8.030  0.4544 -1.4390  2.0148
  115OSM   C17F12067   2.464   1.634   8.039  0.2264 -0.1067 -0.0057
  115OSM   H17F12068   2.385   1.670   7.970  1.6372  3.3172 -0.0057
  115OSM   H17G12069   2.556   1.690   8.012 -0.2600 -0.7199 -3.4178
  115OSM   C18F12070   2.415   1.671   8.186 -0.3291  0.1860  0.3222
  115OSM   H18F12071   2.320   1.623   8.215  0.7784 -3.0093 -0.9332
  115OSM   H18G12072   2.389   1.779   8.188  0.7854  0.4606  2.0318
  115OSM   H18H12073   2.495   1.641   8.257 -1.4391 -0.7765  1.2021
  116OSM      N12074   4.038   5.299   6.255 -0.0390 -0.2300 -0.5803
  116OSM    C1512075   4.052   5.384   6.137  0.4891  0.7524 -0.1399
  116OSM   H15A12076   4.072   5.327   6.048  1.0163  2.4414 -1.1379
  116OSM   H15B12077   4.128   5.455   6.162 -1.1585  1.4523  3.6826
  116OSM   H15C12078   3.962   5.443   6.126 -0.3453  0.0631  2.1758
  116OSM    C1412079   3.999   5.389   6.369 -0.4209  0.3700  0.3149
  116OSM   H14A12080   4.089   5.431   6.412  0.5211  0.9886 -2.0666
  116OSM   H14B12081   3.959   5.330   6.450 -2.5566 -0.5726 -1.3387
  116OSM   H14C12082   3.947   5.478   6.338 -0.5585  0.6038  1.1898
  116OSM    C1312083   3.929   5.197   6.242  0.4936 -0.4308 -0.2102
  116OSM   H13A12084   3.849   5.233   6.178 -0.5775 -1.0136  0.7509
  116OSM   H13B12085   3.885   5.167   6.336 -0.1878 -0.0069 -0.3803
  116OSM   H13C12086   3.972   5.109   6.198  0.0577  0.0419 -1.6555
  116OSM    C1212087   4.168   5.240   6.304  0.1240  0.0548  0.0603
  116OSM   H12A12088   4.156   5.177   6.391 -1.2293 -2.0467 -1.5674
  116OSM   H12B12089   4.239   5.320   6.320  2.0121 -1.3125 -0.9999
  116OSM    C1112090   4.231   5.140   6.198  0.8033 -0.7321 -0.8284
  116OSM   H11A12091   4.256   5.199   6.107  3.3041 -1.5057 -0.7229
  116OSM   H11B12092   4.150   5.065   6.182 -2.7087  2.5146  0.0885
  116OSM      P12093   4.490   5.144   6.233 -0.3326 -0.0530 -0.0341
  116OSM    O1312094   4.595   5.037   6.233 -0.3812 -0.0524  0.2796
  116OSM    O1412095   4.492   5.227   6.112 -0.8090  0.6745 -0.1056
  116OSM    O1112096   4.521   5.236   6.350 -0.0330 -0.5343 -0.2059
  116OSM    O1212097   4.346   5.081   6.256 -0.2254  0.3222  0.3192
  116OSM    C1S12098   4.465   5.220   6.481  0.9353  0.4468 -0.2828
  116OSM    H1S12099   4.455   5.111   6.498 -0.0042  0.9194  2.8328
  116OSM    H1T12100   4.362   5.263   6.482 -0.3472 -2.3782 -1.2963
  116OSM     NF12101   4.499   5.210   6.722  0.5154  0.2372 -0.1171
  116OSM    HNF12102   4.433   5.267   6.772  0.2924  0.0182 -0.1604
  116OSM    C2S12103   4.549   5.268   6.601 -0.5246  0.2929  0.2464
  116OSM    H2S12104   4.656   5.243   6.585 -0.9178 -1.2539 -0.0761
  116OSM    C3S12105   4.550   5.425   6.593  0.2382 -0.3030 -0.3134
  116OSM    H3S12106   4.445   5.460   6.591  0.3236 -0.0579 -0.4852
  116OSM     O312107   4.604   5.488   6.473  0.1602  0.0015 -0.6415
  116OSM    HO312108   4.627   5.414   6.417  2.6073  0.2581 -0.0926
  116OSM    C4S12109   4.624   5.476   6.712  0.3784  0.6188 -0.7953
  116OSM    H4S12110   4.553   5.515   6.786  0.3145  0.7516 -0.9257
  116OSM    C5S12111   4.758   5.496   6.727  0.0584 -0.1173 -0.0849
  116OSM    H5S12112   4.830   5.467   6.649  0.5152 -1.3973  0.7921
  116OSM    C6S12113   4.826   5.550   6.848  0.2207  0.1951 -0.8366
  116OSM    H6S12114   4.782   5.650   6.865 -1.1388 -0.5465  0.2208
  116OSM    H6T12115   4.937   5.555   6.847  0.4764 -3.0904 -0.4100
  116OSM    C7S12116   4.803   5.469   6.973 -0.2402  0.9946 -0.2520
  116OSM    H7S12117   4.835   5.365   6.949  1.7347  1.3262  0.7566
  116OSM    H7T12118   4.698   5.458   7.007 -0.0354 -0.4172 -0.0112
  116OSM    C8S12119   4.893   5.506   7.091  0.7051 -0.3064 -0.3096
  116OSM    H8S12120   5.002   5.510   7.073  0.9911  1.4131  1.4843
  116OSM    H8T12121   4.853   5.439   7.170  1.2870 -0.4516 -0.1305
  116OSM    C9S12122   4.864   5.646   7.149  1.0799  0.0848 -0.2994
  116OSM    H9S12123   4.758   5.648   7.181  1.3171 -0.9663  0.5865
  116OSM    H9T12124   4.888   5.732   7.082 -1.4360  1.8405  0.8837
  116OSM   C10S12125   4.940   5.678   7.273  0.2073  0.1723  0.5002
  116OSM   H10S12126   4.898   5.762   7.332  0.1535  0.4228  0.1066
  116OSM   H10T12127   5.044   5.712   7.250 -0.2309  1.9564  1.0292
  116OSM   C11S12128   4.952   5.560   7.372 -0.2818  0.1436  0.1351
  116OSM   H11S12129   5.018   5.600   7.451 -1.8177  3.6238 -0.1598
  116OSM   H11T12130   5.000   5.473   7.321 -2.2334 -1.6791  1.2711
  116OSM   C12S12131   4.823   5.500   7.430  0.2528 -0.3920 -0.0098
  116OSM   H12S12132   4.836   5.401   7.479 -2.1655 -0.2578  1.0513
  116OSM   H12T12133   4.755   5.484   7.344 -0.3042  1.4791  0.0207
  116OSM   C13S12134   4.754   5.589   7.536  0.2910 -0.0682 -0.0110
  116OSM   H13S12135   4.730   5.693   7.506 -1.1685 -0.5516 -0.5767
  116OSM   H13T12136   4.826   5.597   7.621 -0.5360  0.7507  0.6337
  116OSM   C14S12137   4.624   5.532   7.590 -0.4641 -0.1615  0.7645
  116OSM   H14S12138   4.631   5.424   7.617  0.1219 -0.2859  0.1442
  116OSM   H14T12139   4.535   5.547   7.525 -1.1618 -0.4707  1.6367
  116OSM   C15S12140   4.573   5.602   7.719  0.4512 -0.4711 -0.5861
  116OSM   H15S12141   4.464   5.582   7.724  0.4248 -0.0859  0.6843
  116OSM   H15T12142   4.582   5.713   7.719 -2.5494 -0.1470 -0.8699
  116OSM   C16S12143   4.648   5.558   7.847 -0.0947  0.3425  0.3869
  116OSM   H16S12144   4.736   5.625   7.855 -0.4621  0.9340 -0.3839
  116OSM   H16T12145   4.700   5.460   7.845  1.4448  1.1491 -1.1606
  116OSM   C17S12146   4.579   5.572   7.985  0.0896 -0.0882 -0.1754
  116OSM   H17S12147   4.478   5.527   7.973  0.2569 -0.3649 -0.5700
  116OSM   H17T12148   4.552   5.677   8.008  0.2015 -0.3966  1.5486
  116OSM   C18S12149   4.672   5.509   8.084  0.3644  0.0319 -1.0709
  116OSM   H18S12150   4.774   5.548   8.064  1.0695 -0.5590  1.1207
  116OSM   H18T12151   4.675   5.398   8.082 -1.0960 -0.0617  0.0067
  116OSM   H18U12152   4.631   5.539   8.183 -2.7477  1.1229 -2.5224
  116OSM    C1F12153   4.532   5.080   6.753 -0.1438 -0.5815 -0.3437
  116OSM     OF12154   4.614   5.019   6.683 -0.3114  0.3551 -0.5574
  116OSM    C2F12155   4.477   5.017   6.878 -0.1401 -0.5207  0.5293
  116OSM    H2F12156   4.422   4.921   6.862  1.4433 -1.6065  1.3300
  116OSM    H2G12157   4.406   5.085   6.929  1.9063  0.0645  2.8156
  116OSM    C3F12158   4.606   4.967   6.959  0.5585  0.4285  0.1420
  116OSM    H3F12159   4.648   4.894   6.886  3.3328 -0.2598  2.2664
  116OSM    H3G12160   4.583   4.910   7.051  0.2742  0.8871  0.3562
  116OSM    C4F12161   4.696   5.070   7.011  0.4518 -0.1837  0.2675
  116OSM    H4F12162   4.747   5.129   6.931  2.2591  0.7008  1.9832
  116OSM    H4G12163   4.768   5.018   7.077  0.3769 -2.2609 -1.1964
  116OSM    C5F12164   4.616   5.173   7.088  0.2252 -0.0827 -0.4904
  116OSM    H5F12165   4.532   5.213   7.026  1.9703 -1.4249 -4.0108
  116OSM    H5G12166   4.679   5.261   7.113 -0.2463 -0.0520  0.6736
  116OSM    C6F12167   4.554   5.126   7.221  1.1908 -0.5974  0.0118
  116OSM    H6F12168   4.465   5.067   7.189  1.1529 -0.1134 -0.8120
  116OSM    H6G12169   4.515   5.203   7.291 -0.0319 -1.7655  0.6532
  116OSM    C7F12170   4.648   5.032   7.302 -0.7210  0.1508 -0.7138
  116OSM    H7F12171   4.741   5.089   7.324 -0.5444 -1.2947  3.1004
  116OSM    H7G12172   4.672   4.933   7.259  2.5143 -0.5512  2.1712
  116OSM    C8F12173   4.597   4.997   7.444 -0.1379  0.2473 -0.2198
  116OSM    H8F12174   4.666   4.919   7.484 -0.5282 -0.1747 -0.3529
  116OSM    H8G12175   4.494   4.954   7.451  0.3266 -0.8845 -0.1724
  116OSM    C9F12176   4.589   5.113   7.538 -0.2805 -0.2567  0.1677
  116OSM    H9F12177   4.577   5.212   7.491 -0.6642 -0.0807  0.6336
  116OSM   C10F12178   4.598   5.107   7.674  0.0800  0.1414 -0.4035
  116OSM   H10F12179   4.575   5.195   7.735 -0.0857  0.0100 -0.2736
  116OSM   C11F12180   4.607   4.990   7.769 -0.3473  0.9721 -0.1009
  116OSM   H11F12181   4.709   4.996   7.811 -0.4466  1.7282  0.0485
  116OSM   H11G12182   4.598   4.896   7.710 -2.0865  1.8279 -1.3170
  116OSM   C12F12183   4.511   5.003   7.891  0.3069 -0.2453 -0.0865
  116OSM   H12F12184   4.488   4.904   7.935  3.3762 -0.9499  0.2023
  116OSM   H12G12185   4.410   5.040   7.863 -0.6341 -1.2691  1.7592
  116OSM   C13F12186   4.573   5.086   8.015  0.3357 -0.0726  0.5220
  116OSM   H13F12187   4.579   5.191   7.981 -0.1508  0.4068  1.8475
  116OSM   H13G12188   4.675   5.053   8.043  1.2056  1.4223 -0.7056
  116OSM   C14F12189   4.493   5.079   8.140  0.8687  0.5056 -0.0699
  116OSM   H14F12190   4.386   5.103   8.126  1.0581  1.3593 -0.1055
  116OSM   H14G12191   4.523   5.161   8.209 -0.0179  1.4895 -0.8201
  116OSM   C15F12192   4.517   4.947   8.216 -0.6873  0.3128 -0.1024
  116OSM   H15F12193   4.514   4.853   8.156  0.7133 -0.1236  0.4697
  116OSM   H15G12194   4.437   4.930   8.290 -0.4976 -0.8912 -0.1530
  116OSM   C16F12195   4.651   4.933   8.290 -0.2897  0.2423  0.1162
  116OSM   H16F12196   4.655   5.028   8.348  2.6751 -0.7199  1.6711
  116OSM   H16G12197   4.737   4.937   8.220 -0.3837  2.0033  0.0566
  116OSM   C17F12198   4.669   4.813   8.384 -0.0470  0.3619 -0.0123
  116OSM   H17F12199   4.703   4.728   8.321 -1.8367  0.0764 -0.6308
  116OSM   H17G12200   4.571   4.788   8.429  0.6707 -0.8592  0.9472
  116OSM   C18F12201   4.764   4.823   8.500  0.5385 -0.1609  0.4237
  116OSM   H18F12202   4.720   4.876   8.587  0.0044 -0.2393  0.2039
  116OSM   H18G12203   4.855   4.875   8.463  0.3000 -1.3848 -2.1033
  116OSM   H18H12204   4.792   4.724   8.541 -2.5588 -0.7074  1.4894
  117OSM      N12205   6.631   6.548   6.136 -0.6785  0.2572 -0.3228
  117OSM    C1512206   6.587   6.430   6.223 -0.4289 -0.2513 -0.2029
  117OSM   H15A12207   6.524   6.359   6.171 -1.1200  0.3609 -0.2127
  117OSM   H15B12208   6.536   6.463   6.313  0.4691  0.4147  0.0675
  117OSM   H15C12209   6.678   6.386   6.259  0.5832  2.2126  0.4514
  117OSM    C1412210   6.733   6.632   6.211  0.3962  0.1366 -0.8215
  117OSM   H14A12211   6.789   6.702   6.152  0.3278  0.6262 -0.3186
  117OSM   H14B12212   6.807   6.577   6.268 -1.3747  0.5865  2.1204
  117OSM   H14C12213   6.676   6.691   6.281 -0.1380  0.4137 -1.4825
  117OSM    C1312214   6.704   6.480   6.020 -0.3635  0.2156  0.3410
  117OSM   H13A12215   6.640   6.404   5.978 -0.2283  0.3090 -0.0389
  117OSM   H13B12216   6.786   6.414   6.048 -0.3065 -0.8887 -2.0958
  117OSM   H13C12217   6.733   6.538   5.933  2.4240 -1.9675 -0.3555
  117OSM    C1212218   6.510   6.632   6.088  0.5509  0.6302 -1.0354
  117OSM   H12A12219   6.430   6.570   6.051 -1.0338  2.2880 -0.5135
  117OSM   H12B12220   6.542   6.691   6.004  2.3768  0.3202 -0.6025
  117OSM    C1112221   6.436   6.722   6.195 -0.4562 -0.1049 -0.0646
  117OSM   H11A12222   6.354   6.790   6.163 -0.8944 -0.8090 -0.4619
  117OSM   H11B12223   6.516   6.783   6.243 -0.9411 -1.1020  2.1422
  117OSM      P12224   6.241   6.568   6.259 -0.2868 -0.0780  0.1483
  117OSM    O1312225   6.135   6.672   6.268  0.8277  0.2429  0.2841
  117OSM    O1412226   6.250   6.504   6.133 -0.0032  0.1611 -0.0172
  117OSM    O1112227   6.216   6.453   6.367 -0.0140  0.1569  0.0378
  117OSM    O1212228   6.381   6.635   6.296 -0.2173  0.3666 -0.4096
  117OSM    C1S12229   6.303   6.354   6.419  0.1519 -0.4740  0.2290
  117OSM    H1S12230   6.402   6.343   6.370  0.1089  0.4554 -0.1036
  117OSM    H1T12231   6.248   6.259   6.408 -2.6841  0.9775  0.8766
  117OSM     NF12232   6.437   6.296   6.621 -0.4489  0.4734 -0.2068
  117OSM    HNF12233   6.407   6.216   6.672  0.1337 -0.8672 -1.8607
  117OSM    C2S12234   6.330   6.384   6.571 -0.4914  0.5769  0.1873
  117OSM    H2S12235   6.367   6.488   6.584 -0.9290  0.8723 -0.8210
  117OSM    C3S12236   6.190   6.373   6.642  0.1447 -0.1097 -0.1953
  117OSM    H3S12237   6.161   6.269   6.667  0.2862  0.0988  0.8692
  117OSM     O312238   6.075   6.424   6.571  0.6341  0.2990 -0.2665
  117OSM    HO312239   6.106   6.438   6.481 -0.7174 -0.9040 -0.9450
  117OSM    C4S12240   6.202   6.444   6.773  0.6731 -1.1020 -0.9239
  117OSM    H4S12241   6.201   6.386   6.867 -2.4249 -0.7901 -0.6856
  117OSM    C5S12242   6.206   6.578   6.791 -0.4991 -0.7520 -0.3844
  117OSM    H5S12243   6.225   6.640   6.703 -0.4465  1.6590  1.2333
  117OSM    C6S12244   6.222   6.648   6.926 -0.4137  0.6377 -0.0139
  117OSM    H6S12245   6.145   6.725   6.948  0.7164  2.1902 -1.2661
  117OSM    H6T12246   6.323   6.695   6.927  0.8942 -1.9354  0.8405
  117OSM    C7S12247   6.222   6.555   7.054  0.7491 -0.2426 -0.0012
  117OSM    H7S12248   6.305   6.482   7.050  0.6475 -0.4183  0.9241
  117OSM    H7T12249   6.126   6.500   7.067  0.1590  1.1441  1.9455
  117OSM    C8S12250   6.241   6.638   7.183 -0.1179 -0.1072  0.6261
  117OSM    H8S12251   6.178   6.729   7.183  0.9587  0.7027  2.6678
  117OSM    H8T12252   6.344   6.678   7.192 -0.1089 -0.5793  3.3346
  117OSM    C9S12253   6.195   6.565   7.318 -0.2332 -0.9783  0.1205
  117OSM    H9S12254   6.218   6.457   7.305  0.3622 -0.8507  0.0873
  117OSM    H9T12255   6.084   6.570   7.329 -0.2064 -1.8493  0.8555
  117OSM   C10S12256   6.254   6.634   7.439  0.2560 -0.4093  0.3107
  117OSM   H10S12257   6.216   6.739   7.436  1.4441  0.0663 -3.0014
  117OSM   H10T12258   6.364   6.636   7.451  0.2045 -1.3017  1.0577
  117OSM   C11S12259   6.196   6.572   7.567 -0.2272  0.1302 -0.9432
  117OSM   H11S12260   6.226   6.465   7.562  2.1224  0.6434  0.6299
  117OSM   H11T12261   6.086   6.589   7.565 -0.5228 -0.9366  1.5727
  117OSM   C12S12262   6.246   6.629   7.702  0.1924  0.5033 -1.0097
  117OSM   H12S12263   6.350   6.669   7.699 -0.1452  2.1778  3.0549
  117OSM   H12T12264   6.245   6.543   7.773 -1.4197  0.9482 -0.4520
  117OSM   C13S12265   6.168   6.748   7.762 -0.1464 -0.7550  1.1465
  117OSM   H13S12266   6.061   6.721   7.773 -0.1386 -1.8249 -0.8429
  117OSM   H13T12267   6.175   6.831   7.688  3.6286 -1.4207  0.5781
  117OSM   C14S12268   6.231   6.802   7.891 -0.8032 -0.7827 -0.0046
  117OSM   H14S12269   6.189   6.904   7.909 -0.6060 -1.0044  1.8992
  117OSM   H14T12270   6.339   6.823   7.879 -1.1304 -0.1489 -2.2979
  117OSM   C15S12271   6.210   6.720   8.016  0.2198  0.5766  0.4937
  117OSM   H15S12272   6.268   6.629   7.988 -0.0025  0.6460 -0.2006
  117OSM   H15T12273   6.101   6.700   8.028  0.7230 -2.6820  0.6482
  117OSM   C16S12274   6.267   6.776   8.149  0.2906 -0.0571  0.8763
  117OSM   H16S12275   6.224   6.877   8.168  0.5795  0.8861 -2.6900
  117OSM   H16T12276   6.376   6.792   8.142 -0.0098  1.4948 -1.2337
  117OSM   C17S12277   6.232   6.687   8.265  0.3049 -0.1734 -0.6413
  117OSM   H17S12278   6.301   6.715   8.347  1.1853 -0.3844 -1.2983
  117OSM   H17T12279   6.266   6.586   8.232  1.8323  0.2296 -0.3721
  117OSM   C18S12280   6.091   6.682   8.305 -0.1773 -0.1862 -0.3541
  117OSM   H18S12281   6.042   6.777   8.333 -0.8935 -0.1589 -1.6133
  117OSM   H18T12282   6.081   6.610   8.389  2.5369 -1.1117 -0.7201
  117OSM   H18U12283   6.027   6.630   8.230 -0.5022 -2.0501  1.1245
  117OSM    C1F12284   6.568   6.317   6.586 -0.0157  0.3782 -0.4274
  117OSM     OF12285   6.598   6.399   6.508 -0.3905  0.2291 -0.2368
  117OSM    C2F12286   6.665   6.236   6.669  0.8464 -0.1387  0.1421
  117OSM    H2F12287   6.698   6.154   6.602  4.1001  1.0382  0.1635
  117OSM    H2G12288   6.618   6.190   6.759 -1.8790 -0.1049 -1.1422
  117OSM    C3F12289   6.785   6.324   6.719  0.1006  0.2657 -0.7030
  117OSM    H3F12290   6.738   6.395   6.792  0.6558 -1.5584  1.5560
  117OSM    H3G12291   6.841   6.367   6.634  0.5448 -3.1155 -2.2472
  117OSM    C4F12292   6.886   6.240   6.791 -0.5618  0.6198  0.8818
  117OSM    H4F12293   6.921   6.165   6.716 -0.9689  1.1300  0.1668
  117OSM    H4G12294   6.829   6.189   6.871 -0.3363 -0.4857  0.3657
  117OSM    C5F12295   7.004   6.312   6.847  0.1570 -0.6484 -0.4695
  117OSM    H5F12296   7.062   6.373   6.774  0.1100 -0.3228 -0.2402
  117OSM    H5G12297   7.079   6.236   6.877  0.7882  1.4487  4.1775
  117OSM    C6F12298   6.973   6.406   6.968  0.2760  0.2917 -0.3404
  117OSM    H6F12299   6.900   6.485   6.939 -0.0130  1.3863  2.9329
  117OSM    H6G12300   7.071   6.451   6.997 -0.7625  1.8857  0.9098
  117OSM    C7F12301   6.924   6.333   7.100  0.1125  0.4617 -0.9435
  117OSM    H7F12302   6.966   6.231   7.108  1.0345  0.8193 -1.1210
  117OSM    H7G12303   6.813   6.331   7.101  0.0897  0.9972 -1.7618
  117OSM    C8F12304   6.962   6.403   7.230 -0.5684  0.5873 -0.3068
  117OSM    H8F12305   6.945   6.511   7.211 -2.2780  0.6385  1.2002
  117OSM    H8G12306   7.073   6.401   7.237 -0.4167 -0.4721 -2.3849
  117OSM    C9F12307   6.890   6.355   7.353 -0.8152  0.3505 -0.2732
  117OSM    H9F12308   6.783   6.342   7.332 -1.2793  2.2197  0.7805
  117OSM   C10F12309   6.941   6.316   7.473 -0.1381  0.5131 -0.1408
  117OSM   H10F12310   6.869   6.306   7.556 -0.4750 -0.4738 -0.5288
  117OSM   C11F12311   7.087   6.323   7.510 -0.1891 -0.0574  0.1536
  117OSM   H11F12312   7.141   6.405   7.458  1.6300 -2.8251 -2.7743
  117OSM   H11G12313   7.130   6.224   7.480 -0.5607 -0.0339 -0.4807
  117OSM   C12F12314   7.110   6.350   7.663 -0.3692  0.2030  0.4944
  117OSM   H12F12315   7.043   6.433   7.691  1.5908  1.7145  0.9746
  117OSM   H12G12316   7.218   6.376   7.675 -0.2879 -0.2005  0.6510
  117OSM   C13F12317   7.082   6.220   7.741  0.4606 -0.0345  0.7621
  117OSM   H13F12318   7.173   6.158   7.732  0.5722  0.0378  1.3487
  117OSM   H13G12319   6.997   6.176   7.685 -0.0673  0.7985  0.8780
  117OSM   C14F12320   7.056   6.247   7.892  0.0590 -0.4460 -0.2091
  117OSM   H14F12321   6.989   6.335   7.901  3.2180  2.0389  1.0014
  117OSM   H14G12322   7.151   6.270   7.944  1.2861 -1.9695 -1.6569
  117OSM   C15F12323   7.014   6.129   7.981  0.2321 -0.3783  0.3437
  117OSM   H15F12324   7.081   6.040   7.977  0.7106 -0.0870  1.6708
  117OSM   H15G12325   6.918   6.092   7.937 -0.1365  1.2804 -0.3057
  117OSM   C16F12326   6.981   6.167   8.125 -0.1885 -0.4089  0.0440
  117OSM   H16F12327   6.895   6.237   8.126  0.7261  0.7827 -1.1203
  117OSM   H16G12328   7.063   6.222   8.177 -1.2712  0.0561  1.2958
  117OSM   C17F12329   6.939   6.046   8.215 -0.5381 -0.0481  0.5014
  117OSM   H17F12330   6.862   6.084   8.285 -0.9855 -1.0073  0.5473
  117OSM   H17G12331   6.897   5.966   8.150 -0.5909  0.2280  0.1934
  117OSM   C18F12332   7.058   5.983   8.285  0.4404  0.4203 -0.6867
  117OSM   H18F12333   7.126   5.937   8.210 -0.1617  0.2687 -1.1398
  117OSM   H18G12334   7.029   5.893   8.344 -0.7796 -0.1603 -2.0962
  117OSM   H18H12335   7.116   6.061   8.339  2.0403 -1.3979  0.3914
  118OSM      N12336   4.444   2.053   5.656  0.2279 -0.1068  0.2381
  118OSM    C1512337   4.340   2.099   5.553  0.4866  0.5325 -0.0222
  118OSM   H15A12338   4.326   2.206   5.550 -1.1351  0.3156 -1.0709
  118OSM   H15B12339   4.250   2.054   5.592  0.9974 -1.5263 -1.0909
  118OSM   H15C12340   4.371   2.064   5.456 -0.7044 -0.9916  0.1204
  118OSM    C1412341   4.448   1.899   5.664 -0.0483 -0.0944  0.4196
  118OSM   H14A12342   4.347   1.866   5.682 -1.0721  3.1454  1.2797
  118OSM   H14B12343   4.504   1.873   5.753  2.1032  2.7567  0.0748
  118OSM   H14C12344   4.489   1.852   5.576  0.2006 -0.4862  0.7405
  118OSM    C1312345   4.575   2.105   5.604 -0.0896  0.1344 -0.5712
  118OSM   H13A12346   4.648   2.078   5.679  1.2163  0.6618 -1.6116
  118OSM   H13B12347   4.552   2.211   5.604 -2.0157 -0.1987  1.4392
  118OSM   H13C12348   4.610   2.065   5.510  0.0445  0.3015 -0.5927
  118OSM    C1212349   4.418   2.106   5.787  0.7914  0.1384  0.0142
  118OSM   H12A12350   4.315   2.085   5.808  1.1815 -2.0861  0.0266
  118OSM   H12B12351   4.438   2.211   5.802  0.8380 -0.2444  3.2711
  118OSM    C1112352   4.497   2.057   5.904 -0.5308  0.4170  0.2581
  118OSM   H11A12353   4.481   2.134   5.983 -2.8458  0.8851 -0.6031
  118OSM   H11B12354   4.604   2.053   5.876 -0.5159 -0.0456  0.3704
  118OSM      P12355   4.321   1.917   6.037 -0.1793  0.3522 -0.4007
  118OSM    O1312356   4.236   2.037   6.025  0.3503  0.2636 -0.0624
  118OSM    O1412357   4.259   1.788   6.013 -0.1181  0.2573 -0.2538
  118OSM    O1112358   4.373   1.925   6.191  0.1363 -1.0180  0.5063
  118OSM    O1212359   4.449   1.926   5.945  0.1833 -0.8610  0.6857
  118OSM    C1S12360   4.510   1.925   6.213 -0.2728 -0.4893  0.5780
  118OSM    H1S12361   4.554   2.019   6.173  1.3157 -1.4049  0.0912
  118OSM    H1T12362   4.562   1.853   6.147  0.0748 -1.1193  1.5168
  118OSM     NF12363   4.689   1.978   6.369  0.1514  0.6274  0.2131
  118OSM    HNF12364   4.764   1.912   6.373 -0.2792  0.1895  2.9445
  118OSM    C2S12365   4.557   1.933   6.358 -0.5499 -0.1082 -0.3527
  118OSM    H2S12366   4.490   2.010   6.402  0.6216  2.0398 -2.1266
  118OSM    C3S12367   4.533   1.799   6.433 -0.2255  0.1877 -0.2698
  118OSM    H3S12368   4.578   1.715   6.375 -1.3811 -0.2572 -0.5450
  118OSM     O312369   4.397   1.762   6.421  0.5205 -0.4975 -0.6275
  118OSM    HO312370   4.364   1.827   6.359  1.8350  3.4391  2.3705
  118OSM    C4S12371   4.570   1.813   6.580 -0.3431  0.2148  0.2926
  118OSM    H4S12372   4.557   1.913   6.625  2.9203  0.3517  1.1841
  118OSM    C5S12373   4.598   1.711   6.666 -0.6455 -0.1264  0.0234
  118OSM    H5S12374   4.591   1.610   6.623 -0.1119  0.3592 -1.2700
  118OSM    C6S12375   4.629   1.722   6.816  1.1060  0.0105 -0.2769
  118OSM    H6S12376   4.674   1.820   6.842 -1.9817  1.3313  0.4987
  118OSM    H6T12377   4.697   1.640   6.850  2.1409  2.1401  3.3274
  118OSM    C7S12378   4.501   1.710   6.905  0.2463  0.3412  0.4958
  118OSM    H7S12379   4.443   1.619   6.881  0.4186  0.3752 -0.0661
  118OSM    H7T12380   4.439   1.800   6.885 -0.5577 -0.7900 -2.8210
  118OSM    C8S12381   4.540   1.715   7.050  0.1234  0.0205 -0.6890
  118OSM    H8S12382   4.454   1.766   7.096 -0.0114  0.2192 -1.1556
  118OSM    H8T12383   4.628   1.782   7.064 -2.0485  2.6200  1.7576
  118OSM    C9S12384   4.563   1.585   7.129 -0.4637  0.3725 -0.0532
  118OSM    H9S12385   4.630   1.515   7.076  1.3450  0.1312  2.3951
  118OSM    H9T12386   4.469   1.525   7.131 -0.5567  0.4926 -0.6225
  118OSM   C10S12387   4.628   1.623   7.261 -0.2292 -0.1758  0.2193
  118OSM   H10S12388   4.618   1.541   7.336  0.9619  0.4879  1.1399
  118OSM   H10T12389   4.562   1.705   7.296 -2.8540 -1.6592 -0.9235
  118OSM   C11S12390   4.771   1.661   7.244 -0.2777  0.3635 -0.4274
  118OSM   H11S12391   4.793   1.736   7.323  0.2740 -0.2609  0.0224
  118OSM   H11T12392   4.788   1.696   7.140 -0.8974 -1.5235 -1.2092
  118OSM   C12S12393   4.863   1.539   7.259  0.8148 -2.0781  0.6725
  118OSM   H12S12394   4.839   1.468   7.177 -0.0022 -0.6211 -0.4062
  118OSM   H12T12395   4.835   1.492   7.355 -3.1088  0.7141  1.1210
  118OSM   C13S12396   5.007   1.584   7.265 -0.2824  0.3212 -0.2555
  118OSM   H13S12397   5.079   1.504   7.292  0.5512  0.5724 -1.6011
  118OSM   H13T12398   5.031   1.670   7.331 -0.5949  1.4878 -1.6051
  118OSM   C14S12399   5.051   1.627   7.124 -1.0440  0.8076  0.1238
  118OSM   H14S12400   4.995   1.721   7.107 -3.0513 -0.1732  1.0096
  118OSM   H14T12401   5.024   1.541   7.060 -1.4188 -1.8401  3.5394
  118OSM   C15S12402   5.201   1.656   7.111  0.6038 -0.2467  0.0028
  118OSM   H15S12403   5.256   1.569   7.154  0.4196 -1.0775 -1.3786
  118OSM   H15T12404   5.231   1.745   7.170 -0.2160 -0.1314  0.2499
  118OSM   C16S12405   5.226   1.685   6.962  0.0119  0.3296  0.4683
  118OSM   H16S12406   5.205   1.597   6.898  0.8026  1.2012 -1.0202
  118OSM   H16T12407   5.335   1.700   6.949  0.4003 -1.7250  0.9657
  118OSM   C17S12408   5.148   1.801   6.895  0.2385  0.3439 -0.8850
  118OSM   H17S12409   5.160   1.885   6.967 -3.4422 -0.6465  1.0954
  118OSM   H17T12410   5.040   1.776   6.901  0.7102 -1.4678  0.9593
  118OSM   C18S12411   5.192   1.849   6.755 -1.0941 -0.0001  0.1143
  118OSM   H18S12412   5.155   1.948   6.723  1.8088  1.0383 -0.3528
  118OSM   H18T12413   5.165   1.774   6.677 -1.5163  1.0133 -0.7263
  118OSM   H18U12414   5.303   1.851   6.751 -1.0473  1.8907  1.4066
  118OSM    C1F12415   4.724   2.105   6.337  0.2084 -0.4461  0.2104
  118OSM     OF12416   4.650   2.181   6.289  0.1034 -0.1593 -0.2304
  118OSM    C2F12417   4.865   2.139   6.367 -0.5798 -0.4764  0.0383
  118OSM    H2F12418   4.907   2.210   6.293  0.7087 -1.9479 -0.7003
  118OSM    H2G12419   4.933   2.051   6.369  0.8807  0.6130 -0.2238
  118OSM    C3F12420   4.881   2.201   6.507 -0.2552 -0.1614  0.4205
  118OSM    H3F12421   4.825   2.296   6.514 -1.3574 -0.7291 -0.2607
  118OSM    H3G12422   4.987   2.230   6.520 -0.3145  1.5868 -2.2394
  118OSM    C4F12423   4.830   2.109   6.620 -0.2107  0.3300  0.1149
  118OSM    H4F12424   4.894   2.019   6.625  0.5712  0.8559 -0.2553
  118OSM    H4G12425   4.727   2.072   6.605 -0.3616  0.3315  1.0374
  118OSM    C5F12426   4.837   2.174   6.758  0.1227  0.5659 -0.2293
  118OSM    H5F12427   4.739   2.211   6.796  0.2484 -0.8747  1.6501
  118OSM    H5G12428   4.905   2.262   6.762  2.0053 -0.8546  3.5409
  118OSM    C6F12429   4.881   2.067   6.865 -0.1427  0.3425  0.4408
  118OSM    H6F12430   4.987   2.040   6.844 -0.0422 -0.4004  1.7858
  118OSM    H6G12431   4.813   1.979   6.863 -0.7367  0.8026 -1.0541
  118OSM    C7F12432   4.891   2.141   7.004 -0.1835 -0.0491  0.6248
  118OSM    H7F12433   4.798   2.199   7.017 -0.7997 -0.0305 -2.9874
  118OSM    H7G12434   4.982   2.205   7.005 -1.3966  1.7928  2.9614
  118OSM    C8F12435   4.900   2.034   7.119  0.3859 -0.4224  0.0405
  118OSM    H8F12436   4.989   1.971   7.100  0.0702 -0.8614  0.0083
  118OSM    H8G12437   4.818   1.963   7.096  1.9303 -1.9223 -1.0645
  118OSM    C9F12438   4.905   2.092   7.260 -0.0918  0.1387  0.5550
  118OSM    H9F12439   4.813   2.142   7.294 -0.4748 -1.1039  1.4211
  118OSM   C10F12440   5.012   2.093   7.341 -0.0897 -0.9762  0.2878
  118OSM   H10F12441   5.001   2.130   7.444  1.4315 -0.5336  0.3165
  118OSM   C11F12442   5.143   2.023   7.312  0.1748 -0.6627  0.1556
  118OSM   H11F12443   5.197   2.078   7.232 -1.2463  1.4873  0.5859
  118OSM   H11G12444   5.128   1.922   7.267 -1.3393  0.5395 -2.2405
  118OSM   C12F12445   5.239   2.016   7.434 -0.3791 -0.4614 -0.0798
  118OSM   H12F12446   5.248   2.112   7.488  1.2171 -0.0591 -0.9768
  118OSM   H12G12447   5.343   1.994   7.402 -0.3197  0.2293 -0.3638
  118OSM   C13F12448   5.200   1.916   7.544  0.6416 -0.7445 -0.2532
  118OSM   H13F12449   5.270   1.926   7.630  0.9184 -0.7211 -0.4843
  118OSM   H13G12450   5.193   1.817   7.494 -1.4469 -0.0125 -1.5312
  118OSM   C14F12451   5.052   1.931   7.600 -0.1528  0.2126  0.2532
  118OSM   H14F12452   4.975   1.906   7.524  0.4382  0.1536 -0.3337
  118OSM   H14G12453   5.043   2.041   7.616 -0.3101  0.1673  0.4903
  118OSM   C15F12454   5.039   1.854   7.732 -0.7605 -0.2552  0.2843
  118OSM   H15F12455   4.949   1.876   7.793  0.5391 -0.8090  2.4920
  118OSM   H15G12456   5.130   1.872   7.793 -0.2014  0.1236 -0.6275
  118OSM   C16F12457   5.036   1.706   7.696  0.4135 -0.2055 -0.0689
  118OSM   H16F12458   5.131   1.672   7.651  1.2054  1.1773  0.5231
  118OSM   H16G12459   4.954   1.686   7.624  0.3186 -2.4655  0.5844
  118OSM   C17F12460   5.012   1.630   7.836  0.0055 -0.2767  0.0137
  118OSM   H17F12461   4.925   1.656   7.899  1.2020 -1.4011  2.2577
  118OSM   H17G12462   5.101   1.654   7.898 -0.1438 -0.9040  0.4766
  118OSM   C18F12463   5.006   1.483   7.809 -0.4573 -0.1361 -0.3937
  118OSM   H18F12464   5.065   1.427   7.885 -0.9146 -0.3322 -0.1796
  118OSM   H18G12465   5.055   1.466   7.710 -0.3450  0.7660 -0.5031
  118OSM   H18H12466   4.899   1.456   7.816  0.2404 -2.7560  2.0056
  119OSM      N12467   4.042   0.830   5.728  0.3955  0.1141 -0.1608
  119OSM    C1512468   3.966   0.916   5.632  0.6692  0.5554 -0.2263
  119OSM   H15A12469   3.993   1.020   5.642 -0.5011  1.0908 -1.9588
  119OSM   H15B12470   3.860   0.897   5.646  0.4095  2.4278  0.6865
  119OSM   H15C12471   3.985   0.890   5.529  3.5108 -0.6443  0.5065
  119OSM    C1412472   3.992   0.695   5.724  0.5850  0.1563  0.1477
  119OSM   H14A12473   3.887   0.699   5.751  0.7023  4.0289  0.6064
  119OSM   H14B12474   4.054   0.634   5.788 -1.1085 -0.2484  1.4926
  119OSM   H14C12475   4.007   0.656   5.625  0.4848 -1.4384  0.7197
  119OSM    C1312476   4.182   0.820   5.669  0.1149  0.7392  0.4967
  119OSM   H13A12477   4.227   0.917   5.652  1.1081  0.6503  2.3456
  119OSM   H13B12478   4.189   0.764   5.577  0.0381  0.2146  0.8080
  119OSM   H13C12479   4.251   0.773   5.737  1.9893 -0.1664 -1.8901
  119OSM    C1212480   4.040   0.882   5.875 -0.7286  0.1097  0.1956
  119OSM   H12A12481   4.100   0.971   5.870 -1.4018  0.5410 -0.5688
  119OSM   H12B12482   4.089   0.813   5.941  0.0882  2.8221  2.6213
  119OSM    C1112483   3.905   0.918   5.930  0.2780 -0.2586  0.2472
  119OSM   H11A12484   3.910   0.924   6.041  1.4310 -2.7706  0.4107
  119OSM   H11B12485   3.845   0.825   5.916 -0.3870 -0.0613  1.6531
  119OSM      P12486   3.891   1.173   5.904 -0.1022 -0.4370 -0.4230
  119OSM    O1312487   4.027   1.173   5.861 -0.6693 -0.4839 -0.0184
  119OSM    O1412488   3.800   1.282   5.851  0.2282  0.2334  0.0081
  119OSM    O1112489   3.884   1.184   6.062  0.0638  0.3539 -0.2965
  119OSM    O1212490   3.836   1.031   5.867  0.3572 -0.3245 -1.0930
  119OSM    C1S12491   3.773   1.137   6.135  0.3220 -0.3704  0.4183
  119OSM    H1S12492   3.727   1.040   6.106 -4.4743  1.3211  1.4780
  119OSM    H1T12493   3.692   1.212   6.122  0.1661 -0.7524 -1.0428
  119OSM     NF12494   3.685   1.061   6.349  0.5419  0.1477 -0.3554
  119OSM    HNF12495   3.600   1.112   6.357 -0.3230 -0.9077 -2.0572
  119OSM    C2S12496   3.800   1.127   6.291 -0.3235  0.4680 -0.1138
  119OSM    H2S12497   3.891   1.068   6.311 -3.2738 -4.0925  1.4263
  119OSM    C3S12498   3.824   1.274   6.346 -0.7967  0.0067 -0.4182
  119OSM    H3S12499   3.733   1.338   6.344 -1.6832 -1.0158  2.0488
  119OSM     O312500   3.920   1.356   6.284 -0.0696  0.1339 -0.0319
  119OSM    HO312501   3.963   1.291   6.228  2.1194 -1.0993  2.8353
  119OSM    C4S12502   3.867   1.261   6.495  0.2934  0.1571 -0.1793
  119OSM    H4S12503   3.942   1.186   6.525 -1.1055 -0.4940  1.9415
  119OSM    C5S12504   3.806   1.331   6.600 -1.2415  1.2720  0.0773
  119OSM    H5S12505   3.727   1.406   6.581  0.0052  2.2090 -1.7752
  119OSM    C6S12506   3.849   1.296   6.742  0.7965 -1.1069 -0.1245
  119OSM    H6S12507   3.934   1.224   6.743  2.1332  0.4028  1.1192
  119OSM    H6T12508   3.766   1.265   6.809  0.8058  0.9063  0.8645
  119OSM    C7S12509   3.899   1.426   6.808  0.4500  0.7353  0.6323
  119OSM    H7S12510   3.820   1.503   6.802  1.4707  1.7330 -3.9107
  119OSM    H7T12511   3.991   1.467   6.761  1.3843 -1.3781  0.4937
  119OSM    C8S12512   3.943   1.395   6.956 -0.4206 -0.1225 -0.2466
  119OSM    H8S12513   4.017   1.468   6.996  0.1604 -0.7145 -0.2231
  119OSM    H8T12514   3.979   1.291   6.969  0.4891  0.3028  0.7980
  119OSM    C9S12515   3.829   1.408   7.056 -0.0650 -0.1333  0.1362
  119OSM    H9S12516   3.754   1.326   7.051  1.4813 -1.5113 -2.0557
  119OSM    H9T12517   3.789   1.511   7.046  0.6837  0.2771  1.1867
  119OSM   C10S12518   3.881   1.410   7.202  0.0700 -0.2260  0.7547
  119OSM   H10S12519   3.918   1.513   7.223  1.0548 -0.6591  1.2083
  119OSM   H10T12520   3.975   1.353   7.215  0.8481  1.0429  0.8251
  119OSM   C11S12521   3.792   1.347   7.302 -0.0813  0.0396  0.3251
  119OSM   H11S12522   3.776   1.241   7.273  0.0088  0.3763 -1.0449
  119OSM   H11T12523   3.694   1.398   7.299 -1.1964 -1.7119  3.1075
  119OSM   C12S12524   3.835   1.349   7.448 -0.0894 -0.2342  0.6738
  119OSM   H12S12525   3.821   1.454   7.481  1.8782 -0.4264  2.3437
  119OSM   H12T12526   3.939   1.309   7.447 -0.3914 -1.1074 -1.1233
  119OSM   C13S12527   3.743   1.273   7.547  0.3519  0.0680 -0.1780
  119OSM   H13S12528   3.739   1.164   7.523 -0.9127  0.1557 -0.4701
  119OSM   H13T12529   3.640   1.307   7.522  1.0072  2.0012 -0.4178
  119OSM   C14S12530   3.783   1.297   7.691  0.3204 -0.5211  0.8384
  119OSM   H14S12531   3.894   1.298   7.678  0.2947  4.1194 -0.9027
  119OSM   H14T12532   3.755   1.205   7.747 -0.5227 -0.0398  1.2165
  119OSM   C15S12533   3.738   1.417   7.768 -0.2217  0.0677 -0.1417
  119OSM   H15S12534   3.627   1.420   7.776 -0.3051 -1.6334 -0.1938
  119OSM   H15T12535   3.780   1.507   7.720  2.0891 -2.0274 -2.3602
  119OSM   C16S12536   3.789   1.408   7.918 -0.5607 -0.2864  0.7592
  119OSM   H16S12537   3.759   1.506   7.962 -0.2899  0.2105 -0.1321
  119OSM   H16T12538   3.899   1.423   7.926 -0.9575  3.2737  1.2298
  119OSM   C17S12539   3.734   1.300   8.012 -0.2491  0.8267 -0.0355
  119OSM   H17S12540   3.785   1.203   7.991 -2.2583 -0.5132  0.9115
  119OSM   H17T12541   3.623   1.289   8.012 -0.1376 -0.7937  1.5961
  119OSM   C18S12542   3.765   1.339   8.161 -0.2763  0.1596  0.1649
  119OSM   H18S12543   3.721   1.440   8.175  0.2546  0.5693 -0.9667
  119OSM   H18T12544   3.873   1.360   8.177  0.3117 -1.9344 -0.6367
  119OSM   H18U12545   3.726   1.267   8.236  1.8322 -0.2929  0.8804
  119OSM    C1F12546   3.679   0.928   6.348 -0.0843  0.2248 -0.1362
  119OSM     OF12547   3.747   0.856   6.269  0.3343  0.3254  0.1216
  119OSM    C2F12548   3.572   0.873   6.440 -0.1295  0.4135 -0.2153
  119OSM    H2F12549   3.547   0.768   6.412  0.9048 -0.1963  1.0316
  119OSM    H2G12550   3.487   0.941   6.422 -1.3987 -1.5490 -2.1710
  119OSM    C3F12551   3.611   0.872   6.586  0.3275  0.6433 -0.2992
  119OSM    H3F12552   3.676   0.962   6.600  1.2230  0.0648 -0.6544
  119OSM    H3G12553   3.679   0.791   6.618 -0.6561  0.5913  1.7689
  119OSM    C4F12554   3.486   0.880   6.673  0.8774 -0.3158 -0.6365
  119OSM    H4F12555   3.448   0.776   6.685  0.2136  0.0825  0.8924
  119OSM    H4G12556   3.410   0.941   6.620  1.6985 -0.7170 -2.3398
  119OSM    C5F12557   3.512   0.941   6.807  0.3171  0.6350  0.2396
  119OSM    H5F12558   3.597   0.886   6.852 -0.5243 -0.5461  0.4532
  119OSM    H5G12559   3.421   0.911   6.863 -1.6121  0.6374 -2.6700
  119OSM    C6F12560   3.538   1.090   6.812  1.1559  0.1598 -0.0688
  119OSM    H6F12561   3.549   1.115   6.705  0.6843 -2.4172 -0.7977
  119OSM    H6G12562   3.640   1.100   6.854  1.5126  0.9444 -1.0868
  119OSM    C7F12563   3.427   1.169   6.884  0.0526 -0.8036  0.3359
  119OSM    H7F12564   3.327   1.161   6.835 -1.4588  0.2696  3.0154
  119OSM    H7G12565   3.456   1.276   6.872 -0.4941 -0.2981  2.8875
  119OSM    C8F12566   3.422   1.127   7.039 -0.3601 -0.2691 -0.0122
  119OSM    H8F12567   3.515   1.161   7.089 -0.2816 -1.1457  0.4602
  119OSM    H8G12568   3.409   1.017   7.029 -0.9633 -0.1261 -0.9532
  119OSM    C9F12569   3.298   1.182   7.095 -0.0831 -0.6332 -0.2272
  119OSM    H9F12570   3.225   1.213   7.018  0.4775  2.1920  0.2618
  119OSM   C10F12571   3.274   1.203   7.228  0.4298  0.3586 -0.3528
  119OSM   H10F12572   3.181   1.254   7.258  0.7056 -0.5559  2.3222
  119OSM   C11F12573   3.359   1.190   7.342 -0.3982 -0.3050  0.0948
  119OSM   H11F12574   3.397   1.289   7.376 -0.0622 -0.0454 -1.0009
  119OSM   H11G12575   3.452   1.135   7.314  1.2493  2.0925  0.5043
  119OSM   C12F12576   3.290   1.107   7.450 -0.5342 -0.6047 -0.1500
  119OSM   H12F12577   3.234   1.017   7.418 -0.6618 -0.5604 -0.0553
  119OSM   H12G12578   3.203   1.170   7.479  0.9893  0.3985  2.6356
  119OSM   C13F12579   3.387   1.068   7.562  0.1544 -0.2075  0.6709
  119OSM   H13F12580   3.486   1.044   7.517 -0.4603  1.9800 -2.2107
  119OSM   H13G12581   3.358   0.974   7.612  1.7344 -1.4452 -0.6308
  119OSM   C14F12582   3.412   1.182   7.664  0.0950  0.0868  0.3362
  119OSM   H14F12583   3.420   1.279   7.610 -2.3819  1.0087  1.4454
  119OSM   H14G12584   3.499   1.149   7.723 -0.5904 -0.2919  1.1544
  119OSM   C15F12585   3.300   1.198   7.767 -0.3489 -0.6569 -0.2375
  119OSM   H15F12586   3.266   1.094   7.791 -0.6649 -1.5392 -3.9137
  119OSM   H15G12587   3.220   1.259   7.720  0.4576  2.7514  2.4109
  119OSM   C16F12588   3.356   1.284   7.889  0.6490 -0.2061  0.0626
  119OSM   H16F12589   3.439   1.343   7.844 -0.3203 -0.7789 -2.6601
  119OSM   H16G12590   3.401   1.214   7.963 -0.6881  0.3738  1.4834
  119OSM   C17F12591   3.246   1.366   7.958 -0.2282  0.5983 -0.2753
  119OSM   H17F12592   3.149   1.313   7.956  0.5970 -1.1318  1.7813
  119OSM   H17G12593   3.242   1.466   7.909 -0.3713  0.6472 -0.1634
  119OSM   C18F12594   3.287   1.390   8.096 -0.1843  0.1571 -0.0808
  119OSM   H18F12595   3.389   1.432   8.090  0.6009 -1.4816  0.9683
  119OSM   H18G12596   3.296   1.302   8.163  1.0736 -0.2365 -0.7425
  119OSM   H18H12597   3.207   1.451   8.143  0.5421  0.2993  0.9948
  120OSM      N12598   2.788   5.200   6.157  0.5554 -0.1142  0.6162
  120OSM    C1512599   2.714   5.068   6.161  0.0157 -0.0397  0.2706
  120OSM   H15A12600   2.631   5.076   6.230  1.1734  0.1814  1.6806
  120OSM   H15B12601   2.777   4.992   6.205 -1.7237 -1.3749  0.5460
  120OSM   H15C12602   2.681   5.036   6.064  0.4157 -1.9862  0.7492
  120OSM    C1412603   2.896   5.181   6.053 -0.2895 -0.0824  0.0249
  120OSM   H14A12604   2.857   5.150   5.957  0.4108  0.2166 -0.3626
  120OSM   H14B12605   2.964   5.106   6.089  0.3760  0.9976  1.0843
  120OSM   H14C12606   2.946   5.275   6.033 -1.3862  0.2697 -1.2230
  120OSM    C1312607   2.697   5.310   6.109 -0.0133 -0.8510 -0.0591
  120OSM   H13A12608   2.664   5.303   6.006 -0.9357  1.6671 -0.0024
  120OSM   H13B12609   2.758   5.399   6.107 -1.8275  0.4491  0.5855
  120OSM   H13C12610   2.610   5.320   6.171 -0.9325 -1.2866 -1.2382
  120OSM    C1212611   2.853   5.226   6.288  0.4372 -0.5289 -0.0169
  120OSM   H12A12612   2.774   5.248   6.358  2.5119 -0.9386  2.6146
  120OSM   H12B12613   2.910   5.317   6.276  0.5925 -0.6674 -0.3463
  120OSM    C1112614   2.939   5.114   6.352  0.5602 -0.4395 -0.2041
  120OSM   H11A12615   2.880   5.020   6.358 -1.6246  0.8573 -0.2231
  120OSM   H11B12616   2.965   5.140   6.457 -1.1837 -1.8057  0.6119
  120OSM      P12617   3.181   5.179   6.295 -0.0874 -0.3979  0.0369
  120OSM    O1312618   3.300   5.115   6.248 -0.0194 -0.0104 -0.1113
  120OSM    O1412619   3.146   5.315   6.244 -0.3146  0.4093  0.0096
  120OSM    O1112620   3.201   5.186   6.450 -0.4638  0.4382 -0.0425
  120OSM    O1212621   3.052   5.088   6.272 -0.5242  0.1400 -0.7760
  120OSM    C1S12622   3.281   5.088   6.513  0.0714  0.1788  0.0691
  120OSM    H1S12623   3.384   5.081   6.472 -0.1570 -0.3275 -0.4293
  120OSM    H1T12624   3.244   4.983   6.505 -0.2283  0.2705  0.2446
  120OSM     NF12625   3.384   5.036   6.728 -0.2418 -1.0627  0.2391
  120OSM    HNF12626   3.349   4.960   6.782  0.4626 -0.3255  1.8132
  120OSM    C2S12627   3.286   5.120   6.662  0.7249  0.0305 -0.6420
  120OSM    H2S12628   3.325   5.223   6.677 -0.3168  0.3614 -0.1172
  120OSM    C3S12629   3.142   5.113   6.722  0.5627  0.7157 -0.3924
  120OSM    H3S12630   3.098   5.013   6.702  0.6522  0.4624  0.6460
  120OSM     O312631   3.052   5.200   6.660 -0.1857  0.7190  0.3893
  120OSM    HO312632   3.092   5.214   6.574 -2.3757 -0.5246 -0.9033
  120OSM    C4S12633   3.149   5.138   6.876  0.1590 -0.6635  0.1117
  120OSM    H4S12634   3.112   5.062   6.948  1.4640 -0.6069  0.8643
  120OSM    C5S12635   3.182   5.256   6.928  0.2689  0.2815 -0.4999
  120OSM    H5S12636   3.200   5.339   6.859  2.3078 -0.2929 -0.7232
  120OSM    C6S12637   3.187   5.288   7.071  0.8117 -0.3906  0.4892
  120OSM    H6S12638   3.099   5.350   7.098  1.3499  0.6015  0.0196
  120OSM    H6T12639   3.281   5.345   7.084  1.1190 -0.4852 -1.1007
  120OSM    C7S12640   3.191   5.161   7.156  0.0287 -0.2376 -0.2408
  120OSM    H7S12641   3.281   5.104   7.124  0.2704 -0.1996  0.3678
  120OSM    H7T12642   3.093   5.108   7.148  0.7878 -1.8670  0.7176
  120OSM    C8S12643   3.200   5.194   7.302  0.6803  0.3881 -0.4682
  120OSM    H8S12644   3.110   5.256   7.326  1.1231  1.4207 -1.3610
  120OSM    H8T12645   3.286   5.262   7.322  0.9850 -0.5625  1.6784
  120OSM    C9S12646   3.211   5.070   7.395  0.7247 -0.9203 -0.7568
  120OSM    H9S12647   3.264   5.101   7.488 -1.2957  2.1443 -0.4718
  120OSM    H9T12648   3.266   4.993   7.337  1.5819  0.1763 -1.4528
  120OSM   C10S12649   3.071   5.028   7.439  0.4115 -0.4752  0.1509
  120OSM   H10S12650   3.018   5.001   7.346 -1.4187  2.0027  0.3663
  120OSM   H10T12651   3.020   5.116   7.484 -0.5101 -0.4904 -0.8534
  120OSM   C11S12652   3.062   4.913   7.538  0.0907  0.1051  0.3717
  120OSM   H11S12653   3.139   4.835   7.522 -2.1166 -2.2763  0.6799
  120OSM   H11T12654   2.966   4.857   7.530  0.4115 -0.4084  0.1167
  120OSM   C12S12655   3.056   4.946   7.688  0.3487  0.0909  0.6890
  120OSM   H12S12656   2.986   5.031   7.702 -0.1926  0.2009 -2.0969
  120OSM   H12T12657   3.155   4.974   7.730  0.3024 -0.1393  0.9594
  120OSM   C13S12658   3.018   4.823   7.772 -0.2341  0.9606  0.6842
  120OSM   H13S12659   3.075   4.740   7.725  1.1166  2.2168 -0.0076
  120OSM   H13T12660   2.912   4.792   7.772  0.0430 -0.1085  2.3217
  120OSM   C14S12661   3.065   4.824   7.915 -1.1747 -0.6083  0.3119
  120OSM   H14S12662   3.033   4.916   7.968 -0.7560  0.1909 -0.7971
  120OSM   H14T12663   3.175   4.836   7.905 -0.6862 -3.6365  1.1178
  120OSM   C15S12664   3.043   4.699   8.000 -0.0851  0.4716  0.0756
  120OSM   H15S12665   3.091   4.612   7.951 -1.3127  0.1173 -0.5390
  120OSM   H15T12666   2.935   4.676   8.006 -0.3275 -0.0931 -3.9673
  120OSM   C16S12667   3.113   4.702   8.138 -0.3482 -0.1822 -0.3084
  120OSM   H16S12668   3.037   4.751   8.203 -1.0943 -0.4956 -0.9250
  120OSM   H16T12669   3.206   4.762   8.134  1.3433 -2.0056  4.4946
  120OSM   C17S12670   3.149   4.564   8.188  0.0034  0.1885  0.2063
  120OSM   H17S12671   3.097   4.486   8.129 -0.1200 -0.1703  0.7753
  120OSM   H17T12672   3.124   4.543   8.294 -2.5166 -2.2736 -0.7433
  120OSM   C18S12673   3.306   4.544   8.170  0.3269  0.0806 -0.1726
  120OSM   H18S12674   3.353   4.583   8.262 -0.0930 -0.9961  0.5180
  120OSM   H18T12675   3.348   4.607   8.089  1.7606  0.1430  0.5886
  120OSM   H18U12676   3.332   4.436   8.156  2.7201  0.3540  1.5697
  120OSM    C1F12677   3.517   5.052   6.723  0.3683 -0.2399  0.5381
  120OSM     OF12678   3.568   5.140   6.651  0.0534 -0.0184 -0.1222
  120OSM    C2F12679   3.596   4.946   6.802 -0.1792 -0.0631 -0.2005
  120OSM    H2F12680   3.661   4.898   6.726  3.0379  0.8803  1.7784
  120OSM    H2G12681   3.536   4.867   6.853 -0.5454  0.4527  0.1797
  120OSM    C3F12682   3.677   5.001   6.918 -0.1999 -0.6189 -0.2145
  120OSM    H3F12683   3.710   5.105   6.899 -0.3015 -0.6619 -0.6410
  120OSM    H3G12684   3.773   4.946   6.918  0.8336  1.1242  0.5297
  120OSM    C4F12685   3.603   4.989   7.049 -0.1212  0.4100 -0.5008
  120OSM    H4F12686   3.591   4.881   7.075 -1.9729  0.8754  0.7624
  120OSM    H4G12687   3.501   5.029   7.030 -0.8297 -1.0967 -0.0533
  120OSM    C5F12688   3.665   5.058   7.163 -0.1731 -0.5541 -0.3258
  120OSM    H5F12689   3.639   5.166   7.156 -2.1452 -1.0431 -1.4295
  120OSM    H5G12690   3.776   5.051   7.166 -0.1559 -0.2237 -0.0853
  120OSM    C6F12691   3.620   5.012   7.295  0.5015 -0.1727 -0.0843
  120OSM    H6F12692   3.654   4.908   7.318  0.1953 -0.6047 -1.4963
  120OSM    H6G12693   3.510   5.001   7.299  0.4752  0.0362 -0.2500
  120OSM    C7F12694   3.660   5.108   7.405 -0.4053 -0.2577 -0.3018
  120OSM    H7F12695   3.590   5.194   7.413 -0.2249 -0.1354 -0.0131
  120OSM    H7G12696   3.761   5.147   7.380  0.3216  0.5859  3.3035
  120OSM    C8F12697   3.663   5.049   7.550 -0.6372 -0.1241  0.0774
  120OSM    H8F12698   3.718   4.953   7.546 -1.0270 -0.3318 -0.3532
  120OSM    H8G12699   3.556   5.019   7.558  0.0113 -3.0568 -1.0030
  120OSM    C9F12700   3.724   5.144   7.655  1.6028 -0.1461  0.0615
  120OSM    H9F12701   3.833   5.158   7.652  1.4447  1.7556  1.4433
  120OSM   C10F12702   3.649   5.218   7.743 -0.2227  1.1639  0.3636
  120OSM   H10F12703   3.699   5.284   7.815  1.1047 -0.7888  1.3131
  120OSM   C11F12704   3.498   5.206   7.759 -0.3234  1.0588 -0.5496
  120OSM   H11F12705   3.442   5.183   7.666 -1.0563  0.5330  0.0125
  120OSM   H11G12706   3.458   5.300   7.802  1.0200  2.6653 -2.6088
  120OSM   C12F12707   3.457   5.082   7.850  0.4007  0.1782  0.4521
  120OSM   H12F12708   3.498   4.983   7.819 -0.9068 -0.0141 -0.7939
  120OSM   H12G12709   3.346   5.088   7.840  0.3782  2.5024  1.6652
  120OSM   C13F12710   3.493   5.100   7.994  0.6845 -0.0381 -0.3216
  120OSM   H13F12711   3.455   5.189   8.048 -0.0806 -0.8653  0.5347
  120OSM   H13G12712   3.603   5.112   7.984  0.4652  0.8411 -2.0402
  120OSM   C14F12713   3.467   4.981   8.084 -0.3908 -0.2903 -0.0941
  120OSM   H14F12714   3.495   4.891   8.024  0.3120  0.0139 -0.2405
  120OSM   H14G12715   3.361   4.975   8.114 -0.6274  3.5402  0.3147
  120OSM   C15F12716   3.555   5.001   8.210  0.0730  0.4126 -0.6232
  120OSM   H15F12717   3.533   5.094   8.266  1.1094  0.6278 -0.5515
  120OSM   H15G12718   3.661   5.003   8.179  0.1415  0.5482 -0.3790
  120OSM   C16F12719   3.549   4.877   8.305 -0.2844  0.8406  0.8570
  120OSM   H16F12720   3.586   4.785   8.256 -0.7595  1.0304  0.1250
  120OSM   H16G12721   3.440   4.862   8.319 -0.2053 -0.6446  0.0222
  120OSM   C17F12722   3.609   4.914   8.443  0.2900 -0.5260  0.3024
  120OSM   H17F12723   3.593   5.024   8.449 -0.3755 -0.5799 -0.3234
  120OSM   H17G12724   3.718   4.894   8.436  0.7366  0.5645  3.0112
  120OSM   C18F12725   3.545   4.840   8.563 -0.1499 -0.1286  0.0853
  120OSM   H18F12726   3.605   4.885   8.645  1.1487  2.5601 -2.1680
  120OSM   H18G12727   3.560   4.730   8.556 -1.2117 -0.3914  1.4787
  120OSM   H18H12728   3.442   4.878   8.578 -0.3392  0.6333 -2.6150
  121OSM      N12729   3.426   6.363   6.193  0.0542 -0.6354 -0.9879
  121OSM    C1512730   3.459   6.509   6.168 -0.6548 -0.0719  0.1105
  121OSM   H15A12731   3.391   6.538   6.090 -2.6199 -1.3312  1.2729
  121OSM   H15B12732   3.562   6.519   6.135 -0.7905 -1.2578 -0.7322
  121OSM   H15C12733   3.449   6.580   6.249  0.8441  0.2466  0.0541
  121OSM    C1412734   3.455   6.301   6.058  0.0796  1.2767 -0.4609
  121OSM   H14A12735   3.561   6.283   6.044 -0.1521  1.2689 -2.4367
  121OSM   H14B12736   3.427   6.363   5.974 -1.4284 -2.2930 -2.8291
  121OSM   H14C12737   3.409   6.204   6.061  1.0591  0.7152  3.8206
  121OSM    C1312738   3.525   6.312   6.293  0.2807 -0.1869  0.2979
  121OSM   H13A12739   3.522   6.205   6.289 -0.0932 -0.3016  2.5209
  121OSM   H13B12740   3.491   6.329   6.394  1.9110 -0.4379  0.9197
  121OSM   H13C12741   3.627   6.344   6.277 -0.3263  0.2969 -3.7491
  121OSM    C1212742   3.283   6.340   6.229 -0.4889 -0.1059  0.2076
  121OSM   H12A12743   3.259   6.386   6.324  0.5280  2.5214 -0.7000
  121OSM   H12B12744   3.265   6.234   6.239  1.0910 -0.5196 -1.0731
  121OSM    C1112745   3.171   6.387   6.135 -0.0711  0.1817 -0.3865
  121OSM   H11A12746   3.078   6.346   6.178 -1.5744  2.0953 -1.6232
  121OSM   H11B12747   3.183   6.350   6.031  2.2811  1.1229 -0.5358
  121OSM      P12748   3.140   6.621   6.250 -0.0923  0.3128  0.0223
  121OSM    O1312749   3.249   6.721   6.266 -0.0819  0.1015  0.3556
  121OSM    O1412750   2.993   6.664   6.245 -0.7805 -0.0824  0.6298
  121OSM    O1112751   3.134   6.511   6.360 -0.2504  0.0065  0.2064
  121OSM    O1212752   3.170   6.534   6.126 -0.1628  0.0082 -0.3389
  121OSM    C1S12753   3.120   6.565   6.495  0.2139  0.0990 -0.0850
  121OSM    H1S12754   3.187   6.652   6.512  1.7844 -1.6513  3.9117
  121OSM    H1T12755   3.171   6.489   6.557  1.6000  0.5671 -0.6030
  121OSM     NF12756   2.959   6.640   6.668 -0.7068  0.0421 -0.0247
  121OSM    HNF12757   2.942   6.585   6.749 -1.3095  0.8383  0.4052
  121OSM    C2S12758   2.970   6.581   6.534  0.1849  0.4858 -0.2555
  121OSM    H2S12759   2.918   6.654   6.468  0.5990  2.4445  1.4620
  121OSM    C3S12760   2.891   6.438   6.510 -1.5250  0.3432  0.3798
  121OSM    H3S12761   2.951   6.349   6.542 -0.4412  0.9612  0.1389
  121OSM     O312762   2.875   6.410   6.374 -0.0696 -0.0497 -0.1184
  121OSM    HO312763   2.949   6.456   6.333  1.4866 -0.2234  2.3083
  121OSM    C4S12764   2.757   6.440   6.578 -0.4266  0.1987 -0.0911
  121OSM    H4S12765   2.673   6.501   6.541 -2.5533 -2.1978  0.4613
  121OSM    C5S12766   2.741   6.375   6.701  0.0769 -0.0721  0.0253
  121OSM    H5S12767   2.830   6.336   6.753  0.2897  0.4356  0.0496
  121OSM    C6S12768   2.616   6.381   6.788 -0.7800 -0.0278 -0.1193
  121OSM    H6S12769   2.584   6.286   6.836  0.5616 -0.9684 -1.0290
  121OSM    H6T12770   2.529   6.423   6.733 -1.1421  3.2339  2.6016
  121OSM    C7S12771   2.626   6.481   6.905  0.2653  0.2011 -0.3317
  121OSM    H7S12772   2.617   6.588   6.879  1.0079 -0.3887 -3.3412
  121OSM    H7T12773   2.728   6.479   6.950 -0.0364 -0.6858  0.3616
  121OSM    C8S12774   2.521   6.457   7.018  0.3864 -0.1462  0.5614
  121OSM    H8S12775   2.552   6.356   7.055  0.2441 -0.5508 -0.3756
  121OSM    H8T12776   2.422   6.433   6.974 -0.6371  0.9172  2.2268
  121OSM    C9S12777   2.498   6.560   7.123 -0.0834 -0.3388 -0.5203
  121OSM    H9S12778   2.432   6.637   7.080  0.6418  0.1684 -0.7456
  121OSM    H9T12779   2.600   6.597   7.149  0.9822 -1.6038 -2.6079
  121OSM   C10S12780   2.439   6.499   7.250  0.2908  0.1093 -0.1412
  121OSM   H10S12781   2.357   6.430   7.221 -1.0354  1.3035  0.6227
  121OSM   H10T12782   2.390   6.582   7.305  0.3537  1.1713 -1.6382
  121OSM   C11S12783   2.534   6.436   7.340 -0.3065  0.3626 -0.1504
  121OSM   H11S12784   2.625   6.499   7.354 -0.5082  0.7056 -0.3675
  121OSM   H11T12785   2.560   6.338   7.294  2.3952  0.5949  0.7227
  121OSM   C12S12786   2.475   6.401   7.483 -0.2253 -0.2329  0.5269
  121OSM   H12S12787   2.532   6.315   7.524 -0.4484  0.0136  1.3601
  121OSM   H12T12788   2.369   6.364   7.484 -0.1704 -0.4177 -0.0768
  121OSM   C13S12789   2.485   6.526   7.571  0.4852 -0.4355 -0.9551
  121OSM   H13S12790   2.422   6.604   7.523 -1.7075 -1.7334 -0.3299
  121OSM   H13T12791   2.591   6.554   7.584 -0.1251  2.3326 -1.3089
  121OSM   C14S12792   2.440   6.515   7.722 -0.0733 -0.6260 -0.1962
  121OSM   H14S12793   2.471   6.412   7.751  1.5469 -0.8846 -2.5214
  121OSM   H14T12794   2.330   6.529   7.722 -0.0169  0.0123  1.2348
  121OSM   C15S12795   2.509   6.614   7.812  0.3148 -0.5489 -0.0610
  121OSM   H15S12796   2.620   6.608   7.812  0.2703 -2.5166 -1.2849
  121OSM   H15T12797   2.477   6.581   7.913  1.6227  0.1302  0.6053
  121OSM   C16S12798   2.458   6.751   7.793 -0.3275  0.7861  0.0405
  121OSM   H16S12799   2.352   6.747   7.827 -0.4762 -0.3674 -0.4881
  121OSM   H16T12800   2.463   6.777   7.685  1.1385 -0.5139 -0.2491
  121OSM   C17S12801   2.535   6.869   7.863 -0.8753 -0.4987 -0.5857
  121OSM   H17S12802   2.641   6.876   7.831 -0.1008  0.9628  1.9768
  121OSM   H17T12803   2.543   6.843   7.971  1.6411  0.6661 -0.4233
  121OSM   C18S12804   2.480   7.015   7.849  0.2890 -0.1017 -0.2611
  121OSM   H18S12805   2.499   7.047   7.744 -0.1976 -3.2134 -1.4078
  121OSM   H18T12806   2.528   7.085   7.921  0.9705 -0.8030 -0.0212
  121OSM   H18U12807   2.372   7.016   7.872  0.7975 -1.5366  2.6753
  121OSM    C1F12808   2.984   6.772   6.695 -0.2340  0.2466 -0.3141
  121OSM     OF12809   3.024   6.843   6.608 -0.9534  0.7185 -0.0358
  121OSM    C2F12810   2.972   6.819   6.840  0.0283 -0.1777  0.2212
  121OSM    H2F12811   3.024   6.740   6.899  1.0542 -2.2955 -3.1925
  121OSM    H2G12812   2.864   6.814   6.866  0.2534 -2.0848  0.9611
  121OSM    C3F12813   3.018   6.968   6.847 -0.5054 -0.6404 -0.4250
  121OSM    H3F12814   2.943   7.019   6.783 -1.6101 -0.0475  1.2812
  121OSM    H3G12815   3.127   6.986   6.833 -0.8154  1.3582 -0.5493
  121OSM    C4F12816   2.986   7.030   6.981 -0.0136 -0.0669 -0.5005
  121OSM    H4F12817   3.058   6.985   7.054 -0.3928 -0.4181 -0.3358
  121OSM    H4G12818   2.882   7.003   7.008  0.2826  0.0812  0.8835
  121OSM    C5F12819   3.001   7.182   6.967  0.1848  0.3578 -0.5477
  121OSM    H5F12820   2.930   7.216   6.889 -0.4869 -1.0233 -0.5628
  121OSM    H5G12821   3.099   7.214   6.926 -0.5820  2.7911 -0.6325
  121OSM    C6F12822   2.977   7.258   7.101 -0.1279 -0.0816  0.7415
  121OSM    H6F12823   2.960   7.362   7.065 -2.5557 -0.2861  1.1742
  121OSM    H6G12824   3.064   7.271   7.169 -0.6519 -0.6937  1.5427
  121OSM    C7F12825   2.862   7.208   7.192  0.2426  0.2069  0.4032
  121OSM    H7F12826   2.883   7.116   7.251 -1.3321  0.8931  2.1295
  121OSM    H7G12827   2.773   7.190   7.128  0.3324 -0.7115  0.5237
  121OSM    C8F12828   2.831   7.322   7.290 -0.0821 -0.2778  0.5415
  121OSM    H8F12829   2.809   7.409   7.225 -0.3902  0.8217  2.0629
  121OSM    H8G12830   2.909   7.367   7.354  1.2858 -2.3907  0.4727
  121OSM    C9F12831   2.706   7.296   7.371 -0.4481 -0.0665  0.2377
  121OSM    H9F12832   2.613   7.342   7.334 -0.0044  0.5700 -0.0920
  121OSM   C10F12833   2.706   7.251   7.498  0.0593 -0.3492 -0.1440
  121OSM   H10F12834   2.618   7.244   7.564  0.4423 -1.2159  0.2812
  121OSM   C11F12835   2.836   7.220   7.579  0.2338 -0.6652  0.4479
  121OSM   H11F12836   2.840   7.288   7.666 -2.5350  0.7292 -0.3993
  121OSM   H11G12837   2.927   7.240   7.518 -1.0531 -0.7379 -1.6004
  121OSM   C12F12838   2.840   7.076   7.640  0.4547 -0.1818 -0.3401
  121OSM   H12F12839   2.742   7.045   7.681  0.1791  0.5686 -0.4176
  121OSM   H12G12840   2.918   7.063   7.719 -1.1219 -2.5225  0.9548
  121OSM   C13F12841   2.873   6.975   7.531  1.2053  0.2690 -0.1274
  121OSM   H13F12842   2.978   6.968   7.494  0.6621 -1.9549 -1.4577
  121OSM   H13G12843   2.808   7.003   7.445 -1.6744 -0.5997  1.6597
  121OSM   C14F12844   2.823   6.833   7.569 -0.5184 -0.4597  0.1668
  121OSM   H14F12845   2.719   6.847   7.607 -0.7521  1.9397 -1.1881
  121OSM   H14G12846   2.883   6.792   7.653  0.1650 -0.4509 -0.3165
  121OSM   C15F12847   2.821   6.739   7.456  0.4236 -0.0027 -0.4513
  121OSM   H15F12848   2.759   6.778   7.372 -1.9108 -1.1177  0.6605
  121OSM   H15G12849   2.780   6.645   7.498  1.8939 -0.8069 -0.7490
  121OSM   C16F12850   2.958   6.693   7.398 -0.6559 -0.3587  0.4313
  121OSM   H16F12851   3.020   6.630   7.467  3.1159 -1.0374 -3.1339
  121OSM   H16G12852   3.009   6.790   7.378  0.7290 -0.5403  2.7619
  121OSM   C17F12853   2.954   6.633   7.252  0.7867  0.2446 -0.4703
  121OSM   H17F12854   2.962   6.717   7.180 -0.3916  0.9930  0.2271
  121OSM   H17G12855   2.855   6.586   7.232  0.2396  0.2114  1.9431
  121OSM   C18F12856   3.061   6.524   7.219  0.2487 -0.2704  0.6626
  121OSM   H18F12857   3.025   6.431   7.268 -1.2113 -0.0002  0.1574
  121OSM   H18G12858   3.161   6.557   7.255 -0.3302 -1.1939  3.3589
  121OSM   H18H12859   3.053   6.506   7.109  1.3596  0.6803  0.4062
  122OSM      N12860   3.428   1.042   5.942 -0.2249  0.4460  0.0046
  122OSM    C1512861   3.420   0.895   5.923  0.2343 -0.3804 -0.2044
  122OSM   H15A12862   3.505   0.842   5.964  1.7682  1.2215 -1.1412
  122OSM   H15B12863   3.409   0.864   5.820 -1.0266 -1.6019  0.2772
  122OSM   H15C12864   3.332   0.844   5.959 -0.4217  0.1143 -1.0460
  122OSM    C1412865   3.457   1.064   6.086 -0.1783 -0.1455  0.6472
  122OSM   H14A12866   3.363   1.056   6.139 -0.2727 -0.7911  0.3962
  122OSM   H14B12867   3.486   1.168   6.091  2.9053 -0.8803  0.3106
  122OSM   H14C12868   3.526   0.996   6.135  0.6960  0.3099  0.0656
  122OSM    C1312869   3.540   1.109   5.861  0.0572  0.4807 -0.2386
  122OSM   H13A12870   3.636   1.098   5.909  0.1779  2.4743  0.0829
  122OSM   H13B12871   3.528   1.216   5.848  0.7114  0.5691 -0.1573
  122OSM   H13C12872   3.529   1.058   5.766 -2.0911 -0.0561  0.2573
  122OSM    C1212873   3.293   1.110   5.894  0.4121  0.1619 -0.6775
  122OSM   H12A12874   3.273   1.084   5.791  0.3194 -1.5149 -0.2770
  122OSM   H12B12875   3.303   1.215   5.915 -1.5574 -0.2692  3.3461
  122OSM    C1112876   3.170   1.069   5.986  0.5264 -0.0367 -0.0819
  122OSM   H11A12877   3.173   0.958   5.996 -1.8584 -0.0963  0.4276
  122OSM   H11B12878   3.079   1.100   5.932 -0.1375 -0.3708  0.8258
  122OSM      P12879   3.118   1.256   6.158  0.2730  0.3107 -0.3383
  122OSM    O1312880   3.200   1.307   6.270 -0.6006  0.3069 -0.6343
  122OSM    O1412881   3.083   1.344   6.047 -0.1338  0.0479 -0.3351
  122OSM    O1112882   2.976   1.210   6.219  0.0432  0.2813 -0.5067
  122OSM    O1212883   3.179   1.122   6.118 -0.1407  0.4468 -0.1560
  122OSM    C1S12884   2.958   1.096   6.302  0.3144  0.1840 -0.4170
  122OSM    H1S12885   3.022   1.013   6.266  0.1474  0.4842 -1.4408
  122OSM    H1T12886   2.858   1.056   6.275  1.0519 -0.2391 -2.6512
  122OSM     NF12887   2.947   0.991   6.518 -0.0020  0.1090  0.9389
  122OSM    HNF12888   2.855   0.964   6.548 -0.3539  0.2259 -0.0032
  122OSM    C2S12889   2.963   1.117   6.459  0.2906 -0.5434  0.1614
  122OSM    H2S12890   3.060   1.167   6.475  0.7221 -1.3051 -0.0128
  122OSM    C3S12891   2.852   1.214   6.508 -0.4528 -0.5468 -0.4772
  122OSM    H3S12892   2.755   1.183   6.465 -0.3976  0.6648 -1.5425
  122OSM     O312893   2.865   1.348   6.461 -0.6219 -0.7128  0.5650
  122OSM    HO312894   2.935   1.339   6.396 -1.3668  1.0399 -0.5475
  122OSM    C4S12895   2.849   1.204   6.666  0.7512 -0.4550 -0.0924
  122OSM    H4S12896   2.797   1.109   6.690 -2.4841  1.3791  0.7715
  122OSM    C5S12897   2.907   1.283   6.762  0.0716  0.3425  0.5967
  122OSM    H5S12898   2.982   1.360   6.739  0.4165 -0.1129  0.1643
  122OSM    C6S12899   2.898   1.253   6.909  0.1049 -1.1132 -0.2555
  122OSM    H6S12900   2.997   1.211   6.937  0.2165 -1.8214 -1.6563
  122OSM    H6T12901   2.808   1.199   6.944 -0.4643  0.5683  1.0163
  122OSM    C7S12902   2.895   1.394   6.985  0.1041 -0.5044 -0.0816
  122OSM    H7S12903   2.791   1.433   6.989  0.7876  1.8094 -2.3561
  122OSM    H7T12904   2.957   1.471   6.934  1.8325  0.0801  2.7150
  122OSM    C8S12905   2.940   1.384   7.132 -0.4337 -0.1591 -0.2905
  122OSM    H8S12906   3.050   1.366   7.130 -0.6241 -2.2059  2.1356
  122OSM    H8T12907   2.897   1.292   7.178  2.6324 -1.3896  0.3907
  122OSM    C9S12908   2.908   1.495   7.229 -0.2871  0.1760  0.9987
  122OSM    H9S12909   2.802   1.486   7.259 -0.6279  0.9214  0.0547
  122OSM    H9T12910   2.934   1.592   7.182 -0.6181  1.5878  3.5315
  122OSM   C10S12911   2.993   1.486   7.356 -0.2461 -0.0436 -0.3363
  122OSM   H10S12912   3.092   1.534   7.337  0.9831 -2.1552  0.3454
  122OSM   H10T12913   3.000   1.377   7.381 -2.4660 -0.2979 -0.6848
  122OSM   C11S12914   2.947   1.584   7.465  0.8614  0.0897  0.0256
  122OSM   H11S12915   2.839   1.574   7.492  0.4952  3.2968  0.1477
  122OSM   H11T12916   2.967   1.686   7.425  2.4111 -0.0798  0.2956
  122OSM   C12S12917   3.033   1.568   7.595  0.4690  0.0304 -0.6269
  122OSM   H12S12918   3.139   1.593   7.577  1.4511 -2.5638  0.9609
  122OSM   H12T12919   3.019   1.462   7.627 -1.2501  0.6080  0.7108
  122OSM   C13S12920   2.965   1.654   7.705 -0.4653  0.1527 -0.6735
  122OSM   H13S12921   2.866   1.616   7.737  0.1355 -0.5809  0.4154
  122OSM   H13T12922   2.958   1.763   7.684 -0.3492  0.5598  1.2517
  122OSM   C14S12923   3.032   1.650   7.848  0.5704  0.2715 -0.0225
  122OSM   H14S12924   3.142   1.652   7.840  0.4902  1.2430 -1.0290
  122OSM   H14T12925   3.015   1.547   7.887  1.5471 -0.1563 -0.6833
  122OSM   C15S12926   2.983   1.752   7.954  1.1325 -0.4966 -0.3066
  122OSM   H15S12927   2.880   1.715   7.975  0.4852  1.3218 -0.0685
  122OSM   H15T12928   2.971   1.845   7.895 -1.2438 -0.0339  0.7704
  122OSM   C16S12929   3.070   1.765   8.079 -0.9874  0.0733 -0.5091
  122OSM   H16S12930   3.177   1.758   8.048 -1.3233 -0.5477 -1.5769
  122OSM   H16T12931   3.053   1.678   8.146  1.8497 -0.9170 -0.9117
  122OSM   C17S12932   3.050   1.895   8.152  0.3376 -0.5218 -0.1430
  122OSM   H17S12933   2.953   1.877   8.204  0.3904  0.0326  0.1553
  122OSM   H17T12934   3.054   1.988   8.092  2.8852  0.8860  1.9947
  122OSM   C18S12935   3.163   1.910   8.255  0.0879  0.0068 -0.8130
  122OSM   H18S12936   3.162   2.016   8.288 -2.6086 -0.4178  0.8222
  122OSM   H18T12937   3.265   1.898   8.214  1.1003  1.8704  0.9931
  122OSM   H18U12938   3.139   1.841   8.339  0.3224 -2.4366 -2.6544
  122OSM    C1F12939   3.045   0.909   6.502  0.1625  0.0367 -0.2553
  122OSM     OF12940   3.152   0.946   6.462  0.8176  0.1087  0.1428
  122OSM    C2F12941   3.018   0.766   6.529 -0.2839  0.4229 -0.0789
  122OSM    H2F12942   2.996   0.720   6.430  0.1957  1.4439 -0.6702
  122OSM    H2G12943   2.920   0.748   6.580  0.8851 -0.7061  1.9143
  122OSM    C3F12944   3.135   0.691   6.600  1.0616 -0.5842  0.4649
  122OSM    H3F12945   3.221   0.691   6.529 -0.8208 -1.6042 -1.9800
  122OSM    H3G12946   3.103   0.587   6.623 -0.4756  0.2946  2.5727
  122OSM    C4F12947   3.165   0.747   6.739 -0.0749  0.6664 -0.0085
  122OSM    H4F12948   3.199   0.852   6.732  1.0275  0.3162 -0.0394
  122OSM    H4G12949   3.240   0.682   6.788 -2.8440 -0.3209  3.3558
  122OSM    C5F12950   3.051   0.745   6.840  0.1966  0.2674  0.4566
  122OSM    H5F12951   3.024   0.640   6.865  1.1035 -0.8377 -2.7472
  122OSM    H5G12952   2.959   0.793   6.800 -0.9456 -0.1290  2.4809
  122OSM    C6F12953   3.073   0.809   6.977  0.1878 -0.0998 -0.4060
  122OSM    H6F12954   2.981   0.791   7.037  0.4611  0.0461  0.0630
  122OSM    H6G12955   3.084   0.917   6.953  2.0948 -0.6076 -2.1237
  122OSM    C7F12956   3.200   0.761   7.051  1.2931 -0.2161  0.1728
  122OSM    H7F12957   3.292   0.810   7.013  1.4127 -1.8339 -1.8517
  122OSM    H7G12958   3.215   0.654   7.024  3.0023  0.8645 -3.9244
  122OSM    C8F12959   3.188   0.781   7.197 -0.2647 -0.6326 -0.0179
  122OSM    H8F12960   3.092   0.746   7.240 -0.8941  0.8244 -0.1907
  122OSM    H8G12961   3.176   0.891   7.207  0.5159 -0.6185  0.9122
  122OSM    C9F12962   3.311   0.734   7.271  0.0415  0.6997 -0.8405
  122OSM    H9F12963   3.407   0.749   7.220  0.8502  1.7414  0.9124
  122OSM   C10F12964   3.314   0.670   7.391 -0.7275  0.6834  0.0879
  122OSM   H10F12965   3.414   0.649   7.431 -1.1946  0.0520  0.9694
  122OSM   C11F12966   3.193   0.621   7.466  0.2888 -0.3922 -0.6471
  122OSM   H11F12967   3.150   0.539   7.405 -0.6394  1.2166 -2.2406
  122OSM   H11G12968   3.116   0.700   7.466  0.9289  0.3380  2.2487
  122OSM   C12F12969   3.226   0.555   7.603 -0.3854  0.0975 -0.4523
  122OSM   H12F12970   3.283   0.460   7.597  0.9562  0.8907 -0.7073
  122OSM   H12G12971   3.132   0.535   7.658  1.2692  1.2424  3.0958
  122OSM   C13F12972   3.300   0.655   7.691 -0.3813 -0.3312  0.1048
  122OSM   H13F12973   3.252   0.755   7.696  1.9756  0.8391  0.7958
  122OSM   H13G12974   3.401   0.680   7.652 -0.7624  0.0605 -0.6679
  122OSM   C14F12975   3.309   0.594   7.829  0.1180  0.5437  0.6195
  122OSM   H14F12976   3.357   0.494   7.823  1.3829  1.1036  1.0565
  122OSM   H14G12977   3.203   0.579   7.857  0.7109 -5.8887  0.9542
  122OSM   C15F12978   3.382   0.676   7.935 -0.1773  0.2921 -0.7005
  122OSM   H15F12979   3.489   0.701   7.917 -0.4034  3.0427  1.0642
  122OSM   H15G12980   3.367   0.619   8.029 -0.4043 -0.8590 -1.4203
  122OSM   C16F12981   3.304   0.809   7.957 -0.0626 -0.2806 -0.3303
  122OSM   H16F12982   3.199   0.786   7.931 -0.7298  1.9495  0.1883
  122OSM   H16G12983   3.342   0.888   7.888  0.2858  1.0313  1.3084
  122OSM   C17F12984   3.311   0.869   8.096  0.1863 -0.0147 -0.3742
  122OSM   H17F12985   3.285   0.792   8.171 -0.5981  1.4194  0.8932
  122OSM   H17G12986   3.241   0.954   8.109 -0.1388 -0.2982 -0.2662
  122OSM   C18F12987   3.449   0.913   8.145 -0.5320 -0.3194 -0.0281
  122OSM   H18F12988   3.493   0.978   8.066 -2.9587  1.2334 -0.1872
  122OSM   H18G12989   3.505   0.817   8.151  0.4519  0.2236 -0.2872
  122OSM   H18H12990   3.438   0.950   8.249 -1.1222 -1.0370  0.1725
  123OSM      N12991   3.762   4.387   6.230  0.0099 -0.4113  0.2313
  123OSM    C1512992   3.906   4.372   6.176  0.1010  0.3314  0.0355
  123OSM   H15A12993   3.934   4.270   6.152 -0.3103  0.6906 -2.2214
  123OSM   H15B12994   3.972   4.395   6.258  1.5804 -0.8489 -0.7554
  123OSM   H15C12995   3.925   4.442   6.096 -0.9008 -0.6445 -1.0943
  123OSM    C1412996   3.754   4.314   6.355 -0.4215  0.2543 -0.5052
  123OSM   H14A12997   3.742   4.209   6.333 -1.4421  0.7074 -2.3736
  123OSM   H14B12998   3.662   4.327   6.411  0.8424  2.9582  1.1454
  123OSM   H14C12999   3.839   4.321   6.421  0.9209 -1.0132 -2.0380
  123OSM    C1313000   3.740   4.536   6.269 -0.4694  0.0342 -0.4407
  123OSM   H13A13001   3.780   4.602   6.194  0.0514  1.1972  0.8078
  123OSM   H13B13002   3.775   4.558   6.369 -2.0025 -0.0781  0.1578
  123OSM   H13C13003   3.633   4.549   6.277 -0.5758 -1.5155  1.4361
  123OSM    C1213004   3.657   4.341   6.133  0.2415  0.5170  0.3051
  123OSM   H12A13005   3.670   4.240   6.096  1.3722 -0.5258  3.2899
  123OSM   H12B13006   3.673   4.399   6.043  1.8972  0.0092  0.2283
  123OSM    C1113007   3.510   4.354   6.173 -0.4188 -0.5582 -0.5297
  123OSM   H11A13008   3.434   4.327   6.096 -1.2472 -2.1443  0.7787
  123OSM   H11B13009   3.485   4.461   6.187  0.1266 -0.6257  1.1632
  123OSM      P13010   3.426   4.148   6.312 -0.2189 -0.1280 -0.3416
  123OSM    O1313011   3.301   4.162   6.394  0.2840 -0.5552  0.3000
  123OSM    O1413012   3.436   4.070   6.184 -0.0957 -0.4702 -0.4814
  123OSM    O1113013   3.542   4.102   6.405  0.5221  0.2218 -0.2070
  123OSM    O1213014   3.472   4.294   6.288  0.0801  0.1059 -0.8367
  123OSM    C1S13015   3.554   4.164   6.535 -0.1130 -0.2162  0.4778
  123OSM    H1S13016   3.518   4.269   6.539 -0.4124 -0.2357 -1.0310
  123OSM    H1T13017   3.659   4.168   6.571  0.2156 -0.6329 -0.4277
  123OSM     NF13018   3.496   4.147   6.779  0.1877  0.6698  0.1622
  123OSM    HNF13019   3.568   4.116   6.841  2.0758  0.1370 -2.1454
  123OSM    C2S13020   3.488   4.074   6.651 -0.0469  0.7974  0.5255
  123OSM    H2S13021   3.384   4.047   6.621  1.4389 -3.9371 -1.3694
  123OSM    C3S13022   3.566   3.936   6.653 -0.3865 -0.7075  0.3153
  123OSM    H3S13023   3.677   3.937   6.650 -0.4016  0.0067 -2.0330
  123OSM     O313024   3.528   3.868   6.532 -0.1923 -0.2654 -0.1517
  123OSM    HO313025   3.478   3.934   6.484  0.1898  0.8816  0.9593
  123OSM    C4S13026   3.529   3.861   6.775  0.1733 -0.0773  0.6888
  123OSM    H4S13027   3.453   3.783   6.758  0.3758 -0.3281  0.9214
  123OSM    C5S13028   3.584   3.862   6.898 -0.1433 -0.7950  0.7384
  123OSM    H5S13029   3.679   3.916   6.910 -1.5250  1.8302  0.7956
  123OSM    C6S13030   3.532   3.784   7.011  0.1585 -0.9729  0.1507
  123OSM    H6S13031   3.607   3.712   7.049  0.1565 -0.1951  1.7089
  123OSM    H6T13032   3.438   3.738   6.973 -1.3199 -0.1881  2.5486
  123OSM    C7S13033   3.488   3.866   7.139 -0.4812 -0.2833  0.8621
  123OSM    H7S13034   3.420   3.948   7.107  0.5655  0.3248  0.1299
  123OSM    H7T13035   3.582   3.903   7.185 -1.3801  2.4685  0.6859
  123OSM    C8S13036   3.401   3.791   7.243 -0.1571  0.8413 -0.4652
  123OSM    H8S13037   3.457   3.710   7.293 -0.1793  1.0087 -0.1706
  123OSM    H8T13038   3.323   3.734   7.188  0.3860  1.0066 -1.4369
  123OSM    C9S13039   3.324   3.867   7.349  0.3193 -0.4822  0.0269
  123OSM    H9S13040   3.243   3.926   7.299 -0.5856  1.2129  3.1794
  123OSM    H9T13041   3.401   3.941   7.379  1.6786 -1.2268 -1.4934
  123OSM   C10S13042   3.257   3.766   7.449 -0.1653 -0.4876 -0.3592
  123OSM   H10S13043   3.344   3.702   7.478 -0.9595 -1.4712 -0.0919
  123OSM   H10T13044   3.188   3.696   7.398  0.6461 -0.9670 -0.8295
  123OSM   C11S13045   3.200   3.823   7.579 -0.2090  0.3429 -0.0889
  123OSM   H11S13046   3.135   3.907   7.549 -1.8369 -0.5657  0.7378
  123OSM   H11T13047   3.289   3.859   7.635  0.9617  0.0124 -1.6460
  123OSM   C12S13048   3.128   3.716   7.661 -0.6993 -0.6103  0.3592
  123OSM   H12S13049   3.198   3.629   7.651  1.8219  1.4427 -1.3103
  123OSM   H12T13050   3.033   3.698   7.607 -1.3613 -1.0678  1.6597
  123OSM   C13S13051   3.104   3.756   7.805  0.3860 -0.0501  0.1707
  123OSM   H13S13052   3.050   3.853   7.808  1.6706  0.6671  0.5489
  123OSM   H13T13053   3.200   3.772   7.858  0.1140 -0.9717  0.9669
  123OSM   C14S13054   3.032   3.646   7.879  0.2076 -0.1687  0.2635
  123OSM   H14S13055   3.081   3.547   7.868 -0.3481 -0.3244 -0.9790
  123OSM   H14T13056   2.927   3.635   7.843  1.0202 -2.7169 -1.6081
  123OSM   C15S13057   3.037   3.661   8.038 -0.4164  0.2316 -0.0901
  123OSM   H15S13058   3.136   3.629   8.076  0.8678  1.7229 -1.9546
  123OSM   H15T13059   2.969   3.584   8.080  0.6882 -0.9933 -0.4604
  123OSM   C16S13060   2.999   3.804   8.090  0.3893 -0.1466  0.0233
  123OSM   H16S13061   2.894   3.825   8.061  0.5840  0.2400 -0.4088
  123OSM   H16T13062   3.065   3.874   8.034  1.0651 -1.3750 -0.7747
  123OSM   C17S13063   3.020   3.825   8.237 -0.3483 -0.2157 -1.0727
  123OSM   H17S13064   3.030   3.934   8.257  2.7594 -0.2937 -1.6073
  123OSM   H17T13065   3.123   3.791   8.263 -1.5610 -2.1529  1.6252
  123OSM   C18S13066   2.926   3.765   8.335  0.3868  0.4213 -0.0963
  123OSM   H18S13067   2.955   3.773   8.442  1.4438 -1.4251 -0.1991
  123OSM   H18T13068   2.916   3.659   8.304  1.1002 -0.5288  2.6545
  123OSM   H18U13069   2.824   3.807   8.324  0.7218  1.7454  1.4871
  123OSM    C1F13070   3.430   4.256   6.801  0.5463 -0.2185 -0.8342
  123OSM     OF13071   3.344   4.289   6.725 -0.4596  0.2244  0.4844
  123OSM    C2F13072   3.453   4.331   6.930  0.2648  0.1423  0.8283
  123OSM    H2F13073   3.552   4.380   6.942  0.3896 -0.4703  2.6298
  123OSM    H2G13074   3.447   4.255   7.011  1.7213  0.6622  1.4567
  123OSM    C3F13075   3.332   4.419   6.967  0.1691 -0.3774 -0.7504
  123OSM    H3F13076   3.238   4.373   6.928  0.2655  0.8598 -2.5649
  123OSM    H3G13077   3.335   4.516   6.914  2.1837 -1.1843 -2.2249
  123OSM    C4F13078   3.326   4.435   7.120 -0.2725  0.0903  0.4262
  123OSM    H4F13079   3.290   4.537   7.145 -0.0283  0.0593  0.9160
  123OSM    H4G13080   3.429   4.413   7.155 -0.2566 -0.6334 -0.0458
  123OSM    C5F13081   3.228   4.340   7.192 -0.6402 -0.5322 -0.2751
  123OSM    H5F13082   3.277   4.241   7.178 -0.0122  0.0069 -2.2155
  123OSM    H5G13083   3.130   4.340   7.140  0.6656  1.6095 -3.0323
  123OSM    C6F13084   3.221   4.360   7.343  0.0781  0.7805 -0.1363
  123OSM    H6F13085   3.201   4.465   7.375 -2.5829 -0.2196  1.9040
  123OSM    H6G13086   3.323   4.351   7.384  0.3979  1.3904 -0.7620
  123OSM    C7F13087   3.137   4.252   7.423 -0.4986  0.1474  0.4790
  123OSM    H7F13088   3.188   4.154   7.413 -0.2387  0.1235  1.7930
  123OSM    H7G13089   3.032   4.240   7.391 -0.3042 -0.5738  0.1007
  123OSM    C8F13090   3.137   4.283   7.576 -0.8621 -0.0470 -0.0339
  123OSM    H8F13091   3.243   4.277   7.608 -0.2233 -0.4771 -2.0904
  123OSM    H8G13092   3.091   4.196   7.628  1.7139 -0.7348  1.2441
  123OSM    C9F13093   3.068   4.409   7.620 -0.0911  0.7700 -0.0828
  123OSM    H9F13094   3.095   4.501   7.566  0.3283  0.6078 -0.1576
  123OSM   C10F13095   2.975   4.406   7.721 -0.4142  0.1130 -0.1610
  123OSM   H10F13096   2.915   4.496   7.740 -0.7833  0.0433 -0.9603
  123OSM   C11F13097   2.933   4.285   7.807  0.1544 -0.4605  0.1778
  123OSM   H11F13098   2.949   4.188   7.754 -0.2121 -0.0030 -0.8007
  123OSM   H11G13099   2.822   4.290   7.803  0.1664 -0.8465 -0.9954
  123OSM   C12F13100   3.005   4.298   7.943  0.2431  0.0237  0.0041
  123OSM   H12F13101   2.996   4.406   7.971  0.5794  0.7705 -2.5300
  123OSM   H12G13102   3.108   4.273   7.912 -0.6624 -1.4425 -2.0179
  123OSM   C13F13103   2.957   4.191   8.042  0.2697 -0.4781  0.6401
  123OSM   H13F13104   3.015   4.196   8.137 -0.5404 -1.0594  1.1796
  123OSM   H13G13105   2.998   4.098   7.996  0.7271  0.4362 -0.8525
  123OSM   C14F13106   2.809   4.188   8.078  0.5204 -0.5333  0.0778
  123OSM   H14F13107   2.761   4.124   8.001 -1.0958  2.7040 -1.8382
  123OSM   H14G13108   2.764   4.287   8.056  0.7294 -0.2587  0.8432
  123OSM   C15F13109   2.774   4.139   8.214  0.3921 -0.1977 -0.7679
  123OSM   H15F13110   2.817   4.038   8.224  0.3005 -0.1946 -0.3416
  123OSM   H15G13111   2.664   4.126   8.223  0.4658 -0.3121  0.0715
  123OSM   C16F13112   2.829   4.238   8.318 -0.1817 -0.1232  0.3047
  123OSM   H16F13113   2.780   4.333   8.285  0.1659 -0.0456  0.0057
  123OSM   H16G13114   2.939   4.252   8.330 -0.3680  1.5062  0.3818
  123OSM   C17F13115   2.774   4.223   8.460  0.8152  0.1758 -0.4032
  123OSM   H17F13116   2.664   4.237   8.449  0.7423 -0.6310 -0.7501
  123OSM   H17G13117   2.818   4.299   8.528 -1.8627  0.2840  1.3604
  123OSM   C18F13118   2.791   4.086   8.517  0.0555 -0.2920 -0.1284
  123OSM   H18F13119   2.740   4.071   8.615  2.5576  0.2311  1.3345
  123OSM   H18G13120   2.895   4.048   8.527 -0.3244 -2.2071 -2.6308
  123OSM   H18H13121   2.745   4.019   8.441 -0.6241 -0.1837  0.1786
  124OSM      N13122   1.961   2.195   5.901  0.5938 -0.1536 -0.4100
  124OSM    C1513123   1.859   2.283   5.835  0.4799  0.1557 -0.4339
  124OSM   H15A13124   1.767   2.237   5.867  0.9028 -1.1373 -1.0066
  124OSM   H15B13125   1.852   2.282   5.727  0.1658 -0.9060 -0.4144
  124OSM   H15C13126   1.861   2.385   5.872  1.0935 -0.0976  0.2539
  124OSM    C1413127   1.929   2.050   5.869 -0.1851  0.0378 -0.2870
  124OSM   H14A13128   2.005   1.985   5.910 -0.5288 -1.1691 -1.4821
  124OSM   H14B13129   1.926   2.021   5.765 -0.9882  2.1947 -0.9206
  124OSM   H14C13130   1.833   2.023   5.909  1.0418 -1.2599  1.9496
  124OSM    C1313131   2.100   2.224   5.850  0.3695  0.1848 -0.1253
  124OSM   H13A13132   2.115   2.331   5.858  0.3160  0.1937 -0.1430
  124OSM   H13B13133   2.108   2.181   5.752  0.4176  0.9140 -0.4501
  124OSM   H13C13134   2.176   2.182   5.915  0.4840 -0.8290 -0.9036
  124OSM    C1213135   1.955   2.224   6.053  0.4797  0.0220  0.0987
  124OSM   H12A13136   1.856   2.214   6.095 -0.3135  1.5090 -1.3019
  124OSM   H12B13137   1.993   2.324   6.071  2.7790 -0.9760  1.2200
  124OSM    C1113138   2.039   2.140   6.149  0.1178 -0.0765 -0.0567
  124OSM   H11A13139   2.029   2.183   6.251  2.2097 -0.7212  0.4668
  124OSM   H11B13140   2.148   2.144   6.127  0.2191 -0.0688  0.4276
  124OSM      P13141   1.853   1.969   6.217 -0.6122 -0.2830 -0.4630
  124OSM    O1313142   1.776   2.088   6.257 -0.0533  0.0284  0.3472
  124OSM    O1413143   1.778   1.872   6.141  0.1397 -0.4891  0.1958
  124OSM    O1113144   1.905   1.905   6.356  0.4743 -0.1364 -0.0594
  124OSM    O1213145   1.993   2.007   6.144  0.6825  0.5614 -0.7166
  124OSM    C1S13146   2.006   1.970   6.424  0.3125 -0.3649 -0.1239
  124OSM    H1S13147   1.994   2.081   6.423  0.3446 -0.3638 -0.7356
  124OSM    H1T13148   2.093   1.943   6.361 -0.9223 -2.8856 -0.8739
  124OSM     NF13149   2.115   1.991   6.639 -0.1785  0.2265  0.6145
  124OSM    HNF13150   2.215   1.990   6.631  0.1353  4.3410  1.4428
  124OSM    C2S13151   2.028   1.908   6.563  0.1918  0.2463 -0.5321
  124OSM    H2S13152   1.929   1.906   6.613  0.5163 -3.6954  0.2328
  124OSM    C3S13153   2.069   1.761   6.542 -0.5593  0.3812  0.3753
  124OSM    H3S13154   2.161   1.757   6.479 -0.0082 -0.0564  1.1949
  124OSM     O313155   1.976   1.679   6.475  0.4061 -0.3336 -0.0850
  124OSM    HO313156   1.943   1.748   6.417  1.1656 -0.8030 -1.1169
  124OSM    C4S13157   2.096   1.699   6.672 -0.4420  0.0886 -0.4721
  124OSM    H4S13158   2.014   1.655   6.731  0.1220  0.0048  0.2618
  124OSM    C5S13159   2.223   1.685   6.718  0.6621 -0.1171 -0.2878
  124OSM    H5S13160   2.300   1.727   6.652 -0.4130  0.2521 -1.3394
  124OSM    C6S13161   2.254   1.624   6.849 -0.5296  0.7666  0.2106
  124OSM    H6S13162   2.363   1.605   6.861 -0.3526  0.0693 -2.1410
  124OSM    H6T13163   2.195   1.531   6.866 -1.9051  1.4940 -0.4511
  124OSM    C7S13164   2.201   1.720   6.960 -0.0175  0.1692 -0.3145
  124OSM    H7S13165   2.096   1.755   6.950  0.1121  1.0957  1.2479
  124OSM    H7T13166   2.265   1.810   6.954  0.4533  0.1553  2.8581
  124OSM    C8S13167   2.225   1.655   7.096  0.3106 -0.3040  0.1321
  124OSM    H8S13168   2.331   1.624   7.094  1.0835  2.1206 -0.0560
  124OSM    H8T13169   2.181   1.554   7.112  1.3231 -0.8762 -0.6266
  124OSM    C9S13170   2.198   1.751   7.217 -0.0436 -0.3113 -0.2027
  124OSM    H9S13171   2.238   1.850   7.185 -0.3557 -0.1709 -0.1587
  124OSM    H9T13172   2.252   1.714   7.307  0.4696 -0.2640 -0.4903
  124OSM   C10S13173   2.050   1.760   7.264  0.0483  0.9770  0.2343
  124OSM   H10S13174   2.014   1.658   7.290 -2.5147  2.1890  1.8928
  124OSM   H10T13175   1.995   1.800   7.176 -1.9388 -0.2150  0.8672
  124OSM   C11S13176   2.024   1.840   7.397 -0.6408  0.0655 -0.1929
  124OSM   H11S13177   2.095   1.794   7.470 -0.5117  0.4746 -0.0543
  124OSM   H11T13178   1.923   1.826   7.441 -0.2449 -0.2568  0.6323
  124OSM   C12S13179   2.058   1.985   7.383 -0.1875 -0.3533  0.0092
  124OSM   H12S13180   2.014   2.022   7.288  1.8022 -2.1531 -1.6922
  124OSM   H12T13181   2.166   1.996   7.361  0.0682  3.1684  2.1265
  124OSM   C13S13182   2.024   2.063   7.509 -0.4231  0.2590 -0.6248
  124OSM   H13S13183   2.043   2.024   7.611  2.0498  0.0063 -1.1130
  124OSM   H13T13184   1.914   2.078   7.502 -0.3317  0.6605 -1.3811
  124OSM   C14S13185   2.088   2.201   7.495 -0.4393  0.3078 -0.3168
  124OSM   H14S13186   2.194   2.186   7.465 -0.5441 -0.1709 -0.4597
  124OSM   H14T13187   2.090   2.249   7.595  3.7442  1.0878 -0.6278
  124OSM   C15S13188   2.036   2.292   7.380  0.3107  0.2272  0.6220
  124OSM   H15S13189   1.927   2.283   7.403  0.1423 -0.6318 -0.3867
  124OSM   H15T13190   2.055   2.243   7.282 -2.7263  0.8383 -0.4034
  124OSM   C16S13191   2.078   2.440   7.386 -0.0477 -0.1901  0.3048
  124OSM   H16S13192   2.185   2.453   7.359 -0.2541 -1.3683 -1.1998
  124OSM   H16T13193   2.066   2.474   7.492  1.4665  2.0455 -0.1619
  124OSM   C17S13194   1.999   2.528   7.290  0.0802  0.3313  0.2901
  124OSM   H17S13195   1.896   2.533   7.330 -0.4749  1.2994 -1.1619
  124OSM   H17T13196   1.984   2.490   7.186 -0.9961  1.7648 -0.1251
  124OSM   C18S13197   2.062   2.666   7.276 -0.4310  0.9649  0.3160
  124OSM   H18S13198   2.061   2.723   7.372 -1.3175  3.4291 -1.0680
  124OSM   H18T13199   2.017   2.734   7.201 -1.2214  0.0606 -0.0632
  124OSM   H18U13200   2.167   2.646   7.245 -0.5636 -1.2912  1.1397
  124OSM    C1F13201   2.066   2.102   6.695  0.1061 -0.4353 -0.5270
  124OSM     OF13202   1.948   2.128   6.679  0.0731  0.0053  0.4282
  124OSM    C2F13203   2.162   2.196   6.769  0.6003 -0.3126 -0.2048
  124OSM    H2F13204   2.118   2.297   6.761 -2.6009 -1.7820 -4.0729
  124OSM    H2G13205   2.251   2.197   6.703 -0.2558 -2.2005 -1.4702
  124OSM    C3F13206   2.186   2.155   6.919 -0.0281 -0.1145 -0.2585
  124OSM    H3F13207   2.243   2.060   6.916  0.6901  0.3020 -0.1329
  124OSM    H3G13208   2.089   2.142   6.970 -0.9183  1.2887 -1.5184
  124OSM    C4F13209   2.266   2.266   6.991 -0.9339 -0.5387 -0.2371
  124OSM    H4F13210   2.200   2.353   7.013  0.5860  0.6406 -0.1786
  124OSM    H4G13211   2.342   2.300   6.918 -1.8607  2.3413  0.0012
  124OSM    C5F13212   2.323   2.234   7.129 -0.1067 -0.0619  0.7214
  124OSM    H5F13213   2.382   2.140   7.139 -0.4617 -0.4232 -0.5103
  124OSM    H5G13214   2.233   2.228   7.193  0.3276  2.6967  1.7319
  124OSM    C6F13215   2.412   2.343   7.179  0.9551  0.3894 -0.1727
  124OSM    H6F13216   2.348   2.434   7.189 -0.4072 -0.5506 -0.0167
  124OSM    H6G13217   2.479   2.379   7.098  2.1036 -1.2969 -0.0081
  124OSM    C7F13218   2.487   2.301   7.304 -0.8875  0.4639 -0.1719
  124OSM    H7F13219   2.557   2.219   7.276  0.3249  1.2809  0.3947
  124OSM    H7G13220   2.426   2.251   7.383  1.3710  0.0962  1.4409
  124OSM    C8F13221   2.568   2.415   7.379 -0.1806  0.5186  0.1897
  124OSM    H8F13222   2.495   2.495   7.403 -2.4139 -1.2520 -0.2981
  124OSM    H8G13223   2.631   2.470   7.306 -3.1279  0.8270 -2.3675
  124OSM    C9F13224   2.643   2.357   7.495 -0.9774 -0.0802 -0.0940
  124OSM    H9F13225   2.715   2.280   7.465 -2.5683 -1.0455 -1.6943
  124OSM   C10F13226   2.638   2.401   7.626  0.1557  0.6115 -0.3574
  124OSM   H10F13227   2.688   2.351   7.710 -2.5594  1.7860  2.1165
  124OSM   C11F13228   2.542   2.510   7.680 -0.5113  0.7731  0.3665
  124OSM   H11F13229   2.503   2.573   7.597  2.0826 -3.0297 -4.2043
  124OSM   H11G13230   2.614   2.577   7.732  0.0341  0.3534  0.1600
  124OSM   C12F13231   2.419   2.465   7.766 -0.7752  0.2935 -0.0596
  124OSM   H12F13232   2.463   2.423   7.858  1.0915  0.0180 -1.0406
  124OSM   H12G13233   2.374   2.374   7.719  1.3371 -0.8485 -0.0031
  124OSM   C13F13234   2.315   2.575   7.800 -0.2862 -0.1421  0.1466
  124OSM   H13F13235   2.291   2.618   7.700  2.3031 -0.8638 -0.8445
  124OSM   H13G13236   2.355   2.656   7.865 -1.9133  0.3912  0.5476
  124OSM   C14F13237   2.186   2.531   7.868  0.2846 -0.4272  0.9128
  124OSM   H14F13238   2.126   2.465   7.802 -0.8521  0.6064  0.8653
  124OSM   H14G13239   2.120   2.617   7.892 -2.6214 -2.3592  0.2968
  124OSM   C15F13240   2.203   2.457   8.004 -0.7624 -0.1727 -0.8703
  124OSM   H15F13241   2.233   2.535   8.077 -2.9238 -0.0339 -0.0358
  124OSM   H15G13242   2.276   2.377   7.979 -0.7123  0.3854 -2.5944
  124OSM   C16F13243   2.076   2.391   8.057 -0.6262  0.4884 -0.5198
  124OSM   H16F13244   2.010   2.341   7.983 -1.6481  1.1990 -0.1047
  124OSM   H16G13245   2.001   2.460   8.100 -0.6957 -0.0568  0.2431
  124OSM   C17F13246   2.102   2.274   8.153  0.3812  0.2756 -0.6098
  124OSM   H17F13247   2.180   2.204   8.116 -1.8492 -2.1131 -1.0511
  124OSM   H17G13248   2.013   2.207   8.153  0.6690 -0.1309 -1.6509
  124OSM   C18F13249   2.128   2.325   8.294  0.2339  0.1259 -0.9913
  124OSM   H18F13250   2.150   2.247   8.370 -0.8701 -1.5594 -2.3500
  124OSM   H18G13251   2.037   2.374   8.336 -0.2977 -4.0046  3.6144
  124OSM   H18H13252   2.214   2.395   8.289  1.6396 -1.5653 -1.2600
  125OSM      N13253   4.886   6.452   6.007 -0.1882  0.7718  0.3348
  125OSM    C1513254   4.960   6.383   5.894 -0.0060  0.1553 -0.5916
  125OSM   H15A13255   4.933   6.420   5.796  0.8698  1.1386 -0.4704
  125OSM   H15B13256   4.951   6.276   5.884  2.6130 -0.0233 -1.8442
  125OSM   H15C13257   5.063   6.413   5.891  0.0429  0.0452  0.0304
  125OSM    C1413258   4.748   6.398   6.010  0.2235 -0.9662 -0.0261
  125OSM   H14A13259   4.747   6.293   6.036 -2.4044 -1.2005 -0.7881
  125OSM   H14B13260   4.702   6.425   5.916 -1.1181  0.5863  1.0287
  125OSM   H14C13261   4.696   6.454   6.086  1.7226  1.1739 -0.4693
  125OSM    C1313262   4.958   6.401   6.133 -0.2222  0.5237 -0.0860
  125OSM   H13A13263   5.060   6.437   6.138 -0.4772  1.2907 -0.2831
  125OSM   H13B13264   4.954   6.293   6.137  1.3087  0.4249 -0.5702
  125OSM   H13C13265   4.920   6.442   6.226 -1.2331 -0.9379  0.1713
  125OSM    C1213266   4.891   6.606   6.002  0.2481 -0.1288  0.0769
  125OSM   H12A13267   4.898   6.640   6.104  1.2948  1.8554 -0.5952
  125OSM   H12B13268   4.804   6.641   5.948 -0.2121 -0.5524  0.5442
  125OSM    C1113269   5.014   6.657   5.928 -0.1432  0.4916 -0.4307
  125OSM   H11A13270   5.021   6.767   5.928 -1.2484  0.5757 -1.1938
  125OSM   H11B13271   4.993   6.633   5.821  1.4597  3.0858 -1.4296
  125OSM      P13272   5.197   6.660   6.119 -0.0234 -0.4866  0.8375
  125OSM    O1313273   5.258   6.543   6.187  0.2751  0.4237  0.9247
  125OSM    O1413274   5.286   6.775   6.083  0.4809  0.4764 -0.7301
  125OSM    O1113275   5.077   6.702   6.220 -0.5301 -0.5626  0.3510
  125OSM    O1213276   5.137   6.600   5.988  0.7392 -0.6336  0.6223
  125OSM    C1S13277   5.113   6.767   6.338 -0.6025 -0.4495 -0.6746
  125OSM    H1S13278   5.182   6.852   6.315 -1.0612 -0.0362 -0.5456
  125OSM    H1T13279   5.170   6.700   6.406  1.0884  0.2388 -1.3598
  125OSM     NF13280   5.059   6.880   6.549 -0.8225 -0.7029 -0.9027
  125OSM    HNF13281   5.105   6.825   6.619 -1.8950 -2.0847 -1.2458
  125OSM    C2S13282   5.001   6.797   6.444  0.0503  0.4208  0.0022
  125OSM    H2S13283   4.911   6.840   6.394 -1.4869 -1.3073  1.1464
  125OSM    C3S13284   4.937   6.662   6.485  0.7476 -0.2760 -0.4740
  125OSM    H3S13285   5.021   6.607   6.532  1.1588  0.4031 -0.3987
  125OSM     O313286   4.889   6.574   6.388  0.0681  0.3780  0.2484
  125OSM    HO313287   4.938   6.595   6.308 -0.1997  0.6573  0.1531
  125OSM    C4S13288   4.833   6.692   6.586 -0.4630 -0.3322  0.5949
  125OSM    H4S13289   4.870   6.680   6.689  1.3721 -0.8759 -0.1040
  125OSM    C5S13290   4.712   6.741   6.566 -0.9599  0.9463  0.0551
  125OSM    H5S13291   4.686   6.772   6.464 -1.4090 -0.6297 -0.3241
  125OSM    C6S13292   4.613   6.772   6.673 -0.2269 -0.0861 -0.4144
  125OSM    H6S13293   4.548   6.685   6.694  0.8849 -0.4254  1.9666
  125OSM    H6T13294   4.544   6.852   6.639  1.0692  1.6606  0.8859
  125OSM    C7S13295   4.657   6.821   6.821 -0.0173  0.8862  0.2051
  125OSM    H7S13296   4.678   6.931   6.821 -0.7173  1.0617 -1.4783
  125OSM    H7T13297   4.750   6.772   6.855  0.1203  0.1748 -1.1456
  125OSM    C8S13298   4.545   6.778   6.922 -0.4015  0.7348  0.1044
  125OSM    H8S13299   4.530   6.668   6.928 -0.6541  0.8373  2.2237
  125OSM    H8T13300   4.450   6.824   6.890  0.2673  1.2716 -1.1957
  125OSM    C9S13301   4.587   6.825   7.066 -0.2985 -0.7265  0.0521
  125OSM    H9S13302   4.626   6.928   7.050 -0.7109 -0.5605  0.0879
  125OSM    H9T13303   4.667   6.759   7.105 -1.6189 -2.3872  0.0800
  125OSM   C10S13304   4.480   6.810   7.176  0.5816  0.0083 -0.3780
  125OSM   H10S13305   4.463   6.702   7.192 -1.7657  0.3670 -0.0597
  125OSM   H10T13306   4.380   6.850   7.148  0.7013  0.8209  0.2901
  125OSM   C11S13307   4.527   6.859   7.308 -0.5665 -0.0411 -0.0834
  125OSM   H11S13308   4.522   6.970   7.302 -1.4511 -0.0946 -0.5217
  125OSM   H11T13309   4.624   6.816   7.340  0.1293  1.0880 -0.6093
  125OSM   C12S13310   4.416   6.814   7.414 -0.1556  0.7869  0.1037
  125OSM   H12S13311   4.400   6.706   7.394 -0.9943  0.5516  1.9291
  125OSM   H12T13312   4.324   6.869   7.385  0.7385  0.5984 -3.7682
  125OSM   C13S13313   4.453   6.839   7.570  0.4698  0.2977 -0.6512
  125OSM   H13S13314   4.433   6.946   7.592  2.0120  0.9252 -2.0398
  125OSM   H13T13315   4.559   6.819   7.597  0.3964  2.2490  1.4373
  125OSM   C14S13316   4.349   6.764   7.664 -0.1867 -0.1463 -0.2604
  125OSM   H14S13317   4.347   6.656   7.638  0.1689 -1.0236  2.9400
  125OSM   H14T13318   4.249   6.801   7.631 -1.4906 -0.5391  2.8790
  125OSM   C15S13319   4.370   6.777   7.814 -0.0696  0.0408  0.3448
  125OSM   H15S13320   4.287   6.723   7.862  0.1848 -0.3069  0.3938
  125OSM   H15T13321   4.365   6.884   7.844 -0.4761  0.6554 -1.7385
  125OSM   C16S13322   4.504   6.726   7.869 -0.1553  0.3966  0.0538
  125OSM   H16S13323   4.585   6.772   7.809 -1.0203  1.1740 -0.5439
  125OSM   H16T13324   4.508   6.618   7.844  1.5691  0.1271  1.3221
  125OSM   C17S13325   4.526   6.784   8.015  0.2239 -0.1361 -0.2394
  125OSM   H17S13326   4.579   6.698   8.063 -1.8934 -0.9316  0.7985
  125OSM   H17T13327   4.429   6.802   8.066  0.3911 -1.5188  0.6109
  125OSM   C18S13328   4.614   6.909   8.015  0.2089 -0.3144  0.5735
  125OSM   H18S13329   4.554   6.998   7.986  2.2269  0.7813 -0.4609
  125OSM   H18T13330   4.690   6.891   7.935 -0.3015 -0.0971  0.0332
  125OSM   H18U13331   4.661   6.929   8.113 -2.6842 -0.8943  2.1676
  125OSM    C1F13332   5.063   7.009   6.543 -0.4150 -0.2123  0.2851
  125OSM     OF13333   4.988   7.073   6.462 -0.1025  0.5458 -0.3804
  125OSM    C2F13334   5.164   7.077   6.632 -0.2325 -0.2509  0.5922
  125OSM    H2F13335   5.230   7.128   6.559 -3.3878 -0.2322 -2.4791
  125OSM    H2G13336   5.219   7.005   6.697 -0.6958 -0.2091  1.0332
  125OSM    C3F13337   5.089   7.194   6.704  0.2610 -0.0400 -0.1320
  125OSM    H3F13338   5.044   7.267   6.634 -0.6342  0.2249  0.7072
  125OSM    H3G13339   5.171   7.243   6.761  0.7844 -1.0283 -0.0079
  125OSM    C4F13340   4.987   7.146   6.807 -0.4513 -0.5736 -0.5694
  125OSM    H4F13341   5.018   7.053   6.861 -2.2551 -0.8702  0.0222
  125OSM    H4G13342   4.892   7.125   6.754 -0.7136  0.9380 -0.7452
  125OSM    C5F13343   4.950   7.240   6.923  0.2272  0.4669  0.8786
  125OSM    H5F13344   4.897   7.322   6.871  3.2735  0.5505 -2.4571
  125OSM    H5G13345   5.035   7.282   6.981  1.6621  0.5528 -1.1535
  125OSM    C6F13346   4.867   7.183   7.038 -0.9516  0.5151  0.5092
  125OSM    H6F13347   4.933   7.138   7.115 -1.5948 -0.8798  0.2784
  125OSM    H6G13348   4.796   7.109   6.996  0.7087 -0.4513 -0.7071
  125OSM    C7F13349   4.786   7.297   7.110  0.4910 -0.2400  0.4364
  125OSM    H7F13350   4.728   7.252   7.194 -0.0720 -1.4467 -0.5659
  125OSM    H7G13351   4.711   7.336   7.037  0.0725 -0.4759  0.7337
  125OSM    C8F13352   4.862   7.423   7.158  0.9845 -0.6964  0.5385
  125OSM    H8F13353   4.779   7.481   7.204  0.0235 -0.6317 -1.1626
  125OSM    H8G13354   4.897   7.493   7.078  1.1278  0.8801  1.9132
  125OSM    C9F13355   4.978   7.400   7.243  0.6231  0.0628 -0.3091
  125OSM    H9F13356   5.075   7.402   7.190  1.9148  1.2650  1.9324
  125OSM   C10F13357   4.981   7.373   7.370  0.2593  0.4570  0.4225
  125OSM   H10F13358   5.080   7.346   7.410  0.4655 -1.6006 -1.2922
  125OSM   C11F13359   4.862   7.344   7.454  0.0518 -0.0327 -0.3217
  125OSM   H11F13360   4.851   7.235   7.474 -2.8324  0.3267  0.5173
  125OSM   H11G13361   4.763   7.376   7.415  0.3900  1.6839  0.1603
  125OSM   C12F13362   4.884   7.402   7.594  0.1698 -0.1789 -0.0971
  125OSM   H12F13363   4.880   7.513   7.594  0.7445 -0.1511  0.6370
  125OSM   H12G13364   4.980   7.378   7.644 -0.2702 -1.9293 -0.0369
  125OSM   C13F13365   4.783   7.343   7.701 -0.8068  0.1287  1.0036
  125OSM   H13F13366   4.794   7.233   7.708 -0.3921  0.1393  0.5327
  125OSM   H13G13367   4.680   7.360   7.662 -0.2735 -1.3957 -1.2419
  125OSM   C14F13368   4.795   7.405   7.844  0.2832  0.7609  0.2130
  125OSM   H14F13369   4.765   7.511   7.835  0.4947  0.6745 -2.0831
  125OSM   H14G13370   4.896   7.390   7.887  0.3798  0.5044 -0.1005
  125OSM   C15F13371   4.702   7.332   7.945 -0.1830  0.0503 -0.2674
  125OSM   H15F13372   4.746   7.326   8.047  0.7844 -0.4521 -0.7013
  125OSM   H15G13373   4.674   7.236   7.898  1.2333 -1.2930  1.4596
  125OSM   C16F13374   4.567   7.407   7.971  0.3467 -0.2389  0.3853
  125OSM   H16F13375   4.511   7.433   7.878  0.4941 -0.4671  0.2290
  125OSM   H16G13376   4.593   7.498   8.028 -0.1562 -1.1256  2.0852
  125OSM   C17F13377   4.464   7.330   8.058 -0.5730 -0.0390 -0.5519
  125OSM   H17F13378   4.455   7.221   8.041 -1.3467 -0.5547  2.6603
  125OSM   H17G13379   4.362   7.374   8.057 -0.7058 -0.3346 -1.3983
  125OSM   C18F13380   4.507   7.331   8.207 -0.5871 -0.4221 -0.2849
  125OSM   H18F13381   4.549   7.429   8.236 -0.1351 -0.7596  0.2207
  125OSM   H18G13382   4.587   7.256   8.226 -2.5413 -2.6683 -0.3208
  125OSM   H18H13383   4.422   7.305   8.274 -1.4705  1.7667 -0.4846
  126OSM      N13384   4.361   4.086   6.318  0.5944 -0.0615 -0.8117
  126OSM    C1513385   4.210   4.048   6.312 -0.2130  0.4138 -0.3883
  126OSM   H15A13386   4.172   4.042   6.212 -0.9090 -0.0404 -0.1053
  126OSM   H15B13387   4.151   4.116   6.372 -1.0621  0.6903 -1.5202
  126OSM   H15C13388   4.202   3.946   6.347  0.6113  0.0595 -1.1817
  126OSM    C1413389   4.440   3.982   6.235  0.0138  0.5533 -0.6207
  126OSM   H14A13390   4.413   3.986   6.130  0.6089  2.8750 -0.7371
  126OSM   H14B13391   4.427   3.886   6.284  1.1068  0.0050 -1.3439
  126OSM   H14C13392   4.547   3.993   6.243  0.1750 -0.5510 -1.0126
  126OSM    C1313393   4.381   4.222   6.253  0.0078  0.5797 -0.3424
  126OSM   H13A13394   4.334   4.224   6.156  0.0652  3.8626 -0.4191
  126OSM   H13B13395   4.485   4.250   6.238  0.1665 -0.2981 -0.9317
  126OSM   H13C13396   4.324   4.293   6.311 -1.2723 -2.4410  2.4157
  126OSM    C1213397   4.413   4.090   6.458  0.0819  0.2915 -0.8248
  126OSM   H12A13398   4.521   4.083   6.454  0.1200 -0.0302  0.3855
  126OSM   H12B13399   4.371   4.005   6.508 -0.8287  0.7658 -0.7602
  126OSM    C1113400   4.379   4.221   6.533  0.4584  0.6219 -0.0359
  126OSM   H11A13401   4.420   4.308   6.479 -1.1600  0.9399 -0.8323
  126OSM   H11B13402   4.436   4.198   6.626  1.3430 -0.2810 -0.7709
  126OSM      P13403   4.132   4.344   6.524 -0.2430 -0.1952  0.0325
  126OSM    O1313404   4.168   4.403   6.391  0.3779 -0.9662 -0.1278
  126OSM    O1413405   3.995   4.286   6.537 -0.8643  0.0375 -0.0954
  126OSM    O1113406   4.142   4.450   6.641 -0.0518  0.2188 -0.4623
  126OSM    O1213407   4.236   4.231   6.557  0.4747  0.2693  0.3006
  126OSM    C1S13408   4.156   4.402   6.778 -1.0683  0.3699 -0.2140
  126OSM    H1S13409   4.120   4.298   6.792 -0.5316  0.1360 -0.5462
  126OSM    H1T13410   4.089   4.460   6.846 -1.5104 -1.6576  1.1668
  126OSM     NF13411   4.297   4.366   6.976  0.3585 -0.7576 -0.9157
  126OSM    HNF13412   4.280   4.426   7.053  0.9195 -1.2029 -0.4293
  126OSM    C2S13413   4.302   4.420   6.840  0.4565  0.3597 -0.4159
  126OSM    H2S13414   4.366   4.351   6.780 -0.8229  0.0139 -1.4280
  126OSM    C3S13415   4.351   4.566   6.824 -0.2572  0.5986 -0.2502
  126OSM    H3S13416   4.283   4.627   6.887 -1.4355 -1.8296  0.9744
  126OSM     O313417   4.350   4.612   6.691 -0.2188  0.4608 -0.2031
  126OSM    HO313418   4.291   4.552   6.645 -0.7385  0.6463  0.2208
  126OSM    C4S13419   4.488   4.577   6.887  0.5404  0.8511  0.0094
  126OSM    H4S13420   4.469   4.625   6.984 -0.0333  0.8738 -0.1107
  126OSM    C5S13421   4.604   4.534   6.839 -0.1288  0.1115 -0.2255
  126OSM    H5S13422   4.605   4.502   6.733  0.4992 -1.3067  0.1795
  126OSM    C6S13423   4.737   4.544   6.894 -0.1578 -0.0589 -0.0135
  126OSM    H6S13424   4.808   4.594   6.825  1.4015 -2.5233 -0.3388
  126OSM    H6T13425   4.782   4.445   6.915 -2.5076 -0.7870  2.0492
  126OSM    C7S13426   4.740   4.622   7.028  0.2170 -0.7962 -0.3217
  126OSM    H7S13427   4.672   4.710   7.023 -0.1572 -1.1463 -1.5970
  126OSM    H7T13428   4.842   4.662   7.045 -0.0106 -0.8208  1.3124
  126OSM    C8S13429   4.702   4.530   7.143  0.8937 -0.3027  0.3896
  126OSM    H8S13430   4.787   4.465   7.171 -0.2351 -1.5605  1.0097
  126OSM    H8T13431   4.621   4.460   7.113 -0.7370  0.9965  1.5160
  126OSM    C9S13432   4.659   4.611   7.261  0.4021  0.0565  0.0356
  126OSM    H9S13433   4.575   4.680   7.241 -0.9455 -1.8093 -1.1306
  126OSM    H9T13434   4.745   4.674   7.292 -1.7355  2.0635  2.3174
  126OSM   C10S13435   4.616   4.525   7.386 -0.4153  0.1056 -0.2741
  126OSM   H10S13436   4.700   4.453   7.402  0.2286  1.0729  0.8711
  126OSM   H10T13437   4.523   4.464   7.383  0.6790 -1.7152  0.8441
  126OSM   C11S13438   4.610   4.617   7.506 -0.2172 -0.0449  0.4841
  126OSM   H11S13439   4.544   4.703   7.483  0.7766  0.6607  0.2368
  126OSM   H11T13440   4.706   4.664   7.534 -0.6620  1.1779  0.0178
  126OSM   C12S13441   4.551   4.547   7.634 -0.4025  0.4362 -0.0345
  126OSM   H12S13442   4.445   4.531   7.607 -0.1819  0.8931 -1.2426
  126OSM   H12T13443   4.546   4.622   7.716  0.4283  2.9201 -2.1231
  126OSM   C13S13444   4.617   4.415   7.673 -0.5274 -0.5944 -0.0954
  126OSM   H13S13445   4.723   4.417   7.706 -0.2652  0.9616 -0.9356
  126OSM   H13T13446   4.620   4.357   7.579 -2.0002 -0.3440 -0.3300
  126OSM   C14S13447   4.529   4.340   7.771  0.9220  0.1506  0.4531
  126OSM   H14S13448   4.574   4.240   7.791 -0.0068 -0.5751 -0.9456
  126OSM   H14T13449   4.429   4.337   7.723  0.6593 -2.4169  0.9921
  126OSM   C15S13450   4.521   4.415   7.899 -0.3216 -0.0821 -0.3560
  126OSM   H15S13451   4.440   4.490   7.884 -1.0106 -0.2165  2.2368
  126OSM   H15T13452   4.620   4.465   7.912  0.7089 -2.2593  0.7489
  126OSM   C16S13453   4.495   4.337   8.029 -0.0706 -0.2164  0.3264
  126OSM   H16S13454   4.587   4.329   8.092 -1.5728 -1.4768  2.4955
  126OSM   H16T13455   4.468   4.233   8.004 -0.0666  0.0998 -1.0487
  126OSM   C17S13456   4.376   4.397   8.101  0.1548 -0.0280 -0.0224
  126OSM   H17S13457   4.330   4.325   8.172  1.9822  1.1358  2.4949
  126OSM   H17T13458   4.290   4.412   8.032  0.4420  1.2822 -0.1312
  126OSM   C18S13459   4.398   4.523   8.175 -1.1785 -0.1281  0.5571
  126OSM   H18S13460   4.489   4.578   8.140 -0.5549 -1.5325 -0.1096
  126OSM   H18T13461   4.436   4.505   8.277  2.0324 -3.6608 -1.0296
  126OSM   H18U13462   4.309   4.588   8.189 -1.1074  0.4576 -1.3210
  126OSM    C1F13463   4.313   4.237   7.007  0.8495 -0.7136 -0.5373
  126OSM     OF13464   4.324   4.148   6.925  0.1319  0.1607  0.1677
  126OSM    C2F13465   4.326   4.219   7.155  0.0100 -0.2655 -0.4493
  126OSM    H2F13466   4.243   4.271   7.207  0.2848  0.2953 -0.5659
  126OSM    H2G13467   4.427   4.258   7.181  0.0975 -0.7241 -0.0974
  126OSM    C3F13468   4.311   4.070   7.203 -0.1233 -0.1346 -0.2912
  126OSM    H3F13469   4.388   4.013   7.148  1.1654 -0.7193  2.0126
  126OSM    H3G13470   4.213   4.039   7.160 -0.9508 -0.0071  1.4132
  126OSM    C4F13471   4.312   4.040   7.354 -0.4965 -0.9482  0.3136
  126OSM    H4F13472   4.395   4.097   7.399 -1.0281  0.2183 -0.1398
  126OSM    H4G13473   4.332   3.931   7.369 -0.1972 -1.6672 -4.0362
  126OSM    C5F13474   4.179   4.080   7.420 -0.2444  0.0541  0.3811
  126OSM    H5F13475   4.095   4.044   7.357  1.1090  0.3290 -1.7034
  126OSM    H5G13476   4.187   4.191   7.422  2.0568 -0.0530  0.1981
  126OSM    C6F13477   4.160   4.026   7.559  0.4459 -0.9753  0.3710
  126OSM    H6F13478   4.184   3.918   7.548  0.8561 -0.6873 -2.2283
  126OSM    H6G13479   4.060   4.051   7.600  0.3226  1.1944 -1.0525
  126OSM    C7F13480   4.267   4.087   7.654  0.4496  0.2155  0.6340
  126OSM    H7F13481   4.321   4.171   7.605 -0.3524  0.3878  0.0080
  126OSM    H7G13482   4.349   4.012   7.654 -0.2364 -0.5519  1.5580
  126OSM    C8F13483   4.226   4.122   7.800  0.5907  0.0849 -0.5495
  126OSM    H8F13484   4.134   4.182   7.787  0.1089  0.5093  3.4041
  126OSM    H8G13485   4.305   4.188   7.842  1.5262 -0.3708 -1.5594
  126OSM    C9F13486   4.178   4.001   7.879  0.0192  0.2991 -0.4440
  126OSM    H9F13487   4.253   3.922   7.891 -1.2828 -1.0721 -0.9399
  126OSM   C10F13488   4.061   3.981   7.941 -0.2307 -0.6029 -0.3861
  126OSM   H10F13489   4.056   3.899   8.014  1.8419 -0.0577  0.4148
  126OSM   C11F13490   3.940   4.075   7.946 -0.1051 -0.4067  0.6932
  126OSM   H11F13491   3.844   4.025   7.972 -0.4971  0.2735  0.5668
  126OSM   H11G13492   3.933   4.119   7.844 -1.0366 -0.0485  0.9014
  126OSM   C12F13493   3.957   4.201   8.039  0.9424  0.1859  0.7686
  126OSM   H12F13494   3.872   4.271   8.026 -0.3084 -1.5947 -1.2433
  126OSM   H12G13495   4.054   4.242   8.004  0.9541 -0.5547 -0.0936
  126OSM   C13F13496   3.971   4.161   8.189 -0.1025  0.2958 -0.2734
  126OSM   H13F13497   4.031   4.070   8.207  1.3141  1.2260 -0.1918
  126OSM   H13G13498   3.869   4.126   8.217  0.3827 -0.3666  0.6874
  126OSM   C14F13499   4.008   4.277   8.283 -0.6727  0.6462 -0.2097
  126OSM   H14F13500   3.926   4.348   8.258 -1.2747 -1.0132 -3.3880
  126OSM   H14G13501   4.104   4.314   8.242 -1.4582  3.6981  0.4415
  126OSM   C15F13502   4.030   4.246   8.432  0.3164  0.6745  0.4711
  126OSM   H15F13503   4.045   4.137   8.452  1.5505  0.6973 -0.2619
  126OSM   H15G13504   3.933   4.271   8.481 -0.5080 -1.4432  0.0357
  126OSM   C16F13505   4.131   4.334   8.488 -0.2098 -0.4427 -0.0367
  126OSM   H16F13506   4.103   4.442   8.490  1.3046 -0.0229  0.6990
  126OSM   H16G13507   4.217   4.329   8.417 -0.7983 -0.9024 -0.7293
  126OSM   C17F13508   4.171   4.281   8.627 -0.3344  0.2631 -0.3231
  126OSM   H17F13509   4.263   4.337   8.654  0.7523 -0.8759 -1.5428
  126OSM   H17G13510   4.200   4.174   8.622  0.0345  0.4221 -1.8368
  126OSM   C18F13511   4.079   4.321   8.735 -0.4062 -0.1723  0.5603
  126OSM   H18F13512   4.044   4.427   8.728  0.8916  0.2329 -0.0944
  126OSM   H18G13513   4.115   4.296   8.837 -1.6748 -2.2057  0.5718
  126OSM   H18H13514   3.986   4.262   8.725  1.7883 -4.1576  1.6585
  127OSM      N13515   1.903   4.821   6.126 -0.3274  0.0523  0.0995
  127OSM    C1513516   1.953   4.680   6.130 -0.1147  0.4116 -0.6701
  127OSM   H15A13517   1.912   4.635   6.219  1.7474  0.8191  0.4482
  127OSM   H15B13518   2.056   4.670   6.159 -0.6737 -1.6542  0.7920
  127OSM   H15C13519   1.929   4.611   6.050  1.2360 -0.4461 -0.3702
  127OSM    C1413520   1.983   4.891   6.021  0.3723 -0.0620 -0.2250
  127OSM   H14A13521   2.088   4.877   6.038  0.7800  2.0865 -0.6661
  127OSM   H14B13522   1.972   4.997   6.035  2.9296  0.4894 -1.7656
  127OSM   H14C13523   1.955   4.861   5.921 -0.3201 -1.1805  0.2874
  127OSM    C1313524   1.765   4.818   6.091 -0.1126 -1.0807 -0.4799
  127OSM   H13A13525   1.704   4.788   6.175 -0.1797 -1.6332 -0.7212
  127OSM   H13B13526   1.753   4.751   6.007 -1.1269 -0.8678 -0.5141
  127OSM   H13C13527   1.723   4.915   6.071 -2.9477 -2.2910 -0.9669
  127OSM    C1213528   1.928   4.874   6.264 -0.5145  0.4367  0.5111
  127OSM   H12A13529   1.911   4.981   6.261  0.5699  0.6192  0.5901
  127OSM   H12B13530   2.030   4.853   6.291 -0.2058  0.3182 -0.6702
  127OSM    C1113531   1.834   4.831   6.370 -0.2485 -0.8887  0.1143
  127OSM   H11A13532   1.875   4.854   6.471 -0.9403  2.2842 -0.2224
  127OSM   H11B13533   1.824   4.720   6.371 -1.6477 -0.8501  3.4567
  127OSM      P13534   1.679   5.031   6.432 -0.3137 -0.0019  0.2854
  127OSM    O1313535   1.771   5.132   6.383 -0.4970  0.0996 -0.2162
  127OSM    O1413536   1.532   5.067   6.423  0.0445 -0.4481  0.2319
  127OSM    O1113537   1.706   5.003   6.583  0.5052  0.4453 -0.1459
  127OSM    O1213538   1.711   4.898   6.355 -0.3827  0.4164  0.0429
  127OSM    C1S13539   1.621   4.905   6.642 -0.3934  0.6624 -0.0755
  127OSM    H1S13540   1.634   4.804   6.597 -0.0209  0.7879 -0.2519
  127OSM    H1T13541   1.514   4.928   6.625  0.1877  1.7161 -2.8812
  127OSM     NF13542   1.543   4.800   6.855  0.2270 -0.3526  0.3254
  127OSM    HNF13543   1.476   4.853   6.906 -2.3462 -2.5759 -0.5049
  127OSM    C2S13544   1.644   4.884   6.798 -0.2670  0.1984 -0.8175
  127OSM    H2S13545   1.744   4.836   6.801 -0.7343 -0.8552 -1.6279
  127OSM    C3S13546   1.660   5.022   6.871 -0.3086  0.2597  0.4129
  127OSM    H3S13547   1.557   5.064   6.873  0.8808  3.3687  2.5703
  127OSM     O313548   1.745   5.119   6.803  0.4692  0.0677 -1.2861
  127OSM    HO313549   1.769   5.073   6.722 -0.2430  0.0091 -1.4750
  127OSM    C4S13550   1.712   5.000   7.011 -0.2529  0.4406  0.4420
  127OSM    H4S13551   1.806   4.943   7.015 -1.0160 -0.9439 -0.4873
  127OSM    C5S13552   1.650   5.048   7.122 -0.0276  0.4389  0.4082
  127OSM    H5S13553   1.555   5.104   7.114  1.0855  2.2110 -0.8733
  127OSM    C6S13554   1.701   5.028   7.263 -1.2052  0.2244  0.3613
  127OSM    H6S13555   1.808   5.057   7.266 -1.0764 -0.3291  1.9104
  127OSM    H6T13556   1.683   4.921   7.290 -2.0091  0.8522  2.5038
  127OSM    C7S13557   1.627   5.107   7.376 -0.0977  0.3767 -0.7327
  127OSM    H7S13558   1.519   5.084   7.361 -0.7429  1.4633  1.7496
  127OSM    H7T13559   1.643   5.217   7.370  2.3774  0.1607  0.8465
  127OSM    C8S13560   1.675   5.051   7.508 -0.6229  0.0102 -0.1971
  127OSM    H8S13561   1.786   5.044   7.516 -0.8378 -1.7732  4.5868
  127OSM    H8T13562   1.645   4.945   7.519  1.9368 -0.6433  1.6601
  127OSM    C9S13563   1.634   5.125   7.637 -0.4805  0.0050  0.3766
  127OSM    H9S13564   1.526   5.104   7.652 -1.3509  1.8684 -2.6215
  127OSM    H9T13565   1.657   5.232   7.621 -0.8776 -0.1259 -1.1882
  127OSM   C10S13566   1.718   5.072   7.757 -1.2244 -0.1332 -0.1597
  127OSM   H10S13567   1.827   5.089   7.740 -1.0746  0.8842  1.5943
  127OSM   H10T13568   1.719   4.962   7.772 -1.2327 -0.0430  0.5103
  127OSM   C11S13569   1.663   5.134   7.885 -0.3850 -0.5884  0.2736
  127OSM   H11S13570   1.553   5.129   7.868 -0.4158 -1.5632  0.7012
  127OSM   H11T13571   1.684   5.243   7.885 -0.3865 -0.5743 -1.1935
  127OSM   C12S13572   1.714   5.070   8.011 -0.0017  0.0619 -0.2428
  127OSM   H12S13573   1.825   5.077   8.014 -0.0529  0.5644  0.7978
  127OSM   H12T13574   1.690   4.961   8.015 -0.4129  0.1634  3.4018
  127OSM   C13S13575   1.658   5.128   8.144  0.0551  0.0443 -0.3012
  127OSM   H13S13576   1.551   5.102   8.135 -0.0172  0.4937 -0.8459
  127OSM   H13T13577   1.670   5.239   8.143 -1.0162  0.1686  0.1865
  127OSM   C14S13578   1.695   5.060   8.278 -0.3016 -0.5479 -0.0470
  127OSM   H14S13579   1.803   5.070   8.303 -0.4665 -1.2626  1.0429
  127OSM   H14T13580   1.668   4.952   8.278  2.4182 -1.3381  1.2377
  127OSM   C15S13581   1.619   5.124   8.395  0.1343  0.7490  0.1065
  127OSM   H15S13582   1.513   5.140   8.368  0.7758  1.2182 -2.4291
  127OSM   H15T13583   1.668   5.219   8.422  1.5366 -0.2761  1.3119
  127OSM   C16S13584   1.629   5.023   8.514  0.0300  0.4245  0.3033
  127OSM   H16S13585   1.603   5.062   8.615 -0.4389 -1.2223  0.8509
  127OSM   H16T13586   1.724   4.969   8.528 -0.5687 -1.0807 -1.0502
  127OSM   C17S13587   1.520   4.916   8.494 -0.2249 -0.3147 -0.3708
  127OSM   H17S13588   1.546   4.846   8.412 -0.9228 -2.0244  0.8039
  127OSM   H17T13589   1.425   4.968   8.471 -1.1860 -1.9789 -0.3265
  127OSM   C18S13590   1.509   4.834   8.622 -1.0569  0.4111 -0.0682
  127OSM   H18S13591   1.611   4.801   8.650 -0.6088  0.3548 -1.6864
  127OSM   H18T13592   1.443   4.745   8.621 -0.8751  0.2782 -0.4584
  127OSM   H18U13593   1.476   4.902   8.704 -2.5413 -0.3323 -0.0178
  127OSM    C1F13594   1.542   4.669   6.841  0.4193  0.4759  0.5506
  127OSM     OF13595   1.634   4.612   6.777  0.3079  0.5477  0.1030
  127OSM    C2F13596   1.438   4.590   6.908 -0.4841 -0.1936 -0.0137
  127OSM    H2F13597   1.335   4.586   6.866 -0.3710  0.3981 -0.3648
  127OSM    H2G13598   1.428   4.628   7.012 -0.5665 -2.2204  0.7518
  127OSM    C3F13599   1.498   4.445   6.936  0.2276  0.1177  0.1810
  127OSM    H3F13600   1.598   4.465   6.979  0.7964 -2.1301  0.0447
  127OSM    H3G13601   1.523   4.390   6.842  1.4605 -1.7159  1.4968
  127OSM    C4F13602   1.412   4.358   7.029  0.0254  0.6200 -0.1350
  127OSM    H4F13603   1.307   4.358   6.994 -0.1385 -0.5017  0.3255
  127OSM    H4G13604   1.420   4.396   7.133 -1.9146 -0.9646  0.6507
  127OSM    C5F13605   1.439   4.204   7.030  0.6137  0.0903  1.2116
  127OSM    H5F13606   1.415   4.165   6.929  0.0137  1.2004  0.9042
  127OSM    H5G13607   1.358   4.163   7.093 -1.0944  0.2078 -0.8174
  127OSM    C6F13608   1.573   4.147   7.075  0.5511  0.4479  0.4128
  127OSM    H6F13609   1.646   4.172   6.996 -1.5588 -0.8052 -2.0702
  127OSM    H6G13610   1.564   4.036   7.075 -0.9551  0.5436  0.4185
  127OSM    C7F13611   1.628   4.201   7.211 -0.0892 -0.0263  0.2817
  127OSM    H7F13612   1.654   4.306   7.189  1.2113 -0.7045 -1.7905
  127OSM    H7G13613   1.726   4.149   7.223  0.2235  0.3353 -0.6718
  127OSM    C8F13614   1.534   4.183   7.334 -0.6778  0.8743 -0.8772
  127OSM    H8F13615   1.438   4.228   7.303 -0.8004 -0.2473 -2.2388
  127OSM    H8G13616   1.582   4.251   7.407  1.0996  0.4494 -1.6065
  127OSM    C9F13617   1.531   4.035   7.368  0.5497 -0.4710  1.0103
  127OSM    H9F13618   1.504   3.959   7.293  0.6662  0.3525  0.1303
  127OSM   C10F13619   1.568   3.981   7.485  0.6878 -0.6132 -1.0957
  127OSM   H10F13620   1.556   3.874   7.511  1.1735  0.2059  3.2338
  127OSM   C11F13621   1.615   4.053   7.606 -0.1256 -0.4426  0.6625
  127OSM   H11F13622   1.620   4.164   7.597 -0.9400 -0.3720  1.0119
  127OSM   H11G13623   1.721   4.025   7.623  1.1406  0.8239 -3.6917
  127OSM   C12F13624   1.544   4.002   7.730 -0.3350  0.6569 -0.5926
  127OSM   H12F13625   1.592   3.906   7.759 -3.2180 -0.8932 -0.5334
  127OSM   H12G13626   1.435   3.979   7.725 -0.8257  2.4396  0.9411
  127OSM   C13F13627   1.573   4.091   7.855  0.1860  0.1763  0.0102
  127OSM   H13F13628   1.510   4.182   7.862  0.4030  0.2263  1.7000
  127OSM   H13G13629   1.679   4.125   7.847  1.3477 -1.5924  4.7124
  127OSM   C14F13630   1.571   4.013   7.986  0.3500 -0.0036  0.6075
  127OSM   H14F13631   1.633   3.922   7.973  0.8626  0.3255  0.7035
  127OSM   H14G13632   1.467   3.984   8.013  0.5656 -0.3112  1.1237
  127OSM   C15F13633   1.632   4.093   8.099 -0.0754  0.5367  0.5343
  127OSM   H15F13634   1.571   4.182   8.125 -2.3608 -0.9101  0.4724
  127OSM   H15G13635   1.732   4.129   8.067  0.4450  1.2541  2.8359
  127OSM   C16F13636   1.661   4.003   8.222  0.3236  0.2489 -0.0571
  127OSM   H16F13637   1.732   3.923   8.193 -0.2244 -0.7160  1.1842
  127OSM   H16G13638   1.561   3.959   8.243  0.8435  0.6930  4.0854
  127OSM   C17F13639   1.708   4.088   8.348  0.8816 -0.2497 -0.0710
  127OSM   H17F13640   1.707   4.019   8.435  1.1009  0.0555  0.1741
  127OSM   H17G13641   1.637   4.172   8.362  0.8170  0.1928 -2.5892
  127OSM   C18F13642   1.849   4.142   8.328 -0.1446  0.0114 -0.2665
  127OSM   H18F13643   1.923   4.060   8.337  0.1054  0.1810 -0.7575
  127OSM   H18G13644   1.874   4.226   8.398  0.5402 -1.0229  0.7700
  127OSM   H18H13645   1.878   4.175   8.226  0.4442 -1.2531 -0.5265
  128OSM      N13646   0.657   2.310   6.574  0.0841  0.7644 -0.2794
  128OSM    C1513647   0.565   2.325   6.680  0.6860  0.1397 -0.4318
  128OSM   H15A13648   0.480   2.385   6.650 -0.9079 -2.6418 -1.8315
  128OSM   H15B13649   0.606   2.379   6.765 -1.6354  0.7810  0.3741
  128OSM   H15C13650   0.536   2.228   6.719  2.3293 -1.1511 -2.2897
  128OSM    C1413651   0.693   2.452   6.532 -0.5272 -0.1726  0.0166
  128OSM   H14A13652   0.609   2.514   6.506 -1.7927 -0.1832  3.6129
  128OSM   H14B13653   0.753   2.451   6.442 -1.2758  0.4082 -0.4912
  128OSM   H14C13654   0.747   2.506   6.609 -1.9719  1.3433  0.0125
  128OSM    C1313655   0.779   2.238   6.628 -0.0749 -0.3652  0.1580
  128OSM   H13A13656   0.807   2.284   6.721  0.5907  0.0520 -0.2444
  128OSM   H13B13657   0.867   2.236   6.565  0.0524 -2.8579  0.3063
  128OSM   H13C13658   0.757   2.136   6.657 -0.5026  0.2857  2.2395
  128OSM    C1213659   0.611   2.227   6.462  0.5416 -0.4908  0.0815
  128OSM   H12A13660   0.610   2.124   6.493 -0.4934 -0.7695 -0.8527
  128OSM   H12B13661   0.688   2.248   6.388 -0.7921  2.7764 -0.5658
  128OSM    C1113662   0.478   2.261   6.391 -0.7053 -0.7018  0.5578
  128OSM   H11A13663   0.465   2.196   6.302 -0.9675 -0.4725  0.4253
  128OSM   H11B13664   0.484   2.364   6.350  0.6364 -0.9690  0.0440
  128OSM      P13665   0.303   2.113   6.515  0.2162  0.5184 -0.1043
  128OSM    O1313666   0.245   2.050   6.395  0.2569 -0.2942 -0.0573
  128OSM    O1413667   0.394   2.028   6.591  0.4373  0.0372  0.3069
  128OSM    O1113668   0.185   2.160   6.618 -0.0590  0.3000  0.5583
  128OSM    O1213669   0.370   2.253   6.484 -0.8445  0.6848  0.1867
  128OSM    C1S13670   0.210   2.205   6.747  0.0760  0.0915  0.2529
  128OSM    H1S13671   0.249   2.309   6.741 -1.7841  0.8069 -0.3697
  128OSM    H1T13672   0.270   2.136   6.809  0.7513 -1.1250 -1.6676
  128OSM     NF13673   0.089   2.269   6.950  0.4681 -0.0850 -0.0144
  128OSM    HNF13674   0.087   2.189   7.010  1.2230 -1.1406 -1.3230
  128OSM    C2S13675   0.069   2.226   6.813  0.4338 -0.9615  0.0328
  128OSM    H2S13676   0.008   2.309   6.769  1.5653 -0.9482 -1.5712
  128OSM    C3S13677  -0.025   2.102   6.797 -0.1648 -0.0853  0.4926
  128OSM    H3S13678   0.022   2.013   6.844  0.1994 -0.7174 -0.9786
  128OSM     O313679  -0.038   2.064   6.659  0.2171 -0.9293 -0.0744
  128OSM    HO313680   0.041   2.109   6.629 -0.2671 -0.7010 -1.0827
  128OSM    C4S13681  -0.156   2.123   6.870  0.2332 -0.3489  0.0743
  128OSM    H4S13682  -0.152   2.096   6.976 -0.6104  1.8310  0.7128
  128OSM    C5S13683  -0.262   2.183   6.810  0.2782  0.2899  0.0526
  128OSM    H5S13684  -0.261   2.220   6.706  0.9617  0.7715  0.2256
  128OSM    C6S13685  -0.392   2.225   6.874  0.1970  0.8378  0.4208
  128OSM    H6S13686  -0.467   2.157   6.828  1.2436  1.5329 -2.5345
  128OSM    H6T13687  -0.424   2.327   6.842 -1.1195  0.2737 -0.1587
  128OSM    C7S13688  -0.397   2.216   7.025 -0.7438 -0.6485 -0.8674
  128OSM    H7S13689  -0.310   2.276   7.060 -0.8715 -0.8999 -0.1133
  128OSM    H7T13690  -0.397   2.112   7.063  0.2561  0.1254  1.4176
  128OSM    C8S13691  -0.522   2.287   7.083 -0.1621 -0.0566 -0.2936
  128OSM    H8S13692  -0.611   2.234   7.044 -0.4596  1.1422 -1.3108
  128OSM    H8T13693  -0.536   2.394   7.055  0.1139 -0.0592 -0.4478
  128OSM    C9S13694  -0.519   2.284   7.242 -0.9944 -0.0739 -0.0664
  128OSM    H9S13695  -0.435   2.344   7.282 -1.1675  0.1482 -0.0339
  128OSM    H9T13696  -0.506   2.176   7.265  2.6890 -0.3948 -2.6711
  128OSM   C10S13697  -0.650   2.338   7.303  0.1607 -0.0868  0.2579
  128OSM   H10S13698  -0.734   2.276   7.266 -1.1384  1.3253  0.7359
  128OSM   H10T13699  -0.655   2.440   7.260  1.3968  0.8333  2.1431
  128OSM   C11S13700  -0.651   2.346   7.452 -0.5729  0.2015 -0.6839
  128OSM   H11S13701  -0.564   2.402   7.491  0.2742 -0.6077 -1.3410
  128OSM   H11T13702  -0.644   2.241   7.487  0.1529  0.8700  1.2997
  128OSM   C12S13703  -0.782   2.399   7.501 -0.1972  0.1541  0.6500
  128OSM   H12S13704  -0.866   2.358   7.441 -0.5130 -0.4209  1.4711
  128OSM   H12T13705  -0.765   2.505   7.474 -0.1010  0.0329  0.2129
  128OSM   C13S13706  -0.815   2.378   7.649  0.0682  0.3080 -0.0506
  128OSM   H13S13707  -0.843   2.273   7.673  0.9956 -0.0316 -0.3748
  128OSM   H13T13708  -0.895   2.447   7.682  2.7620  3.4517  0.4722
  128OSM   C14S13709  -0.698   2.424   7.730  0.5256  0.1237 -0.7203
  128OSM   H14S13710  -0.673   2.529   7.708  0.8937  0.4468  1.0653
  128OSM   H14T13711  -0.608   2.361   7.709 -1.0947 -2.3308 -0.7539
  128OSM   C15S13712  -0.728   2.414   7.885  0.3890 -0.4976  0.1797
  128OSM   H15S13713  -0.735   2.308   7.916 -1.2055  0.1041  2.1356
  128OSM   H15T13714  -0.829   2.457   7.906  1.1445  1.4727 -0.0398
  128OSM   C16S13715  -0.619   2.474   7.969  0.0707 -0.1491 -0.4477
  128OSM   H16S13716  -0.618   2.581   7.940 -0.7411 -0.1892 -0.6474
  128OSM   H16T13717  -0.525   2.420   7.942  0.0565 -1.0583  1.2342
  128OSM   C17S13718  -0.653   2.447   8.121 -0.7064  0.1316  0.9840
  128OSM   H17S13719  -0.667   2.338   8.138 -1.5432 -0.1421 -1.1118
  128OSM   H17T13720  -0.750   2.497   8.137 -0.0025  1.5139  1.1012
  128OSM   C18S13721  -0.557   2.510   8.221  0.6288  0.7011 -0.1678
  128OSM   H18S13722  -0.472   2.443   8.245 -0.5096 -0.7931 -0.2013
  128OSM   H18T13723  -0.601   2.525   8.322 -1.4616  0.9949 -1.0693
  128OSM   H18U13724  -0.529   2.611   8.184  1.5593  0.1303 -1.0529
  128OSM    C1F13725   0.133   2.390   6.994  1.0101 -0.4213  0.2292
  128OSM     OF13726   0.160   2.484   6.919 -0.3904 -0.9659 -0.5895
  128OSM    C2F13727   0.165   2.400   7.140 -0.2697 -0.0560  0.1328
  128OSM    H2F13728   0.246   2.331   7.171  0.3884  0.1530 -1.0629
  128OSM    H2G13729   0.072   2.371   7.193 -1.8017  1.8983 -1.3274
  128OSM    C3F13730   0.206   2.541   7.193  0.3129 -0.3287  0.6223
  128OSM    H3F13731   0.130   2.621   7.183  1.1793  0.6324  1.5338
  128OSM    H3G13732   0.300   2.571   7.141  0.0789  0.7252  0.7953
  128OSM    C4F13733   0.251   2.540   7.336 -0.4926  0.0868  0.4799
  128OSM    H4F13734   0.309   2.634   7.353  0.5653 -0.4332 -0.1274
  128OSM    H4G13735   0.325   2.463   7.364  0.5396  0.9821  0.3178
  128OSM    C5F13736   0.140   2.509   7.431  0.2045  0.0709  0.9216
  128OSM    H5F13737   0.096   2.409   7.409  0.9403 -0.2929  1.0717
  128OSM    H5G13738   0.065   2.590   7.419  0.8004  0.2131 -3.0016
  128OSM    C6F13739   0.188   2.527   7.570  0.3925  0.9083 -0.6095
  128OSM    H6F13740   0.292   2.510   7.605 -0.0507 -0.4842  0.1080
  128OSM    H6G13741   0.114   2.470   7.632  0.9852 -0.0409 -0.7504
  128OSM    C7F13742   0.182   2.677   7.614  0.0862  0.2716 -0.0791
  128OSM    H7F13743   0.079   2.718   7.600  0.7800  1.5653 -1.7211
  128OSM    H7G13744   0.252   2.722   7.541  3.8381 -1.8712  1.9091
  128OSM    C8F13745   0.222   2.703   7.761  0.4098 -0.4761  0.9431
  128OSM    H8F13746   0.213   2.813   7.769 -1.7672 -0.4556 -0.8612
  128OSM    H8G13747   0.327   2.674   7.780  0.6562  0.7574  1.5649
  128OSM    C9F13748   0.121   2.639   7.851  0.3512  0.5281  0.3139
  128OSM    H9F13749   0.029   2.699   7.859  0.5340  0.9745 -0.7693
  128OSM   C10F13750   0.140   2.530   7.920 -0.0890 -0.1893 -0.6431
  128OSM   H10F13751   0.056   2.507   7.987  0.1583  0.9182  0.0750
  128OSM   C11F13752   0.267   2.448   7.921 -0.0242 -0.1765  0.2741
  128OSM   H11F13753   0.353   2.514   7.946 -1.8345  1.4691  2.5771
  128OSM   H11G13754   0.279   2.410   7.817 -0.8396 -0.3419  0.2291
  128OSM   C12F13755   0.270   2.321   8.013 -0.5016 -0.4331  0.3664
  128OSM   H12F13756   0.346   2.251   7.973 -1.9387 -1.5125 -0.6002
  128OSM   H12G13757   0.176   2.263   7.998 -1.2570  0.9553 -0.4398
  128OSM   C13F13758   0.275   2.359   8.159 -0.7356 -0.1459 -0.6506
  128OSM   H13F13759   0.202   2.438   8.186  1.5394  1.4382  1.1551
  128OSM   H13G13760   0.378   2.391   8.185 -0.8028 -1.6652  1.7781
  128OSM   C14F13761   0.233   2.240   8.239 -0.1322  0.1196 -0.4983
  128OSM   H14F13762   0.297   2.152   8.214  0.5958  0.8868 -1.3704
  128OSM   H14G13763   0.125   2.226   8.213 -0.6587  4.3736 -1.2213
  128OSM   C15F13764   0.232   2.268   8.391 -0.0216 -0.3828  0.2923
  128OSM   H15F13765   0.170   2.359   8.404  0.9362  0.4141 -0.5819
  128OSM   H15G13766   0.337   2.294   8.415  0.7337 -0.6520 -2.4291
  128OSM   C16F13767   0.179   2.149   8.474 -0.5758 -0.4537 -0.5576
  128OSM   H16F13768   0.269   2.084   8.487  1.0529  0.7271 -4.4479
  128OSM   H16G13769   0.105   2.094   8.412 -0.4483 -0.3282 -0.8190
  128OSM   C17F13770   0.137   2.182   8.619  0.2260  0.6216  0.1360
  128OSM   H17F13771   0.052   2.253   8.619  1.2492  1.8717 -0.4289
  128OSM   H17G13772   0.216   2.239   8.672  0.2202  0.7109  0.0483
  128OSM   C18F13773   0.097   2.058   8.688  0.2900  0.7796  0.8656
  128OSM   H18F13774   0.174   1.978   8.686 -1.8581 -1.4076  0.7494
  128OSM   H18G13775   0.009   2.012   8.639  1.4711 -0.4826 -0.1491
  128OSM   H18H13776   0.072   2.075   8.794  0.6134  1.0285  0.9040
  129OSM      N13777   6.809   2.330   6.283  0.0346  0.8791 -0.0832
  129OSM    C1513778   6.766   2.199   6.349  0.2855 -0.3262 -0.2241
  129OSM   H15A13779   6.773   2.119   6.277  0.7494 -0.2524 -0.2664
  129OSM   H15B13780   6.665   2.199   6.388  0.1469 -0.1065 -0.5742
  129OSM   H15C13781   6.821   2.169   6.437 -0.4119 -0.7079  0.0881
  129OSM    C1413782   6.944   2.287   6.225  0.3741  0.0001  0.3393
  129OSM   H14A13783   6.930   2.201   6.163  1.7875 -1.7022  2.2508
  129OSM   H14B13784   7.014   2.259   6.302 -1.9245 -0.4313  2.3967
  129OSM   H14C13785   6.981   2.375   6.174  0.5106  0.5067  1.2719
  129OSM    C1313786   6.719   2.338   6.163 -0.4307 -0.2569 -0.2207
  129OSM   H13A13787   6.624   2.366   6.205  0.1383 -0.9166  1.6168
  129OSM   H13B13788   6.705   2.245   6.111 -0.1092  0.1499 -1.0456
  129OSM   H13C13789   6.744   2.418   6.095  1.1962 -1.3349 -0.9419
  129OSM    C1213790   6.818   2.446   6.370  0.7935 -0.2141 -0.2403
  129OSM   H12A13791   6.857   2.529   6.314 -0.5755  0.4666 -0.2196
  129OSM   H12B13792   6.892   2.427   6.447  3.6845  2.8640 -2.0088
  129OSM    C1113793   6.694   2.487   6.457 -0.0845 -0.5960  0.5340
  129OSM   H11A13794   6.724   2.573   6.520 -0.1610 -0.7921  0.8422
  129OSM   H11B13795   6.670   2.399   6.521  1.8142 -0.8199  0.9899
  129OSM      P13796   6.587   2.654   6.285 -0.1941 -0.1205  0.4423
  129OSM    O1313797   6.724   2.694   6.258 -0.4770 -0.6990 -0.2209
  129OSM    O1413798   6.517   2.609   6.165  0.4276 -0.0374  0.0111
  129OSM    O1113799   6.522   2.764   6.369 -0.3886 -0.0296  0.6127
  129OSM    O1213800   6.582   2.530   6.378 -0.1171 -0.5822 -0.2416
  129OSM    C1S13801   6.416   2.749   6.462 -0.5443 -0.0322 -0.1459
  129OSM    H1S13802   6.392   2.643   6.486  0.1528 -0.3993 -1.0122
  129OSM    H1T13803   6.325   2.801   6.424 -1.1972  0.2389  1.6734
  129OSM     NF13804   6.340   2.809   6.690  0.4070  0.5530 -0.7960
  129OSM    HNF13805   6.261   2.869   6.680 -2.2057 -2.3886  0.3971
  129OSM    C2S13806   6.453   2.817   6.601 -0.6105 -0.4717  0.8010
  129OSM    H2S13807   6.537   2.762   6.649  0.1582  0.1492  0.1820
  129OSM    C3S13808   6.482   2.968   6.576 -0.0678  0.4633 -0.3436
  129OSM    H3S13809   6.389   3.009   6.532 -0.3217 -0.9601 -1.1962
  129OSM     O313810   6.585   2.986   6.484 -0.1397  0.6414  0.3720
  129OSM    HO313811   6.561   2.906   6.437  0.5320  0.9058 -0.4579
  129OSM    C4S13812   6.512   3.047   6.703 -0.2852  0.8271 -0.4188
  129OSM    H4S13813   6.590   3.002   6.766  0.1417 -0.8617 -2.0768
  129OSM    C5S13814   6.449   3.155   6.746 -0.3226 -0.6934  0.2843
  129OSM    H5S13815   6.358   3.178   6.688  0.1009 -1.1287 -0.5709
  129OSM    C6S13816   6.475   3.226   6.880  0.1641  0.3686  0.5041
  129OSM    H6S13817   6.396   3.197   6.952  1.5408  1.7736  2.7072
  129OSM    H6T13818   6.461   3.335   6.860  1.1077  0.1397 -1.6882
  129OSM    C7S13819   6.609   3.208   6.943 -0.9270  0.1383 -0.1929
  129OSM    H7S13820   6.687   3.231   6.867 -2.5148 -0.9796 -2.2537
  129OSM    H7T13821   6.638   3.103   6.969  3.0250  0.9593 -0.6632
  129OSM    C8S13822   6.624   3.288   7.069  0.3067 -0.1103 -0.7869
  129OSM    H8S13823   6.600   3.396   7.064  0.5452  0.1183  1.6755
  129OSM    H8T13824   6.729   3.312   7.095 -0.2822  1.4538  0.3107
  129OSM    C9S13825   6.538   3.254   7.198 -0.2088 -0.1485  0.6276
  129OSM    H9S13826   6.542   3.143   7.207 -0.6335 -0.2906 -0.6377
  129OSM    H9T13827   6.431   3.273   7.172 -0.3379 -2.5660 -0.9836
  129OSM   C10S13828   6.591   3.320   7.328  0.2361 -1.4267 -0.1083
  129OSM   H10S13829   6.603   3.429   7.310 -1.6146 -1.4019 -1.4588
  129OSM   H10T13830   6.692   3.286   7.361  0.6403  0.8792  1.2375
  129OSM   C11S13831   6.516   3.321   7.463 -0.9620  0.2095 -0.9858
  129OSM   H11S13832   6.492   3.215   7.488  0.3662  0.3914  1.3257
  129OSM   H11T13833   6.425   3.383   7.456 -1.8794 -1.0338 -0.5100
  129OSM   C12S13834   6.590   3.378   7.585 -0.0555  0.0815  0.3019
  129OSM   H12S13835   6.583   3.488   7.569 -0.4482 -0.1310 -1.0400
  129OSM   H12T13836   6.699   3.358   7.591 -0.2100 -0.6475  5.1069
  129OSM   C13S13837   6.526   3.335   7.718 -0.5575 -0.1406 -0.2406
  129OSM   H13S13838   6.527   3.226   7.738  0.5038  0.0137  0.6521
  129OSM   H13T13839   6.419   3.361   7.704 -0.5132  1.5985  1.9919
  129OSM   C14S13840   6.582   3.412   7.835 -0.1146 -0.6960  0.8840
  129OSM   H14S13841   6.558   3.519   7.819  1.6666 -0.5798 -1.7356
  129OSM   H14T13842   6.693   3.411   7.831 -0.0187 -2.7286  2.6276
  129OSM   C15S13843   6.527   3.348   7.962  0.3174 -0.3040 -0.2441
  129OSM   H15S13844   6.582   3.252   7.976 -1.5393 -1.7925 -2.5036
  129OSM   H15T13845   6.421   3.318   7.951  0.8416 -2.1757 -0.5537
  129OSM   C16S13846   6.538   3.434   8.097 -0.3536  0.3046  0.0470
  129OSM   H16S13847   6.482   3.528   8.083  1.5503  1.4104 -0.5451
  129OSM   H16T13848   6.644   3.457   8.121  0.2013 -2.1978  0.2918
  129OSM   C17S13849   6.496   3.358   8.224 -0.6359 -0.1844  0.1269
  129OSM   H17S13850   6.389   3.326   8.220 -0.4357 -0.7808 -0.6503
  129OSM   H17T13851   6.488   3.420   8.316  1.5283  2.2161 -1.1899
  129OSM   C18S13852   6.588   3.238   8.258 -0.3874  0.0527 -0.3319
  129OSM   H18S13853   6.577   3.159   8.180  2.1432  1.1866 -1.9582
  129OSM   H18T13854   6.543   3.198   8.351 -0.3061 -1.1957 -0.8087
  129OSM   H18U13855   6.694   3.269   8.265 -0.2206 -0.4992 -0.3572
  129OSM    C1F13856   6.309   2.708   6.768 -0.7337  0.3793  0.1973
  129OSM     OF13857   6.384   2.611   6.772  0.6236  0.0094 -0.4723
  129OSM    C2F13858   6.179   2.709   6.852  0.0927 -0.5143 -0.7669
  129OSM    H2F13859   6.124   2.802   6.827  3.7811  2.1258  0.1750
  129OSM    H2G13860   6.194   2.707   6.962 -1.0413  2.4244 -0.4577
  129OSM    C3F13861   6.099   2.587   6.804 -0.4965  0.4881 -0.2012
  129OSM    H3F13862   6.156   2.495   6.831 -1.0982  0.8044  2.3757
  129OSM    H3G13863   6.086   2.588   6.693 -1.9692 -0.1784 -0.0640
  129OSM    C4F13864   5.953   2.580   6.857  0.1570 -0.5298 -0.1144
  129OSM    H4F13865   5.898   2.497   6.808  1.1667 -1.3448  0.0992
  129OSM    H4G13866   5.898   2.666   6.814 -3.3383 -1.8729  1.3182
  129OSM    C5F13867   5.934   2.568   7.006 -0.4165 -0.2750 -0.0497
  129OSM    H5F13868   5.994   2.645   7.060 -1.2852  0.7822 -0.5581
  129OSM    H5G13869   5.962   2.466   7.040  3.2936  0.1053 -1.5153
  129OSM    C6F13870   5.776   2.586   7.024  0.0671 -0.0389  0.1874
  129OSM    H6F13871   5.727   2.507   6.964 -0.6625  0.4411  0.1298
  129OSM    H6G13872   5.741   2.679   6.972  1.5051 -0.3636 -1.4642
  129OSM    C7F13873   5.732   2.593   7.176 -0.1784  0.2294  0.1549
  129OSM    H7F13874   5.630   2.636   7.167 -0.0921  0.6262  0.9637
  129OSM    H7G13875   5.791   2.669   7.233  0.8628 -0.7007  0.3485
  129OSM    C8F13876   5.739   2.456   7.245 -0.2566  0.1943 -0.1594
  129OSM    H8F13877   5.721   2.474   7.353 -1.5521  2.0679 -0.6354
  129OSM    H8G13878   5.842   2.417   7.233  1.5467  4.1805  0.8368
  129OSM    C9F13879   5.642   2.349   7.195 -0.3972  0.4411 -0.9915
  129OSM    H9F13880   5.576   2.372   7.110 -1.0983  2.0259 -0.0784
  129OSM   C10F13881   5.627   2.229   7.253  0.1595 -0.0430 -0.5896
  129OSM   H10F13882   5.578   2.149   7.195  0.6591  1.7475 -3.7316
  129OSM   C11F13883   5.696   2.179   7.382 -0.2932  0.1469  0.9169
  129OSM   H11F13884   5.789   2.237   7.403  0.6561 -1.0654  0.1695
  129OSM   H11G13885   5.737   2.077   7.365  1.5838  0.8321  1.0058
  129OSM   C12F13886   5.602   2.191   7.501  0.4890 -0.1396 -0.3858
  129OSM   H12F13887   5.505   2.139   7.483 -0.8938  1.6150  1.4880
  129OSM   H12G13888   5.583   2.297   7.527  0.2240 -0.6008  1.4653
  129OSM   C13F13889   5.666   2.144   7.635 -0.4017  0.7073 -0.4288
  129OSM   H13F13890   5.750   2.211   7.665  0.5085 -0.3051 -0.6624
  129OSM   H13G13891   5.706   2.043   7.612  2.6401  1.6848  0.0833
  129OSM   C14F13892   5.552   2.149   7.743  0.3772  0.1773  0.4597
  129OSM   H14F13893   5.469   2.084   7.707  1.1166 -1.0017  0.7934
  129OSM   H14G13894   5.530   2.257   7.750  2.8071  0.7290  0.4116
  129OSM   C15F13895   5.606   2.097   7.879  0.3481  0.0970  0.5201
  129OSM   H15F13896   5.689   2.169   7.898 -0.9200  1.3816  1.4689
  129OSM   H15G13897   5.638   1.992   7.863  1.3658  0.3516  0.7875
  129OSM   C16F13898   5.493   2.104   7.992 -0.9756  0.1042 -0.0892
  129OSM   H16F13899   5.445   2.204   7.997 -0.8908  0.0932  1.6604
  129OSM   H16G13900   5.559   2.082   8.079  2.1357  0.7536 -2.1284
  129OSM   C17F13901   5.383   2.001   7.982 -0.2327 -0.1010  0.3421
  129OSM   H17F13902   5.429   1.900   7.980 -3.1162 -1.4984 -1.1445
  129OSM   H17G13903   5.333   2.023   7.885  3.1764 -1.4737 -1.8955
  129OSM   C18F13904   5.278   2.008   8.101 -0.7310  1.0924 -0.2685
  129OSM   H18F13905   5.327   1.966   8.191  0.8823  0.4257 -1.4067
  129OSM   H18G13906   5.183   1.955   8.076  0.3538 -0.6963 -0.7331
  129OSM   H18H13907   5.245   2.112   8.120 -0.2849  0.9726  1.2835
  130OSM      N13908   6.388   0.703   6.013  0.7441 -0.4707 -0.0134
  130OSM    C1513909   6.369   0.674   5.869 -0.0543 -0.5375 -0.5842
  130OSM   H15A13910   6.305   0.747   5.821 -0.5981  0.9589  2.2253
  130OSM   H15B13911   6.323   0.577   5.859 -1.4168 -0.2056  1.7585
  130OSM   H15C13912   6.461   0.680   5.813 -0.8502  1.5161 -1.8093
  130OSM    C1413913   6.249   0.738   6.069  0.4217 -0.0665 -0.4776
  130OSM   H14A13914   6.218   0.827   6.016  2.4592  2.0566  1.6759
  130OSM   H14B13915   6.253   0.765   6.173 -0.9036 -1.8990  0.0916
  130OSM   H14C13916   6.190   0.647   6.067  1.2133 -0.6627  1.3593
  130OSM    C1313917   6.434   0.572   6.079 -0.3303 -0.4884  0.6386
  130OSM   H13A13918   6.463   0.598   6.180  1.1414  1.3250 -0.2060
  130OSM   H13B13919   6.523   0.537   6.029  0.5113  2.4311 -0.1077
  130OSM   H13C13920   6.347   0.507   6.084  0.0142 -1.0583 -0.5210
  130OSM    C1213921   6.489   0.810   6.048  0.4379 -0.3825 -0.3206
  130OSM   H12A13922   6.465   0.899   5.992  0.5037  0.3270  0.7445
  130OSM   H12B13923   6.580   0.781   5.997  1.2044  0.6000  0.4500
  130OSM    C1113924   6.518   0.849   6.195 -0.1408  0.3160  0.1795
  130OSM   H11A13925   6.602   0.920   6.186  2.2102 -2.3657 -0.5626
  130OSM   H11B13926   6.550   0.754   6.242  0.1993 -0.2712 -1.1774
  130OSM      P13927   6.352   1.036   6.286 -0.0971  0.0280 -0.0604
  130OSM    O1313928   6.425   1.125   6.194 -0.0496  0.0682  0.7109
  130OSM    O1413929   6.208   1.047   6.289  0.1404  0.1507 -0.1980
  130OSM    O1113930   6.413   1.065   6.432 -0.3742  0.2573 -0.6846
  130OSM    O1213931   6.399   0.888   6.264  0.6952 -0.5825 -0.1268
  130OSM    C1S13932   6.343   1.017   6.556 -0.6127 -0.1473  0.6059
  130OSM    H1S13933   6.236   0.997   6.535 -0.3791 -2.3592  1.2616
  130OSM    H1T13934   6.346   1.081   6.647  0.4212 -0.6879  0.9610
  130OSM     NF13935   6.335   0.820   6.711 -0.2489  0.2289 -0.8209
  130OSM    HNF13936   6.370   0.811   6.803  2.7983  1.0489 -1.7872
  130OSM    C2S13937   6.412   0.891   6.615 -0.4918  0.0627  0.3929
  130OSM    H2S13938   6.433   0.814   6.538 -0.5897 -0.0065  0.4348
  130OSM    C3S13939   6.557   0.924   6.666 -0.0545 -0.5492 -0.4876
  130OSM    H3S13940   6.554   0.991   6.754 -0.7703 -2.7768  1.2579
  130OSM     O313941   6.631   0.983   6.554  0.7137 -0.2274 -0.0318
  130OSM    HO313942   6.570   0.977   6.481  1.6492 -0.0008 -0.8562
  130OSM    C4S13943   6.637   0.799   6.703  0.1026  0.3874  0.1678
  130OSM    H4S13944   6.661   0.728   6.622  1.6064 -0.0502  0.9457
  130OSM    C5S13945   6.675   0.755   6.821  0.4452 -0.0214  0.1350
  130OSM    H5S13946   6.653   0.807   6.915  0.0862 -0.2143  0.1633
  130OSM    C6S13947   6.756   0.627   6.832 -0.1668 -0.2399  0.8325
  130OSM    H6S13948   6.858   0.655   6.800 -1.3365  0.1885 -2.9815
  130OSM    H6T13949   6.727   0.549   6.759 -1.5400  0.4136  0.6328
  130OSM    C7S13950   6.754   0.563   6.974  0.2879 -0.5574 -0.0338
  130OSM    H7S13951   6.645   0.559   6.997 -0.0279  0.6651 -1.2061
  130OSM    H7T13952   6.808   0.628   7.045  0.9940 -1.4895  0.3079
  130OSM    C8S13953   6.815   0.424   6.980  0.4477  0.2582 -0.4214
  130OSM    H8S13954   6.926   0.426   6.968  0.4251 -1.8597 -1.5189
  130OSM    H8T13955   6.771   0.364   6.897  0.4429  0.6303 -0.6921
  130OSM    C9S13956   6.768   0.366   7.113 -0.1001 -1.0265  0.1581
  130OSM    H9S13957   6.772   0.257   7.089 -0.8903 -0.8500 -0.8684
  130OSM    H9T13958   6.658   0.376   7.129 -0.3940 -3.2715 -0.0457
  130OSM   C10S13959   6.859   0.398   7.233 -0.1612 -0.2922 -0.1773
  130OSM   H10S13960   6.883   0.506   7.244  1.2941 -0.5686 -0.3876
  130OSM   H10T13961   6.961   0.356   7.221 -1.0201 -2.2081 -1.2620
  130OSM   C11S13962   6.805   0.368   7.378 -0.0345  0.8958  0.8599
  130OSM   H11S13963   6.774   0.263   7.390 -1.4579  1.0791 -0.7563
  130OSM   H11T13964   6.717   0.435   7.390 -1.9797 -1.4713  0.6529
  130OSM   C12S13965   6.922   0.396   7.476 -0.0041 -0.1870  0.5094
  130OSM   H12S13966   6.966   0.498   7.473  0.6888 -0.4325  1.6111
  130OSM   H12T13967   7.008   0.327   7.457  1.2405  0.8573  2.0985
  130OSM   C13S13968   6.855   0.379   7.614 -0.0417  0.1228  0.1240
  130OSM   H13S13969   6.815   0.275   7.609  2.1533 -0.8590  1.4867
  130OSM   H13T13970   6.771   0.447   7.637  0.1928  0.0610  1.2252
  130OSM   C14S13971   6.949   0.379   7.735 -0.1677  0.4858  0.3629
  130OSM   H14S13972   7.004   0.475   7.736  0.6017  0.0869 -1.1842
  130OSM   H14T13973   7.025   0.301   7.715  0.1356  0.9557 -0.3201
  130OSM   C15S13974   6.889   0.348   7.871  0.2788  0.0572 -0.6740
  130OSM   H15S13975   6.837   0.250   7.859  0.3678  0.0236 -0.7915
  130OSM   H15T13976   6.817   0.422   7.911 -0.4351 -1.5148  1.0950
  130OSM   C16S13977   6.997   0.329   7.974  0.0235 -0.2909 -0.4554
  130OSM   H16S13978   7.049   0.424   7.999 -2.2204  0.2172  2.9823
  130OSM   H16T13979   7.068   0.258   7.927 -0.4921  0.9376 -3.3521
  130OSM   C17S13980   6.938   0.293   8.114  0.2923  0.4749  0.3591
  130OSM   H17S13981   6.872   0.206   8.092 -2.7642  2.6584  0.2774
  130OSM   H17T13982   6.882   0.380   8.154 -1.1091  0.2053 -0.9269
  130OSM   C18S13983   7.061   0.250   8.201 -0.4327  0.8726  0.5085
  130OSM   H18S13984   7.105   0.154   8.165 -2.1339  0.5395 -0.8114
  130OSM   H18T13985   7.027   0.229   8.305  1.1033  0.3954  0.9426
  130OSM   H18U13986   7.141   0.322   8.224  0.8044 -0.3431  0.1582
  130OSM    C1F13987   6.227   0.742   6.685 -0.5250 -0.6203 -0.0521
  130OSM     OF13988   6.197   0.708   6.572  0.0649 -0.4762 -0.4344
  130OSM    C2F13989   6.140   0.696   6.806 -0.9155 -0.1236 -0.6689
  130OSM    H2F13990   6.098   0.785   6.857 -0.9933 -0.4298 -0.1963
  130OSM    H2G13991   6.213   0.650   6.876 -0.0583  1.7235 -0.2907
  130OSM    C3F13992   6.023   0.609   6.764 -0.0287  0.4247 -0.2349
  130OSM    H3F13993   6.055   0.511   6.724 -1.6020 -0.2879  0.1929
  130OSM    H3G13994   5.964   0.654   6.682  0.1190 -1.4154 -1.4027
  130OSM    C4F13995   5.937   0.583   6.888  0.1442 -0.0428 -0.0862
  130OSM    H4F13996   5.837   0.561   6.846 -0.5777 -2.3397  2.5452
  130OSM    H4G13997   5.925   0.675   6.950  1.0631  0.2396 -0.2963
  130OSM    C5F13998   5.988   0.467   6.977 -0.0752  0.1820 -0.0707
  130OSM    H5F13999   6.081   0.508   7.022  1.5351  0.9498 -3.7233
  130OSM    H5G14000   6.027   0.385   6.913 -0.4566 -0.9091  1.0457
  130OSM    C6F14001   5.882   0.414   7.082 -0.5381  0.6944  0.7370
  130OSM    H6F14002   5.798   0.365   7.028  2.1068 -1.8141 -1.4737
  130OSM    H6G14003   5.845   0.493   7.150 -0.9578  0.2854  0.9878
  130OSM    C7F14004   5.952   0.310   7.160  0.4688 -1.3534  0.5424
  130OSM    H7F14005   6.056   0.346   7.179  0.1880 -0.8238  1.1079
  130OSM    H7G14006   5.945   0.224   7.089 -1.9353  1.9623 -3.7169
  130OSM    C8F14007   5.885   0.292   7.295  1.0477 -0.1707  0.0789
  130OSM    H8F14008   5.779   0.258   7.289  0.2545  1.9170  1.4219
  130OSM    H8G14009   5.883   0.382   7.359 -2.4540 -1.2456  1.7834
  130OSM    C9F14010   5.968   0.193   7.370  0.7615 -0.0367 -0.8104
  130OSM    H9F14011   5.983   0.097   7.318 -1.1684 -0.9635  0.2103
  130OSM   C10F14012   6.028   0.196   7.493 -0.0377 -0.1023 -0.0283
  130OSM   H10F14013   6.081   0.109   7.534  2.5872 -0.3269 -3.4484
  130OSM   C11F14014   6.046   0.312   7.586  0.3696 -0.2586 -0.4142
  130OSM   H11F14015   6.035   0.408   7.532  0.9810  0.2199  0.2897
  130OSM   H11G14016   6.152   0.318   7.618  0.1765  0.2659  0.1596
  130OSM   C12F14017   5.963   0.307   7.717  0.0973  0.0149 -0.0968
  130OSM   H12F14018   5.966   0.206   7.765  1.3158  0.6837  1.3219
  130OSM   H12G14019   5.861   0.339   7.689 -0.4492 -1.3701  0.2053
  130OSM   C13F14020   6.032   0.396   7.822  0.0687 -0.5293  0.7066
  130OSM   H13F14021   6.039   0.491   7.765  1.0514 -0.4584  0.9157
  130OSM   H13G14022   6.139   0.368   7.834  0.7324  1.1250 -0.8926
  130OSM   C14F14023   5.960   0.418   7.961  0.1526 -0.1036  0.7705
  130OSM   H14F14024   5.855   0.445   7.940 -0.1968 -0.3295  2.1062
  130OSM   H14G14025   6.008   0.511   7.998 -0.8214  1.3117 -1.3223
  130OSM   C15F14026   5.967   0.303   8.054 -0.0130  0.4069 -0.1119
  130OSM   H15F14027   6.073   0.280   8.078  0.1416 -0.8379 -1.8551
  130OSM   H15G14028   5.918   0.213   8.012  1.4249  0.2716 -1.5752
  130OSM   C16F14029   5.902   0.340   8.191 -0.7297  0.2405 -0.0415
  130OSM   H16F14030   5.794   0.324   8.173 -0.4083 -1.9295 -0.3788
  130OSM   H16G14031   5.924   0.446   8.215  1.4030 -0.7517  3.0563
  130OSM   C17F14032   5.950   0.246   8.307  0.0076 -0.9679  0.5996
  130OSM   H17F14033   6.060   0.248   8.321  0.4506  0.0944 -2.2631
  130OSM   H17G14034   5.910   0.151   8.266  0.6142 -1.0652  0.2151
  130OSM   C18F14035   5.900   0.275   8.448  0.4511 -0.7509  0.1552
  130OSM   H18F14036   5.953   0.362   8.491  0.5733 -0.0179 -1.4045
  130OSM   H18G14037   5.935   0.189   8.509  0.8176  1.6349  3.6308
  130OSM   H18H14038   5.790   0.294   8.452  0.5552 -0.1759  0.4393
  131OSM      N14039   1.257   4.321   6.038 -0.2077 -0.1356 -0.2766
  131OSM    C1514040   1.294   4.414   6.145 -0.0892  0.0238  0.0125
  131OSM   H15A14041   1.343   4.501   6.105  0.5344  1.0598  2.8056
  131OSM   H15B14042   1.356   4.356   6.211 -1.4799 -0.7663  0.6845
  131OSM   H15C14043   1.202   4.441   6.195  1.1146 -1.2358  3.1662
  131OSM    C1414044   1.182   4.395   5.928  0.3951  0.0064  0.0028
  131OSM   H14A14045   1.247   4.454   5.865  0.1599 -0.7652 -0.9838
  131OSM   H14B14046   1.110   4.457   5.979  0.9081  1.8048 -1.3298
  131OSM   H14C14047   1.138   4.329   5.855 -0.4572  0.8888 -0.3043
  131OSM    C1314048   1.382   4.262   5.983 -0.6348 -0.3119  0.1193
  131OSM   H13A14049   1.436   4.203   6.055  0.1294  1.3657  0.9909
  131OSM   H13B14050   1.447   4.342   5.948  1.1749 -0.5953  2.5779
  131OSM   H13C14051   1.364   4.197   5.899  1.8319  0.3765 -1.0639
  131OSM    C1214052   1.163   4.210   6.087 -0.4046  0.2287 -0.4029
  131OSM   H12A14053   1.133   4.144   6.006  1.5285  0.4811 -1.3785
  131OSM   H12B14054   1.068   4.253   6.115 -1.4963 -1.5172 -1.2714
  131OSM    C1114055   1.224   4.124   6.198  0.3595  0.4260  0.0554
  131OSM   H11A14056   1.146   4.061   6.247 -0.3528  1.2057 -0.0506
  131OSM   H11B14057   1.255   4.200   6.272  0.7523  1.5145 -1.1954
  131OSM      P14058   1.328   3.914   6.075  0.2283 -0.7756 -0.0817
  131OSM    O1314059   1.314   3.945   5.931  0.0964 -0.0221  0.1977
  131OSM    O1414060   1.446   3.838   6.113 -0.0056 -0.8098 -0.7495
  131OSM    O1114061   1.208   3.839   6.128  0.3210  0.5454  0.2124
  131OSM    O1214062   1.337   4.037   6.165 -0.6630  0.2076 -0.3851
  131OSM    C1S14063   1.217   3.717   6.210  0.1935  0.4743 -0.1333
  131OSM    H1S14064   1.322   3.689   6.232  0.7173  2.1338 -0.3208
  131OSM    H1T14065   1.166   3.630   6.164  0.1446  0.0164  0.7635
  131OSM     NF14066   1.207   3.666   6.449  0.3469  0.2032 -0.1068
  131OSM    HNF14067   1.151   3.595   6.490 -1.6527  1.8618  0.2023
  131OSM    C2S14068   1.159   3.752   6.349  0.0361 -0.3810  0.2125
  131OSM    H2S14069   1.182   3.859   6.370 -0.1916 -0.4007  0.5681
  131OSM    C3S14070   1.001   3.748   6.334  0.4118 -0.1049 -0.3681
  131OSM    H3S14071   0.971   3.643   6.350 -0.4532 -0.1944 -2.2620
  131OSM     O314072   0.947   3.786   6.209 -0.3954 -0.6793 -0.1864
  131OSM    HO314073   1.024   3.807   6.156 -0.1052  0.2134  0.5835
  131OSM    C4S14074   0.937   3.843   6.433 -0.2498 -1.1307 -0.7155
  131OSM    H4S14075   0.942   3.947   6.396 -1.8773 -1.6342 -2.5318
  131OSM    C5S14076   0.864   3.807   6.543 -0.2868 -0.2395  1.0433
  131OSM    H5S14077   0.841   3.701   6.558  0.6546 -1.2092 -3.0805
  131OSM    C6S14078   0.790   3.895   6.639  0.3490 -0.0999 -0.7861
  131OSM    H6S14079   0.695   3.935   6.598  0.5906  0.0915 -1.1718
  131OSM    H6T14080   0.851   3.980   6.678 -1.2976  0.4297  0.7329
  131OSM    C7S14081   0.747   3.799   6.755 -0.2598 -0.1576  0.3309
  131OSM    H7S14082   0.828   3.766   6.823 -1.4689 -0.0388  1.8687
  131OSM    H7T14083   0.681   3.720   6.711 -0.2290  0.4298 -0.8091
  131OSM    C8S14084   0.652   3.865   6.849  0.6616  0.2317  0.2882
  131OSM    H8S14085   0.552   3.886   6.805  0.6803  0.6656  0.4459
  131OSM    H8T14086   0.698   3.963   6.873  1.3205  0.6112 -2.2405
  131OSM    C9S14087   0.611   3.786   6.974 -0.1994 -0.3159  0.4818
  131OSM    H9S14088   0.618   3.678   6.949  2.2089 -0.0268 -0.3755
  131OSM    H9T14089   0.519   3.810   7.031 -0.2598  1.5260 -0.3168
  131OSM   C10S14090   0.714   3.824   7.075  0.5060  0.5905 -0.0157
  131OSM   H10S14091   0.728   3.934   7.080 -0.0104  0.7004 -0.8180
  131OSM   H10T14092   0.820   3.798   7.055  1.6516  2.7799  2.5450
  131OSM   C11S14093   0.669   3.766   7.214  0.2053 -0.3596  0.5832
  131OSM   H11S14094   0.642   3.661   7.187  0.0651 -0.1310 -0.2011
  131OSM   H11T14095   0.580   3.818   7.255 -0.3783 -1.8766  1.3261
  131OSM   C12S14096   0.778   3.779   7.325  0.0678  0.1518  0.3434
  131OSM   H12S14097   0.786   3.883   7.363  0.8507  0.5331 -0.7825
  131OSM   H12T14098   0.879   3.748   7.290  0.4670  1.5507  0.1991
  131OSM   C13S14099   0.755   3.698   7.452 -0.5595  0.5581 -0.2003
  131OSM   H13S14100   0.847   3.694   7.514 -0.0364 -1.1143 -1.0183
  131OSM   H13T14101   0.726   3.591   7.443  1.0019  0.1280 -0.4832
  131OSM   C14S14102   0.663   3.774   7.553 -0.2953 -0.0108 -0.0377
  131OSM   H14S14103   0.570   3.777   7.491 -2.8645 -0.7164  3.4421
  131OSM   H14T14104   0.695   3.879   7.571  0.9842 -0.5498  0.9703
  131OSM   C15S14105   0.633   3.703   7.681  0.9174 -0.2501 -0.6162
  131OSM   H15S14106   0.724   3.681   7.741  0.3164 -0.9548  0.0640
  131OSM   H15T14107   0.579   3.606   7.678  0.0447 -0.0497  3.0019
  131OSM   C16S14108   0.541   3.791   7.768 -0.3660 -0.2565  0.4507
  131OSM   H16S14109   0.449   3.830   7.720  0.6566 -0.5605 -1.8636
  131OSM   H16T14110   0.603   3.882   7.781  0.5033 -0.1750 -3.2339
  131OSM   C17S14111   0.530   3.738   7.917 -0.3223  0.7708  0.7793
  131OSM   H17S14112   0.628   3.687   7.928  0.7298  1.7211 -2.7513
  131OSM   H17T14113   0.450   3.661   7.914  1.3090 -1.0110 -2.2464
  131OSM   C18S14114   0.508   3.838   8.024 -0.4230 -0.7997 -0.1408
  131OSM   H18S14115   0.603   3.895   8.026  0.7387 -2.6498  0.9123
  131OSM   H18T14116   0.496   3.785   8.121 -0.4487 -2.4363 -1.0007
  131OSM   H18U14117   0.413   3.894   8.011 -0.0073 -0.1766 -0.5597
  131OSM    C1F14118   1.328   3.682   6.504 -0.3450  0.3005  0.1033
  131OSM     OF14119   1.400   3.775   6.475  0.3955  0.5754  0.4686
  131OSM    C2F14120   1.380   3.577   6.595  0.2093 -0.0949 -0.4117
  131OSM    H2F14121   1.490   3.580   6.586  0.2936 -0.0953  0.5207
  131OSM    H2G14122   1.341   3.475   6.576  0.8980 -0.5353  0.4836
  131OSM    C3F14123   1.349   3.619   6.740 -0.1133 -0.0513 -0.0968
  131OSM    H3F14124   1.390   3.719   6.768  0.0165  0.2552 -1.3151
  131OSM    H3G14125   1.408   3.545   6.797  2.3181 -0.6697 -3.1244
  131OSM    C4F14126   1.201   3.619   6.788  0.0477 -0.4329  0.3494
  131OSM    H4F14127   1.153   3.524   6.758 -0.9797 -0.3386  1.6052
  131OSM    H4G14128   1.139   3.697   6.739 -0.2878 -1.4436 -0.8921
  131OSM    C5F14129   1.174   3.609   6.944  0.2481 -0.2084  0.0657
  131OSM    H5F14130   1.197   3.707   6.992 -2.1889  0.0859  0.7565
  131OSM    H5G14131   1.246   3.531   6.978  0.6912 -0.0328 -0.4467
  131OSM    C6F14132   1.033   3.565   6.983 -0.1216 -0.1623  0.4029
  131OSM    H6F14133   0.996   3.535   6.883 -0.6313 -3.1596  1.3680
  131OSM    H6G14134   0.966   3.649   7.011  1.1309  1.0096  0.0061
  131OSM    C7F14135   1.030   3.435   7.068 -0.3450  0.8976 -0.1344
  131OSM    H7F14136   1.112   3.366   7.038 -1.1305  0.0741 -0.4453
  131OSM    H7G14137   0.938   3.385   7.030  0.7209 -0.4459 -1.0848
  131OSM    C8F14138   1.032   3.449   7.214 -0.1074 -0.7234 -0.3623
  131OSM    H8F14139   1.004   3.353   7.261  0.6338 -0.4415  0.7038
  131OSM    H8G14140   0.952   3.514   7.257  0.4301  1.1018 -1.9759
  131OSM    C9F14141   1.170   3.489   7.256  0.2592  0.3060 -0.5216
  131OSM    H9F14142   1.251   3.471   7.184 -0.9624  1.9170 -2.4124
  131OSM   C10F14143   1.194   3.553   7.375 -0.4385  0.5454 -0.2946
  131OSM   H10F14144   1.294   3.587   7.405 -0.8731  1.1937  0.4621
  131OSM   C11F14145   1.089   3.587   7.477  0.2837  0.0357  0.4468
  131OSM   H11F14146   1.009   3.511   7.490  2.4632 -2.0694  2.6216
  131OSM   H11G14147   1.033   3.674   7.438  0.1601 -0.2165  0.0603
  131OSM   C12F14148   1.149   3.620   7.618  0.1994  0.2349  0.1939
  131OSM   H12F14149   1.217   3.707   7.601  2.1141 -1.6222 -2.4314
  131OSM   H12G14150   1.203   3.533   7.661 -0.8957  0.4062  2.0316
  131OSM   C13F14151   1.027   3.646   7.716  0.0660  0.6743  0.7271
  131OSM   H13F14152   0.956   3.563   7.695 -0.2050  1.3924 -1.5172
  131OSM   H13G14153   0.964   3.736   7.695 -0.3616  0.1811 -0.1757
  131OSM   C14F14154   1.085   3.653   7.855 -0.1490 -0.6016  0.2714
  131OSM   H14F14155   1.136   3.751   7.865  1.2239 -1.2260 -0.3295
  131OSM   H14G14156   1.155   3.568   7.865 -0.3275 -0.5953  1.7500
  131OSM   C15F14157   0.973   3.641   7.960  0.5295 -0.3461  0.6632
  131OSM   H15F14158   0.906   3.564   7.916  2.4189 -0.4110 -2.3219
  131OSM   H15G14159   0.904   3.728   7.964  1.2484  0.1889  1.8965
  131OSM   C16F14160   1.021   3.609   8.097 -0.3308 -0.1147 -0.5154
  131OSM   H16F14161   1.084   3.694   8.132 -0.7417 -0.9233  2.4446
  131OSM   H16G14162   1.084   3.518   8.097 -0.3460 -0.1694 -2.8649
  131OSM   C17F14163   0.907   3.582   8.200 -0.4088 -0.2161  0.8690
  131OSM   H17F14164   0.819   3.577   8.132 -0.1314  2.9555  0.1364
  131OSM   H17G14165   0.900   3.676   8.258  0.5481  2.4375 -2.9546
  131OSM   C18F14166   0.904   3.461   8.293  0.3073 -0.4935  0.1708
  131OSM   H18F14167   0.972   3.496   8.374  1.5655  1.0068 -1.4361
  131OSM   H18G14168   0.943   3.369   8.245  1.8639  1.6873 -3.1428
  131OSM   H18H14169   0.802   3.444   8.332 -0.0793 -0.9732 -0.9871
  132OSM      N14170   1.389   1.840   6.318  0.6502  0.0030 -0.4553
  132OSM    C1514171   1.334   1.827   6.185  0.2541  0.9493  0.4603
  132OSM   H15A14172   1.396   1.885   6.118  1.2342 -0.3865  0.1627
  132OSM   H15B14173   1.231   1.859   6.180 -0.4861 -1.3137 -0.1845
  132OSM   H15C14174   1.335   1.722   6.159 -0.3428  1.0584 -0.0254
  132OSM    C1414175   1.531   1.821   6.312  0.0631 -0.1435  0.3813
  132OSM   H14A14176   1.567   1.784   6.406  1.7954 -0.2538 -0.2706
  132OSM   H14B14177   1.584   1.912   6.285 -1.1747  1.2321  2.3386
  132OSM   H14C14178   1.547   1.740   6.242 -1.0164 -0.5651  0.6079
  132OSM    C1314179   1.365   1.975   6.365 -0.0206  0.3719 -0.2381
  132OSM   H13A14180   1.270   2.022   6.346 -0.7605 -1.5414 -1.5387
  132OSM   H13B14181   1.430   2.039   6.307  3.0339  0.1241  2.5850
  132OSM   H13C14182   1.401   1.984   6.467  1.0010 -0.0215 -0.5519
  132OSM    C1214183   1.313   1.740   6.397  0.0106  0.2264  0.2344
  132OSM   H12A14184   1.344   1.749   6.500 -0.2961 -0.4919  0.4011
  132OSM   H12B14185   1.328   1.640   6.357 -1.1793  0.5554 -1.1274
  132OSM    C1114186   1.160   1.763   6.399 -0.5705 -0.2147  0.0929
  132OSM   H11A14187   1.134   1.748   6.292  1.8461  0.8755 -0.7228
  132OSM   H11B14188   1.127   1.866   6.426 -0.2376 -0.0478 -0.1252
  132OSM      P14189   0.953   1.611   6.447  0.3234  0.5329  0.3993
  132OSM    O1314190   0.921   1.641   6.304  0.7042  0.4849  0.1393
  132OSM    O1414191   0.943   1.468   6.484 -0.2403  0.3722  0.1683
  132OSM    O1114192   0.851   1.694   6.536 -0.3568 -0.2290 -0.3938
  132OSM    O1214193   1.103   1.661   6.480  0.5229 -0.1364 -0.0512
  132OSM    C1S14194   0.868   1.701   6.679 -0.0785  0.2612  0.0164
  132OSM    H1S14195   0.945   1.779   6.697  0.5873 -0.4231  0.1964
  132OSM    H1T14196   0.896   1.602   6.721  2.2741  0.3169 -1.2384
  132OSM     NF14197   0.779   1.794   6.900  0.1750  0.1648  0.3271
  132OSM    HNF14198   0.785   1.723   6.970  0.0236 -1.9195 -1.6795
  132OSM    C2S14199   0.738   1.737   6.767  0.5086 -0.4099 -0.4590
  132OSM    H2S14200   0.686   1.821   6.715  2.4035  2.1630  1.5558
  132OSM    C3S14201   0.652   1.612   6.776  0.1216 -0.3025  0.0633
  132OSM    H3S14202   0.702   1.522   6.820  2.0264  0.1908 -0.9861
  132OSM     O314203   0.627   1.555   6.647  0.1791  0.3012 -0.7707
  132OSM    HO314204   0.671   1.622   6.594  0.9081  1.3160  1.0190
  132OSM    C4S14205   0.524   1.633   6.853  0.2151  0.3710 -0.1239
  132OSM    H4S14206   0.468   1.721   6.819 -1.6688 -0.3580  0.9314
  132OSM    C5S14207   0.472   1.554   6.949 -0.5031  0.0586 -0.3030
  132OSM    H5S14208   0.537   1.465   6.958 -0.1820  0.1620 -1.4817
  132OSM    C6S14209   0.350   1.562   7.026  0.8987  0.5199 -0.2071
  132OSM    H6S14210   0.295   1.469   7.002  1.0722 -0.2647  2.1257
  132OSM    H6T14211   0.282   1.645   6.997 -1.0672 -1.5063 -1.7154
  132OSM    C7S14212   0.385   1.567   7.177  0.0827  0.2474  0.7035
  132OSM    H7S14213   0.443   1.660   7.196  0.3238 -0.1877  2.2500
  132OSM    H7T14214   0.448   1.480   7.205  1.2542  0.3178 -1.4953
  132OSM    C8S14215   0.261   1.568   7.265  0.0728 -0.3603 -0.4381
  132OSM    H8S14216   0.210   1.470   7.268  0.5966 -0.6294  0.9772
  132OSM    H8T14217   0.186   1.643   7.231 -0.1502  0.0255  0.8136
  132OSM    C9S14218   0.309   1.621   7.404 -0.3599 -0.2482 -0.7994
  132OSM    H9S14219   0.343   1.726   7.404 -4.7193  1.4538  2.3180
  132OSM    H9T14220   0.385   1.545   7.432  0.4454  0.8088 -0.0737
  132OSM   C10S14221   0.199   1.633   7.511  0.5263  0.5338  0.4679
  132OSM   H10S14222   0.121   1.557   7.488  1.1508 -0.4690  1.6010
  132OSM   H10T14223   0.145   1.730   7.505  0.4514  0.4768  0.2068
  132OSM   C11S14224   0.256   1.618   7.651  0.1550  0.0552 -0.2010
  132OSM   H11S14225   0.310   1.711   7.679 -0.3344 -0.1654  1.6702
  132OSM   H11T14226   0.325   1.531   7.652 -1.0738 -0.9616 -0.2408
  132OSM   C12S14227   0.145   1.589   7.763  0.0571  0.2139 -0.0367
  132OSM   H12S14228   0.100   1.488   7.757 -2.0377  1.1573 -1.0878
  132OSM   H12T14229   0.064   1.660   7.736 -0.9261 -1.0678 -0.5213
  132OSM   C13S14230   0.191   1.626   7.901 -0.3324 -0.5166  0.5041
  132OSM   H13S14231   0.207   1.736   7.904 -2.6013 -0.1321  0.4317
  132OSM   H13T14232   0.285   1.577   7.933 -1.0359 -1.4088  1.2763
  132OSM   C14S14233   0.088   1.582   8.006  0.3448  0.3171 -0.7814
  132OSM   H14S14234   0.096   1.472   8.009 -1.1338  0.2051  1.5061
  132OSM   H14T14235  -0.011   1.608   7.962 -1.0555  2.4010  3.1200
  132OSM   C15S14236   0.107   1.643   8.145 -0.0266 -0.3298  0.5332
  132OSM   H15S14237   0.068   1.747   8.147 -1.1144 -0.6961 -0.5023
  132OSM   H15T14238   0.216   1.646   8.169 -0.2305  2.1374  1.4677
  132OSM   C16S14239   0.041   1.558   8.253 -0.5094 -0.2783 -0.0890
  132OSM   H16S14240   0.086   1.456   8.257  1.9649  0.7074 -1.0682
  132OSM   H16T14241  -0.064   1.546   8.219 -0.3359 -0.2421 -0.6586
  132OSM   C17S14242   0.049   1.601   8.399  0.4060  0.0536  0.3951
  132OSM   H17S14243   0.004   1.703   8.400 -2.6361 -1.0937 -2.3517
  132OSM   H17T14244   0.152   1.597   8.439  0.6129  0.6461 -0.0736
  132OSM   C18S14245  -0.037   1.513   8.490  0.5027 -0.7870  0.0570
  132OSM   H18S14246  -0.043   1.550   8.595 -1.1260  0.9923 -0.6090
  132OSM   H18T14247  -0.012   1.405   8.482  2.1615 -0.4065 -0.3538
  132OSM   H18U14248  -0.147   1.517   8.474  0.3802 -0.5389  0.8994
  132OSM    C1F14249   0.832   1.913   6.925  0.4677  0.4413 -0.2139
  132OSM     OF14250   0.847   2.000   6.836 -0.2796 -0.3099 -0.4922
  132OSM    C2F14251   0.880   1.933   7.069  0.1005  0.4390  0.4340
  132OSM    H2F14252   0.924   1.842   7.114 -0.6820  0.3559  1.0680
  132OSM    H2G14253   0.804   1.958   7.146  1.1664 -1.2191  2.1194
  132OSM    C3F14254   0.986   2.040   7.084  0.1468 -0.3245  0.1568
  132OSM    H3F14255   0.937   2.135   7.055  0.1144 -0.3622  0.0893
  132OSM    H3G14256   1.069   2.024   7.012  2.0819  0.5432  2.0664
  132OSM    C4F14257   1.060   2.050   7.221  0.0720 -0.0409  0.2454
  132OSM    H4F14258   1.111   1.954   7.243  0.3457  0.0785  0.1345
  132OSM    H4G14259   0.977   2.050   7.295 -1.0654 -1.8486 -0.9416
  132OSM    C5F14260   1.155   2.171   7.226 -0.0615 -0.4086  0.6385
  132OSM    H5F14261   1.093   2.261   7.205  0.3499 -0.1404  0.5605
  132OSM    H5G14262   1.221   2.159   7.137  0.2137 -0.8663  0.9034
  132OSM    C6F14263   1.229   2.175   7.351 -0.5004  0.1431 -0.8320
  132OSM    H6F14264   1.310   2.250   7.346 -2.0576  2.1064  1.2434
  132OSM    H6G14265   1.281   2.081   7.381  1.2316  1.4271  0.3502
  132OSM    C7F14266   1.142   2.210   7.473 -0.3590 -0.0410  0.3825
  132OSM    H7F14267   1.066   2.134   7.500 -1.0190 -0.8323 -3.1501
  132OSM    H7G14268   1.081   2.299   7.445 -0.6170 -0.5474 -0.7141
  132OSM    C8F14269   1.229   2.229   7.601  0.3614 -0.0876 -0.6132
  132OSM    H8F14270   1.279   2.328   7.599  0.5777 -0.1442  0.8078
  132OSM    H8G14271   1.302   2.146   7.597 -2.7475 -3.1890  1.2757
  132OSM    C9F14272   1.145   2.221   7.732  0.8466  0.3606 -1.1274
  132OSM    H9F14273   1.055   2.284   7.728 -0.6046 -1.5712 -0.4850
  132OSM   C10F14274   1.168   2.149   7.846  0.3860 -0.5364 -0.8654
  132OSM   H10F14275   1.114   2.168   7.940  3.3715 -0.0622  0.8817
  132OSM   C11F14276   1.284   2.055   7.877  0.0969  0.1198  0.2893
  132OSM   H11F14277   1.371   2.061   7.809 -0.6892  0.4144 -0.7098
  132OSM   H11G14278   1.252   1.952   7.852 -0.6333  0.1138  1.1796
  132OSM   C12F14279   1.317   2.052   8.024 -1.1189  0.7178 -0.5310
  132OSM   H12F14280   1.270   1.959   8.061  0.9410 -0.7857 -1.4641
  132OSM   H12G14281   1.281   2.143   8.076 -1.1294 -0.5444  1.8079
  132OSM   C13F14282   1.475   2.050   8.049  0.0127  0.5446  0.3146
  132OSM   H13F14283   1.524   1.960   8.005 -2.2285 -0.4265 -0.3400
  132OSM   H13G14284   1.486   2.034   8.159 -1.4653 -1.8788  0.1785
  132OSM   C14F14285   1.542   2.183   8.018 -0.2192  0.5715 -0.3761
  132OSM   H14F14286   1.618   2.179   8.100 -2.0225 -0.8676  1.3418
  132OSM   H14G14287   1.483   2.275   8.036 -0.5386 -0.0707  2.4660
  132OSM   C15F14288   1.609   2.195   7.881  0.7583  0.3913  0.4636
  132OSM   H15F14289   1.540   2.204   7.794  1.6112  1.4018 -0.1314
  132OSM   H15G14290   1.676   2.109   7.859  1.8188  1.5779 -1.2297
  132OSM   C16F14291   1.696   2.315   7.862  0.3270  0.0678 -0.4246
  132OSM   H16F14292   1.766   2.325   7.948 -0.7109  0.2134  0.4279
  132OSM   H16G14293   1.627   2.400   7.877  0.5450 -0.0883  1.7773
  132OSM   C17F14294   1.784   2.319   7.734  0.3775  0.5499  0.0712
  132OSM   H17F14295   1.849   2.229   7.728 -0.2489  0.1663 -1.3455
  132OSM   H17G14296   1.847   2.410   7.737 -0.7318  1.2977  1.7020
  132OSM   C18F14297   1.701   2.312   7.602  0.4331 -0.2906  0.1755
  132OSM   H18F14298   1.681   2.207   7.572 -0.1869  0.0650 -0.6960
  132OSM   H18G14299   1.759   2.359   7.520  1.6613 -2.3938 -0.2330
  132OSM   H18H14300   1.609   2.373   7.609  1.4651  1.1937  1.7144
  133SAPE     N14301   2.912   0.343  10.892  0.6388  0.0999 -0.1486
  133SAPE   HN114302   2.990   0.315  10.954  0.4866  0.3059  0.1380
  133SAPE   HN214303   2.890   0.251  10.849 -0.2164 -0.3107  1.1192
  133SAPE   HN314304   2.953   0.418  10.832 -0.1937 -0.9572 -2.1374
  133SAPE   C1214305   2.789   0.363  10.976  0.6751 -0.6383 -0.4477
  133SAPE  H12A14306   2.817   0.418  11.068  2.0901  2.9595 -2.7975
  133SAPE  H12B14307   2.741   0.269  11.009 -2.7995  1.5429  1.3746
  133SAPE   C1114308   2.688   0.449  10.895  0.4534 -0.6479  0.3394
  133SAPE  H11A14309   2.686   0.414  10.790 -0.3917  2.2199 -0.7012
  133SAPE  H11B14310   2.729   0.550  10.871 -0.4598 -0.1162  0.9615
  133SAPE     P14311   2.431   0.371  10.941 -0.7140  0.0348 -0.4639
  133SAPE   O1314312   2.479   0.241  11.005  0.1324 -0.7482  0.3746
  133SAPE   O1414313   2.306   0.419  11.004 -0.3769 -0.1367 -0.2818
  133SAPE   O1214314   2.552   0.476  10.949  0.7002  0.0074 -0.2564
  133SAPE   O1114315   2.410   0.337  10.790 -0.3055 -0.3272  0.3210
  133SAPE    C114316   2.322   0.405  10.701 -0.6293 -0.3028  0.5115
  133SAPE    HA14317   2.268   0.326  10.646 -0.0271 -0.0404 -0.4917
  133SAPE    HB14318   2.246   0.462  10.759  0.2332  2.9482 -1.2542
  133SAPE    C214319   2.396   0.487  10.590 -0.2911  0.9168  0.1727
  133SAPE    HS14320   2.340   0.482  10.494  0.1909 -2.2739 -0.0549
  133SAPE   O2114321   2.526   0.424  10.557  0.3326  0.1628 -0.0814
  133SAPE   C2114322   2.523   0.300  10.524  0.3555  0.2226 -0.5549
  133SAPE   O2214323   2.418   0.235  10.506 -0.2757 -0.1365 -0.3499
  133SAPE   C2214324   2.664   0.246  10.490 -0.3516 -0.6162  0.2039
  133SAPE   H2R14325   2.730   0.333  10.509  1.4173 -2.0389  0.8448
  133SAPE   H2S14326   2.679   0.163  10.562 -0.9115 -1.5084 -0.6832
  133SAPE    C314327   2.413   0.635  10.638 -1.0249  0.1072  0.0876
  133SAPE    HX14328   2.464   0.635  10.737 -0.6423 -1.2706 -0.0903
  133SAPE    HY14329   2.316   0.680  10.666 -1.9957 -1.0931 -1.1877
  133SAPE   O3114330   2.478   0.713  10.532  0.2079 -0.0613  0.0187
  133SAPE   C3114331   2.397   0.774  10.446  0.0101 -0.5782 -0.0675
  133SAPE   O3214332   2.272   0.771  10.452  0.2425  0.1517  0.6258
  133SAPE   C3214333   2.478   0.829  10.334 -0.4527  0.3289  0.1323
  133SAPE   H2X14334   2.567   0.880  10.377  0.4928  1.2428 -2.6594
  133SAPE   H2Y14335   2.428   0.911  10.278  0.9622 -0.5404 -2.6336
  133SAPE   C2314336   2.681   0.205  10.345 -0.4393 -0.1803 -0.4364
  133SAPE   H3R14337   2.620   0.115  10.325  1.4573 -0.9963 -2.9217
  133SAPE   H3S14338   2.783   0.169  10.319 -0.9710 -1.0833 -1.3300
  133SAPE   C2414339   2.650   0.320  10.243  0.7683  0.1745 -0.1976
  133SAPE   H4R14340   2.548   0.362  10.254  0.0914 -0.9603 -1.8162
  133SAPE   H4S14341   2.647   0.269  10.144  1.1618 -1.9187  0.8153
  133SAPE   C2514342   2.746   0.438  10.230  0.2231  0.0952 -0.3102
  133SAPE   H5R14343   2.760   0.495  10.323 -4.1987 -0.4552  0.9006
  133SAPE   C2614344   2.815   0.465  10.111 -0.3723  1.1717  0.0669
  133SAPE   H6R14345   2.894   0.542  10.113  2.6076 -1.6298  2.0991
  133SAPE   C2714346   2.802   0.380   9.982 -0.1990  0.0430 -0.8704
  133SAPE   H7R14347   2.850   0.440   9.902  0.6125 -1.4142 -1.5119
  133SAPE   H7S14348   2.694   0.372   9.957 -0.1503 -1.3733 -0.7114
  133SAPE   C2814349   2.851   0.239   9.981 -0.7372 -0.0310  0.1271
  133SAPE   H8R14350   2.874   0.215  10.086 -1.9897 -1.1654  0.1666
  133SAPE   C2914351   2.846   0.148   9.888  0.3220  0.3611 -0.2719
  133SAPE   H9R14352   2.886   0.050   9.916 -0.1309  0.7112  1.8064
  133SAPE  C21014353   2.786   0.171   9.754 -0.2029 -0.0138  0.0460
  133SAPE  H10R14354   2.799   0.280   9.734 -0.7681  0.2684  1.1183
  133SAPE  H10S14355   2.681   0.138   9.766 -0.5902  0.5101 -1.6788
  133SAPE  C21114356   2.854   0.076   9.653 -0.4059  0.1363  0.3354
  133SAPE  H11R14357   2.902  -0.006   9.708  0.6265  0.9809  0.7391
  133SAPE  C21214358   2.851   0.084   9.518 -0.0627  0.1869  0.1964
  133SAPE  H12R14359   2.909   0.011   9.460  1.4329  0.2405  1.5346
  133SAPE  C21314360   2.782   0.194   9.447  0.1896 -0.2927 -0.0872
  133SAPE  H13R14361   2.835   0.217   9.353 -1.2290 -1.0602 -1.1231
  133SAPE  H13S14362   2.774   0.285   9.510 -1.6909 -0.7327  0.3740
  133SAPE  C21414363   2.641   0.149   9.406  0.0087 -0.7792  0.1311
  133SAPE  H14R14364   2.565   0.179   9.480 -0.7675 -1.5039 -0.3544
  133SAPE  C21514365   2.593   0.087   9.293 -0.2777 -0.6298  0.4335
  133SAPE  H15R14366   2.487   0.066   9.276 -1.2830  1.5909  3.1950
  133SAPE  C21614367   2.693   0.067   9.180 -0.5782 -0.1587  0.2953
  133SAPE  H16R14368   2.795   0.054   9.221 -0.0585 -2.9189 -1.6144
  133SAPE  H16S14369   2.689   0.149   9.105  0.8728  0.8499  1.2713
  133SAPE  C21714370   2.670  -0.067   9.107 -0.6217 -0.0030 -0.3997
  133SAPE  H17R14371   2.564  -0.086   9.080 -0.5610  2.2258 -2.5535
  133SAPE  H17S14372   2.711  -0.153   9.165  0.8260 -0.2481 -1.7172
  133SAPE  C21814373   2.741  -0.071   8.971 -0.0882  0.0428  0.1823
  133SAPE  H18R14374   2.849  -0.050   8.985  0.0512 -0.3131 -0.3261
  133SAPE  H18S14375   2.696   0.017   8.921 -0.6717 -1.4945 -2.1572
  133SAPE  C21914376   2.738  -0.205   8.897  0.1896  0.2626  0.2079
  133SAPE  H19R14377   2.716  -0.279   8.977 -2.3390 -0.2162 -0.8272
  133SAPE  H19S14378   2.829  -0.231   8.839 -1.2083 -1.1121 -1.4915
  133SAPE  C22014379   2.618  -0.210   8.797 -0.1416  0.2711  0.2366
  133SAPE  H20R14380   2.634  -0.298   8.732 -0.3850  1.9383 -2.1810
  133SAPE  H20S14381   2.608  -0.116   8.740 -0.9089  0.8206  1.2446
  133SAPE  H20T14382   2.525  -0.219   8.857  0.8585  0.9720  2.0072
  133SAPE   C3314383   2.521   0.715  10.239 -0.1090 -0.2736 -0.3479
  133SAPE   H3X14384   2.557   0.626  10.295 -0.3080 -1.9689 -2.8051
  133SAPE   H3Y14385   2.619   0.732  10.190  1.1422  0.6102  2.2181
  133SAPE   C3414386   2.412   0.662  10.147 -0.2951 -0.3385 -0.6136
  133SAPE   H4X14387   2.359   0.749  10.103 -0.3350 -0.3661 -0.6195
  133SAPE   H4Y14388   2.339   0.595  10.196 -0.4383  1.4528  1.7725
  133SAPE   C3514389   2.461   0.587  10.023  0.7587 -0.0928  0.0078
  133SAPE   H5X14390   2.375   0.556   9.961 -0.9122 -0.0417  2.1724
  133SAPE   H5Y14391   2.535   0.506  10.042  1.6927  1.3826  3.4772
  133SAPE   C3614392   2.528   0.687   9.929  0.3506  1.0270  0.1221
  133SAPE   H6X14393   2.609   0.739   9.985 -0.5886  0.4276  2.1114
  133SAPE   H6Y14394   2.446   0.749   9.887 -1.9427 -0.7162  1.7631
  133SAPE   C3714395   2.595   0.617   9.806  0.0480 -0.3248  0.3848
  133SAPE   H7X14396   2.521   0.540   9.776 -0.8516  0.4369  0.6083
  133SAPE   H7Y14397   2.687   0.560   9.833  0.9457  0.4751 -0.8746
  133SAPE   C3814398   2.629   0.704   9.681 -0.6931 -0.7659 -0.1221
  133SAPE   H8X14399   2.716   0.770   9.699 -2.0384  1.4402 -1.1621
  133SAPE   H8Y14400   2.556   0.786   9.663  0.5456  0.6083  0.8512
  133SAPE   C3914401   2.649   0.616   9.556 -0.2169  0.1557  0.3684
  133SAPE   H9X14402   2.559   0.558   9.527 -0.6770  0.1040  1.8454
  133SAPE   H9Y14403   2.728   0.540   9.574  1.3032  1.4282 -0.5744
  133SAPE  C31014404   2.704   0.711   9.446  0.2136  0.2230  0.6933
  133SAPE  H10X14405   2.807   0.749   9.463  0.4421  0.2022 -0.5604
  133SAPE  H10Y14406   2.632   0.789   9.417 -0.1529 -0.8970 -1.6646
  133SAPE  C31114407   2.725   0.621   9.319 -0.0731  0.0930  0.6965
  133SAPE  H11X14408   2.629   0.580   9.281 -0.0149  1.6747 -1.3318
  133SAPE  H11Y14409   2.793   0.547   9.365  0.5424 -0.8051 -1.5172
  133SAPE  C31214410   2.795   0.679   9.189  0.1114  0.3191 -0.8379
  133SAPE  H12X14411   2.896   0.717   9.214 -0.0298  0.2909 -0.2248
  133SAPE  H12Y14412   2.738   0.761   9.140 -0.0737 -1.0982 -3.1596
  133SAPE  C31314413   2.832   0.566   9.090 -0.2639 -0.3803 -0.9595
  133SAPE  H13X14414   2.739   0.514   9.060  0.5405 -3.4763  1.3294
  133SAPE  H13Y14415   2.903   0.495   9.138 -0.6948 -0.0956  0.1121
  133SAPE  C31414416   2.920   0.622   8.974  0.2022 -0.0746 -0.3245
  133SAPE  H14X14417   3.021   0.662   8.999 -0.4389  3.5241 -2.7807
  133SAPE  H14Y14418   2.866   0.715   8.948  1.7372  1.2702  1.0478
  133SAPE  C31514419   2.935   0.528   8.861 -0.1047  0.3771  0.3298
  133SAPE  H15X14420   2.981   0.431   8.888 -0.1960  0.1531 -0.3021
  133SAPE  H15Y14421   3.009   0.570   8.790  0.9832 -0.0987  1.1544
  133SAPE  C31614422   2.810   0.503   8.779  0.5258  0.8955  0.2519
  133SAPE  H16X14423   2.791   0.601   8.729  0.2943  1.2628  1.0414
  133SAPE  H16Y14424   2.727   0.497   8.853  0.8373  1.6842  0.6710
  133SAPE  C31714425   2.814   0.384   8.680  0.7387  0.2558 -0.4174
  133SAPE  H17X14426   2.900   0.399   8.611  1.2361  0.3403  0.2068
  133SAPE  H17Y14427   2.714   0.389   8.632  0.1441 -1.3280  0.5847
  133SAPE  C31814428   2.820   0.244   8.742 -0.5638 -0.1635 -1.0202
  133SAPE  H18X14429   2.786   0.160   8.677 -0.6141 -0.9494  0.0059
  133SAPE  H18Y14430   2.756   0.244   8.832 -1.4480  0.5934 -1.6283
  133SAPE  H18Z14431   2.924   0.210   8.765  0.2205  0.9520 -2.6954
  134SAPE     N14432   0.523   1.082  10.659 -0.0580  0.1364 -0.0137
  134SAPE   HN114433   0.495   1.182  10.649  1.8347  0.5571 -1.8592
  134SAPE   HN214434   0.626   1.082  10.670 -0.1540 -1.9297  1.3800
  134SAPE   HN314435   0.498   1.044  10.565  0.9323  1.7029 -0.9674
  134SAPE   C1214436   0.454   1.008  10.768 -0.2366 -0.0423 -0.4258
  134SAPE  H12A14437   0.492   1.055  10.861 -0.8301  0.3583 -0.3788
  134SAPE  H12B14438   0.491   0.903  10.760 -0.3662 -0.1883  0.6631
  134SAPE   C1114439   0.302   1.016  10.750  0.3949  0.7568 -0.1645
  134SAPE  H11A14440   0.256   0.947  10.824  1.9724  0.5266  0.6415
  134SAPE  H11B14441   0.259   0.964  10.662  0.2701 -2.7205  1.7769
  134SAPE     P14442   0.086   1.153  10.763 -0.1152 -0.2848  0.1458
  134SAPE   O1314443   0.037   1.076  10.879 -0.3794  0.3193 -0.0813
  134SAPE   O1414444   0.036   1.301  10.756  0.2142  0.5443  0.5290
  134SAPE   O1214445   0.250   1.152  10.774 -0.0894  0.1901 -0.2669
  134SAPE   O1114446   0.047   1.064  10.639 -0.1923  0.3307  0.4907
  134SAPE    C114447   0.090   1.107  10.503  0.0375  0.0647 -0.1597
  134SAPE    HA14448   0.058   1.213  10.495  1.1097  0.4080 -0.1441
  134SAPE    HB14449   0.199   1.093  10.486  0.1712 -0.8152  1.2548
  134SAPE    C214450   0.001   1.032  10.400 -0.0365  0.3350  0.2045
  134SAPE    HS14451   0.025   0.925  10.417 -0.1367  0.2053 -0.4534
  134SAPE   O2114452   0.022   1.078  10.262 -0.9306 -0.1034  0.4546
  134SAPE   C2114453   0.134   1.024  10.211 -0.2425  0.5816 -0.7298
  134SAPE   O2214454   0.212   0.945  10.264  0.2563 -0.7967  0.1153
  134SAPE   C2214455   0.149   1.081  10.073  0.0095 -0.1041 -0.6939
  134SAPE   H2R14456   0.134   0.999   9.999 -0.6225  0.9560 -1.7960
  134SAPE   H2S14457   0.070   1.158  10.061  0.1083  0.6343  2.4841
  134SAPE    C314458  -0.147   1.048  10.427 -0.3123 -0.2126 -0.3525
  134SAPE    HX14459  -0.175   1.153  10.402 -0.0817 -0.1710 -0.4314
  134SAPE    HY14460  -0.169   1.026  10.534 -1.5406  0.2895 -0.4805
  134SAPE   O3114461  -0.224   0.967  10.344 -0.3800  0.0742 -0.3176
  134SAPE   C3114462  -0.221   0.830  10.355 -0.6452 -0.2471 -0.5793
  134SAPE   O3214463  -0.155   0.768  10.437 -0.3657 -0.0920 -0.0729
  134SAPE   C3214464  -0.313   0.771  10.257 -0.3978  0.3635  0.8267
  134SAPE   H2X14465  -0.341   0.855  10.191 -1.1415 -0.4734  0.0461
  134SAPE   H2Y14466  -0.408   0.731  10.300 -0.8519  0.5304 -0.0085
  134SAPE   C2314467   0.288   1.143  10.054 -0.1456 -0.3607 -0.6560
  134SAPE   H3R14468   0.375   1.085  10.089  1.5073  1.5250 -1.4499
  134SAPE   H3S14469   0.295   1.242  10.104  0.1989 -1.5745  1.8497
  134SAPE   C2414470   0.327   1.171   9.909  0.7010  0.0343  0.5117
  134SAPE   H4R14471   0.420   1.232   9.905  0.9315 -0.3213  0.3945
  134SAPE   H4S14472   0.244   1.233   9.869  0.7161  0.4287  1.0850
  134SAPE   C2514473   0.340   1.050   9.827 -0.4660  0.3603  0.3177
  134SAPE   H5R14474   0.442   1.011   9.839  0.0261  1.8820  1.3732
  134SAPE   C2614475   0.258   0.999   9.736  0.0055 -0.4296  0.7105
  134SAPE   H6R14476   0.276   0.900   9.692  0.1068 -0.7811  1.5141
  134SAPE   C2714477   0.123   1.061   9.687  0.4484 -0.3822 -0.5962
  134SAPE   H7R14478   0.159   1.118   9.599  1.7821  1.6921  1.1811
  134SAPE   H7S14479   0.084   1.132   9.763  0.8633  0.4100 -1.1118
  134SAPE   C2814480   0.016   0.958   9.655 -0.6417 -0.3756  0.6533
  134SAPE   H8R14481   0.038   0.860   9.700 -0.5325 -0.4558  0.4263
  134SAPE   C2914482  -0.090   0.972   9.576 -0.4421 -0.2040  0.2032
  134SAPE   H9R14483  -0.167   0.893   9.579  0.8313 -1.5073 -0.4862
  134SAPE  C21014484  -0.130   1.100   9.497  0.3836  0.1906 -0.4033
  134SAPE  H10R14485  -0.147   1.052   9.398 -1.3869 -1.0585  0.4677
  134SAPE  H10S14486  -0.044   1.167   9.479  0.8045 -0.1552  0.2736
  134SAPE  C21114487  -0.244   1.176   9.557  0.1832 -0.3545 -0.0220
  134SAPE  H11R14488  -0.236   1.193   9.665 -1.2178 -0.4463  0.1040
  134SAPE  C21214489  -0.353   1.226   9.500 -0.4594  0.1026  0.3562
  134SAPE  H12R14490  -0.412   1.290   9.566 -0.0112  2.1839 -1.1597
  134SAPE  C21314491  -0.389   1.206   9.358 -0.0705 -0.2042  0.2723
  134SAPE  H13R14492  -0.295   1.215   9.300  2.9232  0.8442  4.8116
  134SAPE  H13S14493  -0.461   1.282   9.319  1.4555  0.4648 -1.3738
  134SAPE  C21414494  -0.448   1.069   9.338 -0.1201  0.5419  0.8540
  134SAPE  H14R14495  -0.398   0.991   9.395  0.7111  1.0918  0.8986
  134SAPE  C21514496  -0.551   1.034   9.258 -0.2628 -0.0600  0.1070
  134SAPE  H15R14497  -0.603   0.937   9.266 -1.9643  0.8382  0.1907
  134SAPE  C21614498  -0.634   1.131   9.180  0.3347  0.7530  0.0199
  134SAPE  H16R14499  -0.603   1.237   9.196  0.6820  0.5515  0.7447
  134SAPE  H16S14500  -0.739   1.116   9.213  0.4269  0.8226  0.3545
  134SAPE  C21714501  -0.632   1.113   9.027 -0.5017  0.7116  0.7609
  134SAPE  H17R14502  -0.525   1.121   9.000 -0.9659 -0.4404 -1.7059
  134SAPE  H17S14503  -0.674   1.206   8.982 -0.6106 -0.6110 -2.1109
  134SAPE  C21814504  -0.700   0.993   8.969  0.4358 -0.1089  0.2401
  134SAPE  H18R14505  -0.805   1.003   9.005  0.1702  0.2092 -0.5775
  134SAPE  H18S14506  -0.658   0.900   9.012 -0.9326 -1.0236 -0.3065
  134SAPE  C21914507  -0.708   0.984   8.817  0.1600 -0.0521 -0.1437
  134SAPE  H19R14508  -0.606   0.952   8.787  0.0830 -0.6071  0.1620
  134SAPE  H19S14509  -0.726   1.079   8.763  1.0984  0.0791 -0.2359
  134SAPE  C22014510  -0.801   0.874   8.765  0.2241 -0.1635  0.1508
  134SAPE  H20R14511  -0.794   0.863   8.655 -1.0378  1.0115 -0.0778
  134SAPE  H20S14512  -0.908   0.896   8.784  0.2052  0.2573 -0.4121
  134SAPE  H20T14513  -0.781   0.776   8.813  0.8453 -0.7191 -1.2111
  134SAPE   C3314514  -0.236   0.667  10.171 -0.0521  0.0284  0.3240
  134SAPE   H3X14515  -0.307   0.623  10.097 -1.4186 -0.8278  2.0750
  134SAPE   H3Y14516  -0.207   0.588  10.243 -1.7569 -0.1658  0.8337
  134SAPE   C3414517  -0.110   0.715  10.084  0.2474 -0.3253  0.3003
  134SAPE   H4X14518  -0.077   0.640  10.009  0.3810  0.2154 -0.1833
  134SAPE   H4Y14519  -0.023   0.721  10.154  0.3797  2.4322 -0.0151
  134SAPE   C3514520  -0.129   0.845  10.003 -0.1956 -0.4390 -0.1417
  134SAPE   H5X14521  -0.044   0.857   9.932 -0.1520 -0.6033 -0.1173
  134SAPE   H5Y14522  -0.141   0.934  10.068 -0.8026 -0.0853 -0.7281
  134SAPE   C3614523  -0.251   0.841   9.917 -0.2457  0.4621 -0.7059
  134SAPE   H6X14524  -0.257   0.934   9.856 -0.2803  1.2022  0.3946
  134SAPE   H6Y14525  -0.334   0.847   9.991 -0.2822 -1.9081 -0.4817
  134SAPE   C3714526  -0.262   0.718   9.827 -0.4403  0.0603 -0.1237
  134SAPE   H7X14527  -0.267   0.626   9.889 -2.2569  0.7594  0.8485
  134SAPE   H7Y14528  -0.166   0.707   9.771 -0.2307  0.5806  0.1291
  134SAPE   C3814529  -0.379   0.736   9.725  0.1118  0.1471  0.7649
  134SAPE   H8X14530  -0.367   0.827   9.663 -1.2077 -0.5370 -0.5489
  134SAPE   H8Y14531  -0.463   0.758   9.795  0.3455  0.0624  1.0745
  134SAPE   C3914532  -0.417   0.607   9.652 -0.1014  0.5445  0.1807
  134SAPE   H9X14533  -0.514   0.631   9.604  1.0714  3.7701 -0.8798
  134SAPE   H9Y14534  -0.429   0.533   9.734 -1.9925  0.5669 -0.0478
  134SAPE  C31014535  -0.314   0.559   9.544  0.7033 -0.4305  0.6961
  134SAPE  H10X14536  -0.345   0.467   9.489 -0.8667  0.2088  0.4604
  134SAPE  H10Y14537  -0.208   0.544   9.573  0.6468 -2.1146  0.1240
  134SAPE  C31114538  -0.327   0.661   9.427  0.1347 -0.5810  0.0237
  134SAPE  H11X14539  -0.312   0.759   9.477 -0.9655 -0.0438 -0.6634
  134SAPE  H11Y14540  -0.431   0.663   9.388  0.8474  0.1806 -1.9636
  134SAPE  C31214541  -0.237   0.646   9.307 -0.0992  0.0105  0.2581
  134SAPE  H12X14542  -0.276   0.706   9.222  0.2954  0.2699  0.2564
  134SAPE  H12Y14543  -0.234   0.539   9.279 -2.4250  0.1092 -0.5617
  134SAPE  C31314544  -0.090   0.699   9.344 -0.8377 -0.0448  0.1976
  134SAPE  H13X14545  -0.046   0.652   9.435  3.3274 -1.2339 -2.1752
  134SAPE  H13Y14546  -0.097   0.810   9.340  0.1787  0.0172 -0.1239
  134SAPE  C31414547   0.011   0.669   9.235  0.1662  0.1525  0.5136
  134SAPE  H14X14548  -0.004   0.725   9.140 -1.7270  2.2614  1.9743
  134SAPE  H14Y14549  -0.008   0.566   9.198  1.9401 -0.3753  0.9637
  134SAPE  C31514550   0.151   0.671   9.284 -0.5090  0.0273  0.3547
  134SAPE  H15X14551   0.169   0.598   9.366  2.1393 -0.8555 -0.8831
  134SAPE  H15Y14552   0.177   0.776   9.307 -1.4266  0.0997  1.1182
  134SAPE  C31614553   0.251   0.627   9.170 -0.6143  0.1692  0.4269
  134SAPE  H16X14554   0.261   0.709   9.096 -0.2530  0.4171  0.7440
  134SAPE  H16Y14555   0.217   0.536   9.118 -0.0398  1.8838 -3.2766
  134SAPE  C31714556   0.399   0.610   9.222  0.0903 -0.4095 -0.2738
  134SAPE  H17X14557   0.446   0.560   9.135  0.1096  2.1726 -1.8523
  134SAPE  H17Y14558   0.401   0.525   9.293 -2.3143 -2.1408 -2.1187
  134SAPE  C31814559   0.481   0.733   9.269  0.0066 -0.9541 -0.7411
  134SAPE  H18X14560   0.464   0.814   9.197 -0.2879  0.5952  0.9950
  134SAPE  H18Y14561   0.589   0.707   9.267 -0.0357 -1.2254  0.0902
  134SAPE  H18Z14562   0.472   0.769   9.374  1.7768 -0.2264 -0.7993
  135SAPE     N14563   0.755   0.584  10.709 -0.1325  0.1058  0.3590
  135SAPE   HN114564   0.654   0.606  10.711  0.3745  2.8847 -0.0569
  135SAPE   HN214565   0.766   0.481  10.705  0.9005  0.1979  0.3465
  135SAPE   HN314566   0.787   0.620  10.801  0.9851 -0.8907  0.3842
  135SAPE   C1214567   0.806   0.659  10.584  0.0593  0.4222 -0.2588
  135SAPE  H12A14568   0.767   0.607  10.493  0.9540 -0.3025 -0.2400
  135SAPE  H12B14569   0.917   0.660  10.578 -0.0207  1.0057 -2.5151
  135SAPE   C1114570   0.770   0.806  10.569 -0.4637  0.1913  0.4967
  135SAPE  H11A14571   0.666   0.813  10.531 -0.0320 -1.2671 -1.0956
  135SAPE  H11B14572   0.835   0.850  10.490  1.1273  0.3700  1.8543
  135SAPE     P14573   0.861   1.004  10.714  0.1773 -0.2460 -0.0130
  135SAPE   O1314574   0.773   1.122  10.699 -0.0168  1.1899  0.3124
  135SAPE   O1414575   0.940   1.000  10.841  0.3544 -0.2977 -0.5405
  135SAPE   O1214576   0.780   0.870  10.694 -0.6429  1.2932 -0.4526
  135SAPE   O1114577   0.969   1.005  10.594  0.2666 -0.0123 -0.4700
  135SAPE    C114578   1.033   1.127  10.561 -0.5957 -0.1091 -0.4530
  135SAPE    HA14579   1.009   1.215  10.625 -1.3220 -2.6392  3.0296
  135SAPE    HB14580   1.142   1.112  10.578 -0.0634  1.7833 -1.8720
  135SAPE    C214581   1.012   1.157  10.411 -0.5282  0.0566 -0.6067
  135SAPE    HS14582   1.066   1.253  10.397  2.1648 -0.5723  3.5540
  135SAPE   O2114583   0.879   1.174  10.373  0.2682  0.1283 -0.0995
  135SAPE   C2114584   0.827   1.298  10.392  0.7074 -0.9170 -0.6668
  135SAPE   O2214585   0.880   1.389  10.451  0.1884  0.3792  0.1585
  135SAPE   C2214586   0.694   1.300  10.325 -0.4856 -0.5092 -0.0003
  135SAPE   H2R14587   0.624   1.349  10.397  1.1839  2.1012 -0.0236
  135SAPE   H2S14588   0.695   1.375  10.244  0.0216 -0.7730 -0.2373
  135SAPE    C314589   1.072   1.047  10.324 -0.3702  0.5997  0.4222
  135SAPE    HX14590   0.996   0.966  10.315  1.1800 -0.6817 -2.2653
  135SAPE    HY14591   1.163   1.001  10.370 -0.9671 -1.9204 -0.7705
  135SAPE   O3114592   1.099   1.099  10.198 -0.6342 -0.0636 -0.1234
  135SAPE   C3114593   1.180   1.030  10.116 -0.3805 -0.3811 -0.0982
  135SAPE   O3214594   1.223   0.919  10.139  0.4972 -0.6065  0.5166
  135SAPE   C3214595   1.185   1.107   9.980  0.6922  0.8308 -0.3085
  135SAPE   H2X14596   1.237   1.204   9.992  1.6503  0.2043  0.8605
  135SAPE   H2Y14597   1.081   1.115   9.944 -0.0379  0.9345  1.7010
  135SAPE   C2314598   0.646   1.165  10.278  0.7750 -0.8795  0.6107
  135SAPE   H3R14599   0.540   1.181  10.248  1.9828  0.2897 -3.7561
  135SAPE   H3S14600   0.643   1.084  10.354  1.4699 -1.5003 -0.0116
  135SAPE   C2414601   0.710   1.112  10.149 -0.6966 -0.1510 -0.4335
  135SAPE   H4R14602   0.816   1.079  10.156 -0.3367  0.6807 -1.6721
  135SAPE   H4S14603   0.704   1.194  10.075 -0.8113  1.4138  1.2484
  135SAPE   C2514604   0.632   0.990  10.113  0.6851  0.9296  0.5005
  135SAPE   H5R14605   0.552   0.960  10.183 -1.0706  2.4887 -0.7282
  135SAPE   C2614606   0.659   0.902  10.016  0.5000  1.0431  0.5208
  135SAPE   H6R14607   0.596   0.814   9.998  0.1408  1.8237 -2.6884
  135SAPE   C2714608   0.778   0.907   9.930  0.6328  0.3203  0.0348
  135SAPE   H7R14609   0.767   0.828   9.853  0.0719 -0.2281  0.6597
  135SAPE   H7S14610   0.868   0.865   9.981  0.8180  0.0293 -0.5260
  135SAPE   C2814611   0.805   1.036   9.861 -0.5593  0.1697  0.0792
  135SAPE   H8R14612   0.837   1.117   9.928 -1.0414 -0.5205  1.1701
  135SAPE   C2914613   0.803   1.063   9.728 -1.0199 -0.0208  0.7568
  135SAPE   H9R14614   0.825   1.166   9.696 -0.5066  0.2443  1.9088
  135SAPE  C21014615   0.775   0.957   9.633  0.2278  0.5539  0.1354
  135SAPE  H10R14616   0.676   0.911   9.647  0.8345 -0.9034 -0.2004
  135SAPE  H10S14617   0.850   0.875   9.633 -2.2665 -1.8411  0.6327
  135SAPE  C21114618   0.769   1.008   9.496 -0.0629 -0.3467  0.3128
  135SAPE  H11R14619   0.670   1.050   9.471 -0.0031 -0.5274 -0.2228
  135SAPE  C21214620   0.863   1.014   9.398  0.6665 -0.8733 -0.1038
  135SAPE  H12R14621   0.852   1.069   9.303  1.0182  0.6429  0.7038
  135SAPE  C21314622   1.010   0.980   9.422  0.5922 -0.6023  0.7589
  135SAPE  H13R14623   1.032   0.992   9.530  0.5726  0.3944  0.6639
  135SAPE  H13S14624   1.071   1.068   9.391 -2.0343  0.8552 -0.6177
  135SAPE  C21414625   1.048   0.853   9.357  0.3308  0.2372  0.4752
  135SAPE  H14R14626   1.080   0.771   9.423  0.9338  0.7243  0.7960
  135SAPE  C21514627   1.065   0.825   9.225 -0.3567 -0.2723  0.5017
  135SAPE  H15R14628   1.102   0.725   9.200  0.2468 -0.0458  0.4571
  135SAPE  C21614629   1.045   0.918   9.109  0.3811  0.6620  0.0622
  135SAPE  H16R14630   1.134   0.900   9.044  0.8344  1.4404  0.4621
  135SAPE  H16S14631   1.036   1.024   9.141  1.6815  0.6066  0.6895
  135SAPE  C21714632   0.934   0.878   9.004 -0.1248  0.6029 -0.8008
  135SAPE  H17R14633   0.929   0.958   8.926 -1.7171 -0.0998 -1.4766
  135SAPE  H17S14634   0.834   0.869   9.052 -0.5843 -0.0324 -1.8369
  135SAPE  C21814635   0.971   0.750   8.929  0.1685  0.3260 -0.1928
  135SAPE  H18R14636   0.888   0.733   8.857  0.7077 -0.0098 -0.7490
  135SAPE  H18S14637   0.959   0.671   9.006 -0.9127 -0.8455 -1.4988
  135SAPE  C21914638   1.101   0.753   8.854  1.0067  0.5250  0.5831
  135SAPE  H19R14639   1.180   0.752   8.931  0.7452 -2.1465  0.9166
  135SAPE  H19S14640   1.108   0.853   8.806 -1.9597  2.9511  4.5593
  135SAPE  C22014641   1.124   0.637   8.748 -0.6757 -0.2952 -0.3514
  135SAPE  H20R14642   1.224   0.650   8.701 -0.6165  0.7231  0.0372
  135SAPE  H20S14643   1.044   0.630   8.671 -0.0189  1.2397 -1.2214
  135SAPE  H20T14644   1.120   0.538   8.798  1.2408 -2.6616 -4.3110
  135SAPE   C3314645   1.251   1.017   9.879  0.3199  0.1880 -0.1714
  135SAPE   H3X14646   1.197   0.920   9.878 -0.9067  0.8559  0.3147
  135SAPE   H3Y14647   1.358   1.002   9.908 -0.1502 -2.5911  0.4238
  135SAPE   C3414648   1.256   1.081   9.737  0.1650 -0.5574 -0.1193
  135SAPE   H4X14649   1.294   1.184   9.756 -0.0405 -0.8561  2.2255
  135SAPE   H4Y14650   1.153   1.087   9.696  1.0536 -0.0650 -2.4298
  135SAPE   C3514651   1.348   1.009   9.641 -0.6390  0.1021 -0.6316
  135SAPE   H5X14652   1.293   0.913   9.627 -0.0119 -0.7353  2.0215
  135SAPE   H5Y14653   1.444   0.976   9.687  0.1766  1.1352 -1.5618
  135SAPE   C3614654   1.363   1.076   9.509  0.2592  0.6113  0.3594
  135SAPE   H6X14655   1.432   1.163   9.510  1.9340 -0.5655 -2.2466
  135SAPE   H6Y14656   1.267   1.112   9.464 -0.7937 -1.7787  0.5143
  135SAPE   C3714657   1.419   0.987   9.395 -1.2215  0.9013  0.8705
  135SAPE   H7X14658   1.354   0.896   9.388  1.0037 -0.7300  0.2933
  135SAPE   H7Y14659   1.524   0.961   9.419 -1.7280 -2.5528 -0.1144
  135SAPE   C3814660   1.418   1.059   9.259  0.2397 -0.8419 -0.7949
  135SAPE   H8X14661   1.509   1.122   9.253  0.0888 -0.3718  1.2505
  135SAPE   H8Y14662   1.326   1.120   9.249 -0.3011 -0.6217  3.6640
  135SAPE   C3914663   1.436   0.945   9.152 -0.0544 -0.1338  0.3946
  135SAPE   H9X14664   1.436   1.004   9.058 -2.3861  1.1325  1.1265
  135SAPE   H9Y14665   1.348   0.878   9.145 -1.1677  1.3671 -0.4937
  135SAPE  C31014666   1.567   0.865   9.165 -0.5291 -0.5291 -0.1049
  135SAPE  H10X14667   1.571   0.803   9.257 -2.3969 -2.7531 -1.3942
  135SAPE  H10Y14668   1.653   0.934   9.155  0.4207 -1.7219 -0.3246
  135SAPE  C31114669   1.578   0.765   9.047 -0.2232  0.0835  0.1938
  135SAPE  H11X14670   1.483   0.709   9.032  0.1275 -0.6994  0.8287
  135SAPE  H11Y14671   1.664   0.697   9.060  0.2989  0.9609  1.5015
  135SAPE  C31214672   1.611   0.831   8.907  0.5654 -0.5339 -0.4529
  135SAPE  H12X14673   1.698   0.899   8.920  0.2022 -0.1197 -0.1352
  135SAPE  H12Y14674   1.530   0.903   8.882  1.2239  0.6206  0.6261
  135SAPE  C31314675   1.625   0.744   8.785 -0.2355  0.2591 -0.0222
  135SAPE  H13X14676   1.557   0.657   8.800  0.6885 -0.3088  1.0422
  135SAPE  H13Y14677   1.725   0.696   8.774 -0.0881  0.7972 -1.1873
  135SAPE  C31414678   1.587   0.804   8.644 -0.2485 -0.3004 -0.2309
  135SAPE  H14X14679   1.647   0.894   8.620 -0.5174  0.1283  0.6790
  135SAPE  H14Y14680   1.483   0.841   8.655 -0.7844 -1.5891 -0.7723
  135SAPE  C31514681   1.585   0.692   8.536  1.1156 -0.0387 -0.3038
  135SAPE  H15X14682   1.513   0.611   8.560  0.6319  0.5759  0.3966
  135SAPE  H15Y14683   1.686   0.647   8.528  1.1180  0.0726 -0.9415
  135SAPE  C31614684   1.560   0.763   8.404  0.4034  0.3250 -0.1570
  135SAPE  H16X14685   1.644   0.832   8.382 -0.0157  0.3183 -1.9461
  135SAPE  H16Y14686   1.465   0.818   8.419 -0.1498  0.2994 -2.9688
  135SAPE  C31714687   1.540   0.659   8.292  0.9190 -0.9304  0.1314
  135SAPE  H17X14688   1.456   0.589   8.313 -0.0529  0.1168 -0.1589
  135SAPE  H17Y14689   1.630   0.599   8.268 -0.8372 -2.9944 -1.6915
  135SAPE  C31814690   1.498   0.721   8.157  0.3113 -0.1005  0.4430
  135SAPE  H18X14691   1.511   0.641   8.080 -0.6769  1.0248 -0.9436
  135SAPE  H18Y14692   1.567   0.802   8.125  0.6101 -1.4581 -2.7513
  135SAPE  H18Z14693   1.395   0.762   8.160  1.1730  2.3589 -1.1663
  136SAPE     N14694   2.249   6.100  10.721  0.6811  0.6883 -0.1352
  136SAPE   HN114695   2.340   6.143  10.748  0.0838  0.4541  2.5049
  136SAPE   HN214696   2.241   6.102  10.617 -1.0744 -2.4474 -0.1624
  136SAPE   HN314697   2.178   6.159  10.769  0.4030 -2.1660  3.3493
  136SAPE   C1214698   2.246   5.965  10.785 -0.7142  0.5711  0.6468
  136SAPE  H12A14699   2.146   5.919  10.771  0.2106 -1.5846  0.7293
  136SAPE  H12B14700   2.266   5.980  10.893 -0.6551  2.5769  0.4038
  136SAPE   C1114701   2.354   5.873  10.721  0.1527  0.1974  0.5084
  136SAPE  H11A14702   2.454   5.921  10.719 -0.3112  1.2456  1.4475
  136SAPE  H11B14703   2.325   5.847  10.617 -0.7806 -2.3123  1.3173
  136SAPE     P14704   2.288   5.629  10.783 -0.3118  0.2532  0.0296
  136SAPE   O1314705   2.243   5.598  10.922  0.6180  0.0279  0.3428
  136SAPE   O1414706   2.184   5.653  10.680  0.5199  0.0262 -0.2630
  136SAPE   O1214707   2.375   5.760  10.796 -0.3357  0.4740 -0.2177
  136SAPE   O1114708   2.394   5.519  10.737 -0.0342  0.0918  0.3594
  136SAPE    C114709   2.508   5.544  10.652 -0.0482  0.2432  0.1249
  136SAPE    HA14710   2.525   5.650  10.625  0.3449  0.0070 -0.5888
  136SAPE    HB14711   2.597   5.502  10.704 -0.5347 -1.8605 -0.6345
  136SAPE    C214712   2.476   5.481  10.511 -0.0402 -0.4304  0.7636
  136SAPE    HS14713   2.563   5.505  10.446 -2.1285  0.3086 -1.9135
  136SAPE   O2114714   2.362   5.527  10.449  0.4618 -0.2310 -0.5995
  136SAPE   C2114715   2.368   5.658  10.405  0.7367  0.2496  0.1358
  136SAPE   O2214716   2.469   5.722  10.413  1.0022  0.0964  0.5788
  136SAPE   C2214717   2.234   5.711  10.347  0.4718 -0.1511 -0.2355
  136SAPE   H2R14718   2.147   5.717  10.416 -1.0492  3.0135 -2.1871
  136SAPE   H2S14719   2.253   5.815  10.310  0.6361 -1.0809 -2.9460
  136SAPE    C314720   2.456   5.332  10.522 -0.3646  0.0526  0.0241
  136SAPE    HX14721   2.359   5.321  10.575 -0.9485  2.8740 -0.3106
  136SAPE    HY14722   2.545   5.292  10.575  0.6727  3.5782  1.1913
  136SAPE   O3114723   2.444   5.278  10.385  0.0553  0.0458 -0.2507
  136SAPE   C3114724   2.318   5.262  10.340 -0.2009 -0.0715 -0.5223
  136SAPE   O3214725   2.217   5.283  10.398  0.2661 -0.3717  0.2664
  136SAPE   C3214726   2.320   5.216  10.192  0.1908  0.2654 -0.1716
  136SAPE   H2X14727   2.377   5.290  10.132  0.4875 -0.0917 -0.3384
  136SAPE   H2Y14728   2.218   5.235  10.154  0.1447 -0.5139 -0.4587
  136SAPE   C2314729   2.194   5.629  10.220 -0.4023 -0.1964  0.9777
  136SAPE   H3R14730   2.094   5.656  10.180 -0.4944 -1.3371  0.4066
  136SAPE   H3S14731   2.184   5.523  10.252  1.1796 -0.4971  0.5374
  136SAPE   C2414732   2.296   5.651  10.101  0.0347 -0.2646 -0.6168
  136SAPE   H4R14733   2.397   5.614  10.130  0.6764  1.4939 -0.5094
  136SAPE   H4S14734   2.309   5.761  10.089  0.3412 -0.2004  0.2051
  136SAPE   C2514735   2.257   5.593   9.968 -0.2058 -0.3930  0.1137
  136SAPE   H5R14736   2.150   5.567   9.971 -1.2381  3.3532  0.5939
  136SAPE   C2614737   2.340   5.551   9.867  0.1550  0.4563  0.4339
  136SAPE   H6R14738   2.293   5.510   9.776  2.2678  0.1086 -0.5728
  136SAPE   C2714739   2.491   5.565   9.868 -0.1840  0.1978  0.0047
  136SAPE   H7R14740   2.531   5.612   9.961 -1.4133  2.9901 -0.7735
  136SAPE   H7S14741   2.515   5.637   9.787  0.7738 -1.6525 -1.4243
  136SAPE   C2814742   2.573   5.445   9.816  0.9420  0.1814 -0.9791
  136SAPE   H8R14743   2.618   5.375   9.889 -1.3726  0.3439  0.7219
  136SAPE   C2914744   2.588   5.405   9.689 -0.2586  0.0294  0.7534
  136SAPE   H9R14745   2.660   5.324   9.673  1.6817  1.7999  0.1339
  136SAPE  C21014746   2.521   5.474   9.570 -0.0148  0.2221  0.2129
  136SAPE  H10R14747   2.590   5.526   9.500 -1.9139 -0.5263 -2.3875
  136SAPE  H10S14748   2.454   5.554   9.607  0.4354  1.3393 -1.3110
  136SAPE  C21114749   2.445   5.374   9.480 -0.2734 -0.4624 -0.4668
  136SAPE  H11R14750   2.339   5.401   9.466 -0.0417  0.4551 -0.5138
  136SAPE  C21214751   2.492   5.275   9.400 -0.3903  0.8491 -0.5756
  136SAPE  H12R14752   2.412   5.225   9.343 -1.1406 -0.7885  1.7636
  136SAPE  C21314753   2.638   5.237   9.391  0.6292 -0.1721  0.2272
  136SAPE  H13R14754   2.638   5.126   9.387  0.5962 -0.2535  1.7541
  136SAPE  H13S14755   2.684   5.273   9.485 -1.2755  1.5050  0.5870
  136SAPE  C21414756   2.686   5.314   9.272  0.7674 -0.2511 -0.0740
  136SAPE  H14R14757   2.731   5.409   9.303  1.2361 -1.0170  1.7033
  136SAPE  C21514758   2.697   5.270   9.147  0.0149 -0.2597 -0.6699
  136SAPE  H15R14759   2.728   5.346   9.074 -2.1254  0.7257 -0.6191
  136SAPE  C21614760   2.673   5.134   9.084  0.4486 -0.0325 -0.4252
  136SAPE  H16R14761   2.625   5.136   8.984 -0.9972 -2.2404  0.1536
  136SAPE  H16S14762   2.610   5.070   9.148  0.8471 -0.1270 -0.1221
  136SAPE  C21714763   2.809   5.056   9.083  0.5846  0.5904 -0.0079
  136SAPE  H17R14764   2.879   5.119   9.023 -1.6800  1.3530 -2.0001
  136SAPE  H17S14765   2.805   4.962   9.025  0.9021 -1.0891  2.5177
  136SAPE  C21814766   2.861   5.012   9.224  0.6415 -0.5366  0.4812
  136SAPE  H18R14767   2.781   4.948   9.266  0.2980  0.0141  0.6762
  136SAPE  H18S14768   2.896   5.097   9.287  1.8707 -0.7900  0.1766
  136SAPE  C21914769   2.986   4.916   9.222  0.5079 -0.1872  0.5842
  136SAPE  H19R14770   3.030   4.917   9.325 -1.2583 -1.4251  1.3989
  136SAPE  H19S14771   3.062   4.951   9.149 -1.6027  2.8645 -0.3248
  136SAPE  C22014772   2.935   4.775   9.185  0.8211 -0.0157 -0.1318
  136SAPE  H20R14773   3.019   4.701   9.186  1.0010  0.1790 -0.6520
  136SAPE  H20S14774   2.877   4.771   9.091 -1.0286 -0.1742  0.9616
  136SAPE  H20T14775   2.860   4.735   9.257 -0.0945  0.2696 -0.9119
  136SAPE   C3314776   2.367   5.066  10.179 -0.3204 -1.3361  0.4437
  136SAPE   H3X14777   2.296   4.996  10.228 -0.2116 -3.8969 -2.6846
  136SAPE   H3Y14778   2.466   5.054  10.228  0.4381 -0.3450 -0.7643
  136SAPE   C3414779   2.392   5.023  10.038  0.1207 -0.4805  0.6294
  136SAPE   H4X14780   2.444   4.925  10.040 -0.7364 -0.9922 -0.6222
  136SAPE   H4Y14781   2.464   5.096   9.995 -1.1414  0.3249 -0.1707
  136SAPE   C3514782   2.271   5.028   9.945 -0.3870 -0.1652 -0.1256
  136SAPE   H5X14783   2.247   5.136   9.942  0.7049  0.1013  0.2220
  136SAPE   H5Y14784   2.190   4.964   9.985 -0.2228 -1.8715 -2.2674
  136SAPE   C3614785   2.300   4.975   9.804 -0.7710  0.6138  0.3035
  136SAPE   H6X14786   2.345   5.058   9.746 -0.1055  0.3444  0.4196
  136SAPE   H6Y14787   2.199   4.942   9.773 -0.7943 -0.0696  1.0756
  136SAPE   C3714788   2.400   4.856   9.803  0.8172 -0.8740 -0.4080
  136SAPE   H7X14789   2.373   4.787   9.886  1.5741 -1.6640 -0.7988
  136SAPE   H7Y14790   2.503   4.890   9.825  0.1794 -0.3895  2.1232
  136SAPE   C3814791   2.403   4.772   9.671 -0.2924  0.2754  0.1708
  136SAPE   H8X14792   2.297   4.747   9.651  0.1204 -0.0492 -1.9006
  136SAPE   H8Y14793   2.470   4.683   9.673 -2.4861 -1.4352  0.7002
  136SAPE   C3914794   2.428   4.856   9.545  0.3383  0.7882 -0.5777
  136SAPE   H9X14795   2.523   4.911   9.561  1.1423 -0.4670 -0.8788
  136SAPE   H9Y14796   2.349   4.934   9.549  0.3605  0.7818  0.2071
  136SAPE  C31014797   2.426   4.777   9.412  0.5754  0.4585  0.2947
  136SAPE  H10X14798   2.335   4.714   9.403 -1.1081  2.8093  0.1653
  136SAPE  H10Y14799   2.513   4.708   9.402 -0.8352 -1.3449 -0.1136
  136SAPE  C31114800   2.429   4.862   9.279  0.1316  0.2803  0.1281
  136SAPE  H11X14801   2.502   4.807   9.217 -0.7991 -0.6484 -0.1749
  136SAPE  H11Y14802   2.462   4.967   9.294 -0.1046  0.1199  2.0248
  136SAPE  C31214803   2.300   4.862   9.192 -0.3556 -0.1703 -0.6181
  136SAPE  H12X14804   2.218   4.890   9.261 -0.2528  0.0715 -0.5932
  136SAPE  H12Y14805   2.290   4.756   9.161  1.2486 -1.1844  1.9310
  136SAPE  C31314806   2.317   4.949   9.068 -0.6009 -0.0245  0.2191
  136SAPE  H13X14807   2.328   5.057   9.093 -1.3850  0.2184 -0.4354
  136SAPE  H13Y14808   2.216   4.937   9.023 -0.3778 -1.2803  0.0331
  136SAPE  C31414809   2.437   4.914   8.969  0.2740 -0.2194 -0.6358
  136SAPE  H14X14810   2.424   4.807   8.944  1.5940 -0.7377  0.7306
  136SAPE  H14Y14811   2.536   4.920   9.019  0.0801 -0.2864 -0.2375
  136SAPE  C31514812   2.447   4.999   8.834  0.1034  0.5180 -0.6421
  136SAPE  H15X14813   2.437   5.105   8.867  0.3620  0.3284  0.0758
  136SAPE  H15Y14814   2.357   4.973   8.775 -1.0463  0.8286  0.8950
  136SAPE  C31614815   2.568   4.983   8.751 -0.5922 -0.1057  0.1665
  136SAPE  H16X14816   2.552   4.886   8.699  1.1621 -0.2796 -0.1081
  136SAPE  H16Y14817   2.660   4.986   8.814  0.4215  0.9354 -1.2650
  136SAPE  C31714818   2.581   5.093   8.649  0.2985  0.0951  0.8644
  136SAPE  H17X14819   2.622   5.193   8.676  2.3738 -0.2320 -0.8361
  136SAPE  H17Y14820   2.483   5.109   8.600  0.9979 -2.0183 -1.4650
  136SAPE  C31814821   2.663   5.042   8.526 -0.3767 -0.4267 -0.7839
  136SAPE  H18X14822   2.773   5.046   8.540 -0.6017  0.1625  1.0806
  136SAPE  H18Y14823   2.642   5.109   8.440 -1.6278 -1.1241 -1.0439
  136SAPE  H18Z14824   2.635   4.939   8.495  0.5899 -1.3832  1.3477
  137SAPE     N14825   0.099   1.543  10.830  0.5687  0.2047 -0.1557
  137SAPE   HN114826   0.063   1.451  10.795 -0.8606 -0.0756  1.8819
  137SAPE   HN214827   0.032   1.610  10.788  2.3611  1.6884 -0.7460
  137SAPE   HN314828   0.198   1.555  10.798 -0.1032  0.6297 -2.2343
  137SAPE   C1214829   0.081   1.536  10.977 -0.5960  0.1111 -0.3760
  137SAPE  H12A14830   0.180   1.544  11.027 -0.1786 -0.4353 -1.0886
  137SAPE  H12B14831   0.046   1.432  10.993 -0.6390  0.0158 -1.0678
  137SAPE   C1114832  -0.022   1.640  11.012 -0.2948  0.6021 -0.1779
  137SAPE  H11A14833   0.025   1.739  10.992 -0.9258  0.6341 -1.5751
  137SAPE  H11B14834  -0.049   1.634  11.120 -0.9944 -2.1771 -0.4430
  137SAPE     P14835  -0.269   1.532  10.986  0.3194 -0.0429  0.3663
  137SAPE   O1314836  -0.217   1.404  11.037  0.1682  0.2450  0.2601
  137SAPE   O1414837  -0.360   1.608  11.079  0.3453 -0.0091  0.5499
  137SAPE   O1214838  -0.146   1.624  10.946 -0.1266  0.3121  0.3127
  137SAPE   O1114839  -0.344   1.508  10.846 -0.1641 -0.2478  0.0477
  137SAPE    C114840  -0.360   1.628  10.764 -0.3327 -0.0949 -0.2198
  137SAPE    HA14841  -0.384   1.715  10.827  1.2470 -0.6109  1.1737
  137SAPE    HB14842  -0.265   1.651  10.711 -0.2603  2.0101  0.7220
  137SAPE    C214843  -0.455   1.619  10.641 -0.2842 -0.0502 -0.4505
  137SAPE    HS14844  -0.558   1.634  10.681  0.4762 -0.1222  1.6362
  137SAPE   O2114845  -0.437   1.492  10.570  0.6271 -0.5716  0.1389
  137SAPE   C2114846  -0.534   1.439  10.508 -0.5963 -0.0235 -0.2638
  137SAPE   O2214847  -0.648   1.480  10.491 -0.8152  0.1419  0.8030
  137SAPE   C2214848  -0.462   1.316  10.445 -0.2562  0.5058 -0.0602
  137SAPE   H2R14849  -0.374   1.350  10.386 -0.7025  0.3740 -0.8274
  137SAPE   H2S14850  -0.425   1.253  10.528  1.4454  0.7458 -0.5883
  137SAPE    C314851  -0.435   1.750  10.553  0.4197  0.7585 -0.5478
  137SAPE    HX14852  -0.327   1.756  10.528  0.7311  1.3888  0.8176
  137SAPE    HY14853  -0.461   1.833  10.622 -0.1402 -0.7404  1.1050
  137SAPE   O3114854  -0.513   1.754  10.430  0.3382  0.4821 -0.2173
  137SAPE   C3114855  -0.636   1.801  10.447  0.1702 -0.1147  0.2355
  137SAPE   O3214856  -0.695   1.818  10.552 -0.3195  0.0074  0.2333
  137SAPE   C3214857  -0.696   1.830  10.305 -0.3975  0.0018  0.7774
  137SAPE   H2X14858  -0.691   1.738  10.243  0.0253  0.4440  0.1425
  137SAPE   H2Y14859  -0.629   1.899  10.250  1.6305  0.9837  4.1848
  137SAPE   C2314860  -0.555   1.230  10.357  0.6791  0.6745 -0.1973
  137SAPE   H3R14861  -0.655   1.221  10.404 -0.9581 -0.2062 -3.5231
  137SAPE   H3S14862  -0.505   1.135  10.329 -0.3730  0.0987 -0.1536
  137SAPE   C2414863  -0.580   1.300  10.220 -0.1066 -0.0090 -0.3936
  137SAPE   H4R14864  -0.616   1.400  10.250 -2.6193 -1.5856  2.4063
  137SAPE   H4S14865  -0.669   1.249  10.176 -0.8559 -0.2382  1.3192
  137SAPE   C2514866  -0.463   1.303  10.124  0.2207  0.1396  0.2139
  137SAPE   H5R14867  -0.410   1.207  10.120 -1.5308 -0.8887  0.6066
  137SAPE   C2614868  -0.419   1.415  10.053 -1.0980  0.4119 -0.1047
  137SAPE   H6R14869  -0.335   1.401   9.982 -0.7430  0.3754  0.3201
  137SAPE   C2714870  -0.468   1.556  10.053  0.9293 -0.5954 -0.0811
  137SAPE   H7R14871  -0.528   1.558  10.147  0.2097 -3.3002 -0.4183
  137SAPE   H7S14872  -0.537   1.564   9.967  1.0943 -1.0649 -0.2556
  137SAPE   C2814873  -0.353   1.655  10.066  0.5937  0.4559  0.9555
  137SAPE   H8R14874  -0.289   1.632  10.153  2.7289 -1.2413 -0.9276
  137SAPE   C2914875  -0.333   1.764   9.991 -0.5091 -0.3563  0.3429
  137SAPE   H9R14876  -0.246   1.828  10.009 -0.7173 -0.7752  3.3499
  137SAPE  C21014877  -0.406   1.818   9.869  0.2993 -0.3580  0.0421
  137SAPE  H10R14878  -0.483   1.741   9.848 -0.6452  0.4249  0.5485
  137SAPE  H10S14879  -0.345   1.831   9.778 -2.2090  1.9852 -1.4461
  137SAPE  C21114880  -0.480   1.941   9.915 -0.0826  0.2906  0.0689
  137SAPE  H11R14881  -0.545   1.919  10.001  0.1090 -1.7406 -0.2605
  137SAPE  C21214882  -0.480   2.064   9.865  1.0954  0.0339  0.1278
  137SAPE  H12R14883  -0.526   2.137   9.932  0.1704 -0.2346 -0.2002
  137SAPE  C21314884  -0.400   2.119   9.756 -0.2098 -0.4783  0.6273
  137SAPE  H13R14885  -0.473   2.177   9.696  0.3345  1.0970  1.4363
  137SAPE  H13S14886  -0.358   2.032   9.701  0.6063  0.6148 -0.5290
  137SAPE  C21414887  -0.284   2.207   9.805 -0.0338  0.1236 -0.0204
  137SAPE  H14R14888  -0.280   2.221   9.914  1.0103 -0.6650  0.0567
  137SAPE  C21514889  -0.186   2.251   9.726 -0.0181 -0.0114 -0.2403
  137SAPE  H15R14890  -0.104   2.311   9.768  0.0358 -1.1573  1.3975
  137SAPE  C21614891  -0.185   2.223   9.582 -0.5268 -0.9576  0.0954
  137SAPE  H16R14892  -0.154   2.321   9.540 -0.9783 -0.4403  0.9539
  137SAPE  H16S14893  -0.284   2.191   9.543  0.5347 -0.9118 -2.8587
  137SAPE  C21714894  -0.098   2.121   9.519  0.6626 -0.0298 -0.4364
  137SAPE  H17R14895  -0.109   2.011   9.527 -2.2526  0.2004 -0.1471
  137SAPE  H17S14896  -0.005   2.140   9.577 -1.9847 -0.4231  4.4519
  137SAPE  C21814897  -0.076   2.133   9.368  0.3966  0.3363 -0.2197
  137SAPE  H18R14898  -0.099   2.240   9.351  2.8184  1.1533  1.2134
  137SAPE  H18S14899  -0.155   2.073   9.318  0.1149 -2.3441  3.0629
  137SAPE  C21914900   0.065   2.097   9.319  0.3946  0.4648 -0.1442
  137SAPE  H19R14901   0.071   1.989   9.344 -0.1640  0.2641 -0.8303
  137SAPE  H19S14902   0.137   2.165   9.370 -0.7623  0.9925  0.8460
  137SAPE  C22014903   0.085   2.128   9.171  0.2300 -0.0741 -0.9315
  137SAPE  H20R14904   0.072   2.234   9.140  0.9954  0.7443  1.4011
  137SAPE  H20S14905   0.006   2.065   9.124 -0.0984 -1.5142  1.3925
  137SAPE  H20T14906   0.178   2.080   9.133 -0.1784 -2.5172  0.8897
  137SAPE   C3314907  -0.831   1.892  10.325  0.9193 -0.1532  0.6321
  137SAPE   H3X14908  -0.824   1.990  10.377 -0.7295  0.1926  0.2669
  137SAPE   H3Y14909  -0.892   1.824  10.388  0.5359 -1.3270 -0.9576
  137SAPE   C3414910  -0.924   1.922  10.202  0.3629  0.1848 -0.1266
  137SAPE   H4X14911  -1.025   1.966  10.222  0.8334  0.6794  1.3001
  137SAPE   H4Y14912  -0.951   1.828  10.150 -0.3246  1.3860 -2.0426
  137SAPE   C3514913  -0.858   2.007  10.093  0.0338 -0.8775  0.2409
  137SAPE   H5X14914  -0.759   1.964  10.066  0.5835 -0.5211  1.5886
  137SAPE   H5Y14915  -0.855   2.109  10.138 -0.1823 -0.2860 -1.0209
  137SAPE   C3614916  -0.951   2.016   9.970 -0.0490  0.9643 -0.4554
  137SAPE   H6X14917  -1.059   2.024   9.993 -0.6819  2.4031 -3.4772
  137SAPE   H6Y14918  -0.940   1.919   9.916 -0.5767 -0.6011  2.0757
  137SAPE   C3714919  -0.915   2.136   9.879  0.0906  0.0306  0.0706
  137SAPE   H7X14920  -0.818   2.177   9.913  1.2687 -1.8448 -0.8293
  137SAPE   H7Y14921  -0.994   2.214   9.876  1.8626  1.8552 -1.9424
  137SAPE   C3814922  -0.890   2.089   9.734  0.4007 -0.0347 -0.0657
  137SAPE   H8X14923  -0.986   2.051   9.695  0.5466 -1.1438  0.6029
  137SAPE   H8Y14924  -0.807   2.015   9.746  0.2173 -0.0950  0.9477
  137SAPE   C3914925  -0.823   2.196   9.644  0.7121 -0.2170  0.3347
  137SAPE   H9X14926  -0.722   2.216   9.685 -0.3152  0.6252  2.6325
  137SAPE   H9Y14927  -0.883   2.289   9.657  0.3007 -0.7675  2.8860
  137SAPE  C31014928  -0.817   2.150   9.493  0.4531  0.5278  0.3152
  137SAPE  H10X14929  -0.918   2.108   9.472  1.3956 -2.1679  0.8122
  137SAPE  H10Y14930  -0.741   2.069   9.493  0.7056  0.7597  0.9660
  137SAPE  C31114931  -0.770   2.262   9.397 -0.4466 -0.1735 -0.0003
  137SAPE  H11X14932  -0.797   2.351   9.457  0.8025 -0.1225  0.5123
  137SAPE  H11Y14933  -0.817   2.264   9.296 -1.5447  2.3592  0.4924
  137SAPE  C31214934  -0.616   2.269   9.369  0.3760 -0.3390  0.5357
  137SAPE  H12X14935  -0.583   2.168   9.336  1.6570  0.9736 -2.5778
  137SAPE  H12Y14936  -0.565   2.297   9.463 -3.2370  0.2608  2.4783
  137SAPE  C31314937  -0.572   2.346   9.250  0.0192  0.1143  0.1913
  137SAPE  H13X14938  -0.580   2.455   9.269 -1.9280 -0.1130  0.9662
  137SAPE  H13Y14939  -0.650   2.324   9.175  0.8573 -0.9942 -0.3685
  137SAPE  C31414940  -0.433   2.322   9.194  0.0674  0.7351 -0.3539
  137SAPE  H14X14941  -0.372   2.305   9.286 -0.7776 -1.3573 -0.1205
  137SAPE  H14Y14942  -0.403   2.420   9.152  0.6821  0.8849  0.3922
  137SAPE  C31514943  -0.416   2.212   9.086  0.6424 -0.6837 -0.3947
  137SAPE  H15X14944  -0.491   2.216   9.004  2.1603 -3.0863 -2.0032
  137SAPE  H15Y14945  -0.422   2.113   9.136 -2.1143 -1.1416 -1.4190
  137SAPE  C31614946  -0.279   2.218   9.024  0.1931 -0.2376  0.4442
  137SAPE  H16X14947  -0.202   2.227   9.104  0.7337 -0.2183 -0.0683
  137SAPE  H16Y14948  -0.269   2.302   8.952  1.9448  0.8349  1.8431
  137SAPE  C31714949  -0.251   2.087   8.953  0.2608  0.6048  0.8646
  137SAPE  H17X14950  -0.154   2.104   8.903  0.3654  0.6637  1.0848
  137SAPE  H17Y14951  -0.319   2.065   8.868 -2.1504  0.2277  2.7466
  137SAPE  C31814952  -0.244   1.957   9.028 -0.1213  0.9794 -0.6204
  137SAPE  H18X14953  -0.193   1.878   8.969  0.9108  0.4728  0.8672
  137SAPE  H18Y14954  -0.342   1.912   9.057  0.1760  0.9266  0.3430
  137SAPE  H18Z14955  -0.188   1.967   9.123  0.0725 -1.2559 -0.4332
  138SAPE     N14956   3.982   3.958  11.191 -0.2636 -0.1408 -0.9214
  138SAPE   HN114957   3.938   4.006  11.272  1.7034 -1.1352  0.8370
  138SAPE   HN214958   4.063   3.905  11.228 -0.2133  0.9504  0.6325
  138SAPE   HN314959   4.012   4.038  11.131 -0.6643 -0.3851 -1.4547
  138SAPE   C1214960   3.890   3.878  11.110 -0.2544 -0.6497  0.4769
  138SAPE  H12A14961   3.863   3.936  11.019 -1.9130 -0.7520  0.8636
  138SAPE  H12B14962   3.797   3.869  11.171 -1.2845  1.7624 -0.5803
  138SAPE   C1114963   3.951   3.741  11.080  0.0638  0.7240 -0.0290
  138SAPE  H11A14964   3.965   3.684  11.174  0.0333 -1.3456 -1.2371
  138SAPE  H11B14965   4.057   3.756  11.050 -0.0681  0.2617 -0.7439
  138SAPE     P14966   3.945   3.563  10.891  0.1145  0.0750 -0.5068
  138SAPE   O1314967   4.011   3.460  10.974 -0.5216 -0.0003  0.3694
  138SAPE   O1414968   3.846   3.510  10.797 -0.1565  0.2916  0.8138
  138SAPE   O1214969   3.876   3.670  10.980 -0.2487 -0.0168 -0.0338
  138SAPE   O1114970   4.058   3.640  10.817 -0.3922 -0.4046  0.0363
  138SAPE    C114971   4.014   3.736  10.720  0.2830 -0.0123  0.0402
  138SAPE    HA14972   3.913   3.779  10.737  0.0376 -1.4909  2.9931
  138SAPE    HB14973   4.072   3.830  10.727 -0.1799  0.2571  0.3002
  138SAPE    C214974   4.039   3.679  10.581  0.3133  0.2653  0.1391
  138SAPE    HS14975   3.982   3.583  10.577 -0.8222  0.9290 -0.0839
  138SAPE   O2114976   4.178   3.667  10.562  0.0722  0.4965  0.7877
  138SAPE   C2114977   4.230   3.556  10.594  0.3291  0.0645  0.1146
  138SAPE   O2214978   4.180   3.463  10.651  0.1171 -0.5677  0.2675
  138SAPE   C2214979   4.372   3.556  10.540  0.0013  0.0071  0.9739
  138SAPE   H2R14980   4.393   3.656  10.497  1.5321  1.0730  3.9255
  138SAPE   H2S14981   4.441   3.536  10.625  3.0459  0.4877 -1.2106
  138SAPE    C314982   3.978   3.769  10.470 -0.1452  0.0531  0.0007
  138SAPE    HX14983   4.045   3.857  10.471  0.6232 -0.5170 -0.7035
  138SAPE    HY14984   3.876   3.802  10.499  0.1466 -0.0187  1.1562
  138SAPE   O3114985   4.002   3.712  10.338 -0.0064  0.7511  0.0587
  138SAPE   C3114986   3.894   3.659  10.281  0.0474 -0.2712  0.3337
  138SAPE   O3214987   3.778   3.660  10.321  0.1656  0.2799  0.2727
  138SAPE   C3214988   3.935   3.603  10.144 -0.3497 -0.3201 -0.0714
  138SAPE   H2X14989   3.859   3.526  10.120 -1.8110  0.9635  0.3174
  138SAPE   H2Y14990   4.037   3.559  10.153 -0.0970  0.6752  2.6719
  138SAPE   C2314991   4.393   3.445  10.434 -0.2545  0.9620 -0.2131
  138SAPE   H3R14992   4.366   3.353  10.490  1.5164  0.7173  0.3012
  138SAPE   H3S14993   4.496   3.428  10.397 -0.5157  0.6506 -0.7966
  138SAPE   C2414994   4.299   3.460  10.316 -0.2941 -0.4832  0.0150
  138SAPE   H4R14995   4.194   3.477  10.349 -0.4166  2.2094 -1.5189
  138SAPE   H4S14996   4.289   3.362  10.265 -1.9543 -0.0742 -0.5049
  138SAPE   C2514997   4.327   3.586  10.240  0.0576  0.0980 -0.3074
  138SAPE   H5R14998   4.280   3.675  10.286 -2.9936  0.0410 -2.9585
  138SAPE   C2614999   4.379   3.597  10.115  0.3313 -0.2511 -0.3203
  138SAPE   H6R15000   4.409   3.700  10.089  2.8234 -0.6196  0.8464
  138SAPE   C2715001   4.413   3.485  10.026 -0.0900  0.1937  0.1451
  138SAPE   H7R15002   4.384   3.388  10.073  1.3028 -0.3502 -0.0640
  138SAPE   H7S15003   4.521   3.471  10.007  0.3587  3.3362 -0.0145
  138SAPE   C2815004   4.342   3.482   9.895  0.5976  0.1989 -0.0315
  138SAPE   H8R15005   4.236   3.454   9.905  0.9300 -1.4664 -0.8450
  138SAPE   C2915006   4.390   3.522   9.777 -0.0252  0.0367 -0.1248
  138SAPE   H9R15007   4.310   3.535   9.702  0.8074 -0.9985 -1.2364
  138SAPE  C21015008   4.526   3.574   9.750 -0.2332  0.4563 -0.5364
  138SAPE  H10R15009   4.576   3.496   9.689 -2.3206 -2.3252  1.0910
  138SAPE  H10S15010   4.575   3.579   9.849  1.8904  0.7259 -1.5470
  138SAPE  C21115011   4.534   3.705   9.675 -0.1898 -0.0783 -0.2117
  138SAPE  H11R15012   4.516   3.793   9.739  1.5041  0.3883 -0.3334
  138SAPE  C21215013   4.540   3.728   9.539  0.3707 -0.1835  0.1163
  138SAPE  H12R15014   4.529   3.830   9.499  1.0337  0.1628  0.7752
  138SAPE  C21315015   4.534   3.615   9.437 -0.0829  0.4946  0.2821
  138SAPE  H13R15016   4.544   3.509   9.469  1.7317 -0.0386 -1.7699
  138SAPE  H13S15017   4.616   3.631   9.363 -1.0872 -1.1684 -1.2834
  138SAPE  C21415018   4.403   3.608   9.362  0.5762  0.3328  0.1809
  138SAPE  H14R15019   4.325   3.543   9.404  1.6884 -0.6852  0.7080
  138SAPE  C21515020   4.377   3.674   9.247 -0.0753 -0.7374  0.3526
  138SAPE  H15R15021   4.281   3.652   9.198  0.3504 -0.8671 -0.4449
  138SAPE  C21615022   4.473   3.766   9.172  0.4079 -0.3121  0.1486
  138SAPE  H16R15023   4.569   3.711   9.186 -0.1076 -1.2649  0.0464
  138SAPE  H16S15024   4.472   3.870   9.210  0.7443  0.4392 -1.7596
  138SAPE  C21715025   4.448   3.769   9.020 -0.5414  0.2132  0.0060
  138SAPE  H17R15026   4.360   3.833   8.995  1.1892  3.3397  1.3991
  138SAPE  H17S15027   4.424   3.666   8.986 -0.1020  0.1007  0.0323
  138SAPE  C21815028   4.569   3.815   8.939 -0.4072  0.0451 -0.1346
  138SAPE  H18R15029   4.652   3.742   8.948  0.4279  1.0049  0.1869
  138SAPE  H18S15030   4.590   3.919   8.974 -2.4943  1.1127 -1.8430
  138SAPE  C21915031   4.542   3.825   8.790  0.5446  0.4411  0.0072
  138SAPE  H19R15032   4.486   3.921   8.788  1.8171  1.3377  2.4466
  138SAPE  H19S15033   4.486   3.740   8.748  1.2356 -0.8470  1.5972
  138SAPE  C22015034   4.672   3.842   8.709 -0.2685 -0.4502 -0.0208
  138SAPE  H20R15035   4.645   3.893   8.614  0.4763 -0.5318 -0.2849
  138SAPE  H20S15036   4.707   3.737   8.696  0.4602 -0.3419  0.9396
  138SAPE  H20T15037   4.743   3.896   8.776 -1.5999  0.6341  0.5634
  138SAPE   C3315038   3.931   3.714  10.039  0.1457  0.4094  0.0442
  138SAPE   H3X15039   3.997   3.797  10.071  0.2654 -0.2502  1.6460
  138SAPE   H3Y15040   3.828   3.752  10.021 -0.1135 -0.9941 -1.7136
  138SAPE   C3415041   3.953   3.658   9.896  0.1839 -0.6526 -0.2652
  138SAPE   H4X15042   3.909   3.558   9.879 -3.3287  0.8760 -1.1031
  138SAPE   H4Y15043   4.062   3.643   9.883 -0.0011 -3.6430  0.7312
  138SAPE   C3515044   3.899   3.753   9.792  0.5201 -0.7563  0.7406
  138SAPE   H5X15045   3.953   3.848   9.778 -0.6332 -0.2473 -0.5045
  138SAPE   H5Y15046   3.793   3.777   9.813  0.1564 -1.3324 -0.3348
  138SAPE   C3615047   3.897   3.681   9.655 -0.1679  0.1512 -0.4171
  138SAPE   H6X15048   3.876   3.760   9.580 -0.2606 -1.3883 -2.1127
  138SAPE   H6Y15049   3.825   3.596   9.659 -0.7471  0.6742  0.5264
  138SAPE   C3715050   4.038   3.621   9.621  0.7276  0.0733  0.3960
  138SAPE   H7X15051   4.059   3.565   9.715 -0.6283 -0.2666  0.5238
  138SAPE   H7Y15052   4.111   3.703   9.607 -2.3268  2.7333 -1.2621
  138SAPE   C3815053   4.036   3.526   9.502 -0.2248  0.2537 -0.1857
  138SAPE   H8X15054   3.967   3.443   9.528  0.8383 -1.1948 -1.7478
  138SAPE   H8Y15055   4.132   3.474   9.485 -1.2269 -1.8373  0.1445
  138SAPE   C3915056   3.998   3.593   9.370 -0.3543  0.3067  0.6519
  138SAPE   H9X15057   4.056   3.687   9.360 -0.3262  0.0482 -3.3234
  138SAPE   H9Y15058   3.890   3.617   9.380 -0.2731  0.1697  2.0211
  138SAPE  C31015059   4.035   3.496   9.252 -0.1851  0.4693 -0.0184
  138SAPE  H10X15060   3.978   3.401   9.262 -1.8065  1.4905  0.6813
  138SAPE  H10Y15061   4.139   3.459   9.264  0.1609  1.0389 -1.1094
  138SAPE  C31115062   4.015   3.567   9.114  0.4033  0.0395  0.1923
  138SAPE  H11X15063   4.063   3.667   9.122 -0.7055  0.9051 -2.8165
  138SAPE  H11Y15064   3.908   3.577   9.090  0.4594 -1.6908 -0.9169
  138SAPE  C31215065   4.068   3.480   8.999 -0.6538 -0.4099  0.8232
  138SAPE  H12X15066   4.178   3.469   9.012 -0.4435  0.7699  0.1309
  138SAPE  H12Y15067   4.056   3.527   8.899  2.6368 -1.8078 -0.3568
  138SAPE  C31315068   4.000   3.340   8.978 -0.0157 -0.2595 -0.4292
  138SAPE  H13X15069   4.002   3.283   9.073  1.0877  2.0297  1.0084
  138SAPE  H13Y15070   4.063   3.291   8.901  0.5977  0.7774 -0.6141
  138SAPE  C31415071   3.849   3.348   8.940 -0.4922  0.4635 -0.0230
  138SAPE  H14X15072   3.810   3.436   8.997 -3.0098 -0.0497 -0.8183
  138SAPE  H14Y15073   3.806   3.255   8.981  0.1552  0.4916  0.7468
  138SAPE  C31515074   3.824   3.358   8.787 -0.9882  0.9451  0.8777
  138SAPE  H15X15075   3.870   3.270   8.737 -0.6730  0.6199  1.7116
  138SAPE  H15Y15076   3.883   3.446   8.752 -0.6718 -0.5717 -2.8369
  138SAPE  C31615077   3.685   3.382   8.728 -0.0912 -1.0306  0.2190
  138SAPE  H16X15078   3.688   3.436   8.632  1.3194  0.8926  1.2796
  138SAPE  H16Y15079   3.651   3.464   8.795  2.3504  2.7567 -2.7838
  138SAPE  C31715080   3.598   3.260   8.721 -0.1597  0.1518 -0.1189
  138SAPE  H17X15081   3.491   3.291   8.728  0.1548  1.0922  0.7734
  138SAPE  H17Y15082   3.622   3.200   8.811 -0.7078  0.1004  0.0001
  138SAPE  C31815083   3.613   3.170   8.596  0.1890  0.0271  0.9547
  138SAPE  H18X15084   3.590   3.231   8.507  0.2173 -1.5448 -0.1792
  138SAPE  H18Y15085   3.539   3.087   8.588 -1.0541  1.3067 -3.2131
  138SAPE  H18Z15086   3.715   3.130   8.579  0.3154  1.5738 -3.1228
  139SAPE     N15087   2.455   1.963  11.030 -0.0502 -0.1634 -0.1380
  139SAPE   HN115088   2.440   1.885  11.097 -2.2369  1.1566  1.0050
  139SAPE   HN215089   2.544   2.010  11.055 -0.9366  0.2797  2.5017
  139SAPE   HN315090   2.384   2.039  11.037 -0.5403 -0.6651  0.3676
  139SAPE   C1215091   2.443   1.933  10.884 -0.3546  0.5607 -0.1331
  139SAPE  H12A15092   2.385   1.838  10.875 -0.4257  0.7225 -1.4449
  139SAPE  H12B15093   2.549   1.933  10.853  0.0415  0.8342  1.1318
  139SAPE   C1115094   2.375   2.042  10.802 -0.3753  0.3970 -0.3075
  139SAPE  H11A15095   2.265   2.033  10.819 -0.3044 -0.3204 -0.1960
  139SAPE  H11B15096   2.388   2.031  10.692 -0.4556  1.1483 -0.3991
  139SAPE     P15097   2.549   2.249  10.798 -0.0945 -0.6238  0.0507
  139SAPE   O1315098   2.619   2.307  10.917 -0.0440 -0.3608  0.0166
  139SAPE   O1415099   2.616   2.149  10.710 -0.9650  0.0199  0.0433
  139SAPE   O1215100   2.416   2.171  10.851 -0.2137 -0.1383 -0.3823
  139SAPE   O1115101   2.510   2.366  10.699 -0.0181 -0.5087  0.4907
  139SAPE    C115102   2.376   2.404  10.664  0.7671 -0.1111  0.2406
  139SAPE    HA15103   2.312   2.402  10.755 -1.3937 -0.9435 -1.2198
  139SAPE    HB15104   2.360   2.507  10.625 -2.7605 -0.2504  0.9274
  139SAPE    C215105   2.316   2.312  10.545  0.0326  0.2115 -0.0089
  139SAPE    HS15106   2.315   2.206  10.578 -0.5694 -0.4457 -1.9912
  139SAPE   O2115107   2.394   2.333  10.426 -0.2614  0.5808  0.0246
  139SAPE   C2115108   2.438   2.229  10.369  0.5102 -0.4794  0.1155
  139SAPE   O2215109   2.428   2.113  10.407 -0.3138 -0.0675  0.2763
  139SAPE   C2215110   2.524   2.284  10.258 -0.0140 -0.3272 -0.0405
  139SAPE   H2R15111   2.455   2.340  10.191  0.6644  1.3555  0.6126
  139SAPE   H2S15112   2.595   2.357  10.301  0.8270 -0.7418 -0.7180
  139SAPE    C315113   2.166   2.343  10.524 -0.1043 -0.1428  0.2210
  139SAPE    HX15114   2.149   2.449  10.495  2.8058 -0.3897 -3.1183
  139SAPE    HY15115   2.110   2.318  10.616 -1.6630 -0.2151 -0.7050
  139SAPE   O3115116   2.124   2.270  10.413 -0.4207 -0.0797  0.5975
  139SAPE   C3115117   2.105   2.139  10.432 -0.1275  0.0288 -0.3893
  139SAPE   O3215118   2.101   2.082  10.540 -0.1191  0.9069  0.0882
  139SAPE   C3215119   2.079   2.069  10.295 -0.1671 -0.0602 -0.2990
  139SAPE   H2X15120   1.970   2.081  10.280 -0.4422 -1.4966  0.3711
  139SAPE   H2Y15121   2.099   1.960  10.307 -0.7563 -0.1111  0.2515
  139SAPE   C2315122   2.594   2.172  10.179 -0.0615 -0.9036 -0.2608
  139SAPE   H3R15123   2.518   2.107  10.132 -0.5867 -1.2589  1.0394
  139SAPE   H3S15124   2.646   2.100  10.245  0.6978  1.2144  1.5786
  139SAPE   C2415125   2.697   2.226  10.068 -0.3571  0.5805  0.4477
  139SAPE   H4R15126   2.729   2.137  10.010  1.2200  0.4416  1.4500
  139SAPE   H4S15127   2.792   2.274  10.103 -0.6892  2.0631 -0.5943
  139SAPE   C2515128   2.642   2.323   9.972 -0.7305  0.0551 -0.4670
  139SAPE   H5R15129   2.619   2.424  10.011  0.9243  0.8468 -1.4346
  139SAPE   C2615130   2.620   2.303   9.847  0.3197  0.0025  0.3565
  139SAPE   H6R15131   2.563   2.379   9.791 -0.0540 -0.2231  0.4293
  139SAPE   C2715132   2.631   2.171   9.776 -0.1717 -0.1965 -0.7261
  139SAPE   H7R15133   2.578   2.176   9.679 -4.0010 -3.9220  0.8829
  139SAPE   H7S15134   2.572   2.092   9.827 -1.7811  0.2789 -1.7944
  139SAPE   C2815135   2.768   2.121   9.750 -0.0892 -0.2102  0.0974
  139SAPE   H8R15136   2.818   2.066   9.830  2.1901  0.9421 -0.4583
  139SAPE   C2915137   2.840   2.138   9.639  0.0409 -0.0593  0.6800
  139SAPE   H9R15138   2.941   2.095   9.651 -1.2003 -3.2675  0.4113
  139SAPE  C21015139   2.813   2.195   9.496  0.1159  0.5702  0.0799
  139SAPE  H10R15140   2.899   2.241   9.443  0.4541 -1.4041 -1.1730
  139SAPE  H10S15141   2.733   2.273   9.496  0.9487  1.4575  1.5177
  139SAPE  C21115142   2.743   2.093   9.412  0.0376  0.3470  0.5366
  139SAPE  H11R15143   2.655   2.041   9.452 -1.3778  1.1419 -1.3827
  139SAPE  C21215144   2.766   2.047   9.286 -0.2218 -0.3602 -0.0865
  139SAPE  H12R15145   2.688   1.980   9.248 -0.8932  0.1648  0.3342
  139SAPE  C21315146   2.872   2.092   9.183  0.0425  0.3488 -0.1496
  139SAPE  H13R15147   2.934   2.175   9.225 -0.4112  0.0495  1.1473
  139SAPE  H13S15148   2.809   2.139   9.104 -0.8466 -1.0576 -0.2981
  139SAPE  C21415149   2.956   1.988   9.124 -0.1496  0.6265 -0.5654
  139SAPE  H14R15150   2.984   1.916   9.202 -0.9996  0.2491 -0.6027
  139SAPE  C21515151   3.001   1.977   8.999 -0.5163  0.2611  0.9284
  139SAPE  H15R15152   3.056   1.886   8.970 -0.7313  0.4313 -0.0545
  139SAPE  C21615153   2.974   2.072   8.878  0.0162  0.1356 -0.0562
  139SAPE  H16R15154   3.034   2.165   8.886 -1.2381  0.9199  0.6648
  139SAPE  H16S15155   2.869   2.107   8.869  0.3221  0.7339 -1.5757
  139SAPE  C21715156   2.988   1.985   8.749  0.3667 -0.4825  1.3335
  139SAPE  H17R15157   2.921   1.898   8.760  0.1706 -1.1798 -3.1933
  139SAPE  H17S15158   3.094   1.953   8.742  1.1570  2.1537 -0.6042
  139SAPE  C21815159   2.936   2.065   8.626 -0.3422  0.7895 -1.4373
  139SAPE  H18R15160   2.833   2.104   8.640 -0.0763  1.3569 -1.0311
  139SAPE  H18S15161   2.915   2.003   8.536  0.3215  0.8954 -1.6732
  139SAPE  C21915162   3.032   2.184   8.587 -0.3991 -0.1390  0.0198
  139SAPE  H19R15163   3.135   2.144   8.578 -0.1824  0.6148 -1.0620
  139SAPE  H19S15164   3.036   2.253   8.674  0.2737  0.3773 -0.4139
  139SAPE  C22015165   3.014   2.249   8.450  0.8086 -0.2681 -0.5332
  139SAPE  H20R15166   3.089   2.331   8.438  0.1083  0.9856  2.5699
  139SAPE  H20S15167   2.911   2.290   8.443  0.4654 -1.0854 -0.3577
  139SAPE  H20T15168   3.008   2.168   8.375  1.5342 -0.9388  0.1142
  139SAPE   C3315169   2.149   2.133  10.176  0.0960 -0.0892 -0.2802
  139SAPE   H3X15170   2.256   2.142  10.205 -0.5696  1.0995  2.0090
  139SAPE   H3Y15171   2.109   2.231  10.144 -0.6391 -0.4876 -0.5924
  139SAPE   C3415172   2.152   2.026  10.066  0.0813  0.0936  0.0663
  139SAPE   H4X15173   2.047   2.003  10.036  0.4805 -1.4889 -0.1973
  139SAPE   H4Y15174   2.199   1.933  10.105 -0.7244 -0.4617 -0.2748
  139SAPE   C3515175   2.225   2.082   9.940  0.2934 -0.0008  0.4077
  139SAPE   H5X15176   2.319   2.136   9.967  1.0207 -0.0279 -1.8811
  139SAPE   H5Y15177   2.169   2.174   9.914  0.6465  0.3336  0.7983
  139SAPE   C3615178   2.245   1.988   9.822  0.0829  0.1405 -0.9107
  139SAPE   H6X15179   2.150   1.938   9.794 -1.0699  2.8980 -2.3317
  139SAPE   H6Y15180   2.328   1.915   9.836  1.2688  1.6678  0.3875
  139SAPE   C3715181   2.274   2.067   9.692  0.1148 -0.3637  0.3995
  139SAPE   H7X15182   2.362   2.135   9.691 -0.1301 -0.0500 -0.1549
  139SAPE   H7Y15183   2.190   2.137   9.672  2.4376  2.7117  0.6249
  139SAPE   C3815184   2.290   1.966   9.574 -0.2601  0.4283 -0.1695
  139SAPE   H8X15185   2.199   1.903   9.563 -0.7622  0.6609  2.1115
  139SAPE   H8Y15186   2.376   1.902   9.601 -0.6876 -0.1018 -0.0328
  139SAPE   C3915187   2.317   2.031   9.443  0.6991  0.1511 -0.3937
  139SAPE   H9X15188   2.392   2.110   9.467 -1.4232  1.9471  0.7377
  139SAPE   H9Y15189   2.232   2.095   9.411  1.5306  1.4214 -0.1409
  139SAPE  C31015190   2.363   1.936   9.342 -0.1843  0.9378  0.5477
  139SAPE  H10X15191   2.281   1.860   9.335 -0.0759  0.8033  0.7042
  139SAPE  H10Y15192   2.462   1.889   9.361  0.1651  1.3434 -0.2406
  139SAPE  C31115193   2.373   2.008   9.205 -0.1832  0.7868  0.1463
  139SAPE  H11X15194   2.436   2.100   9.214 -0.3569  0.7444  2.3136
  139SAPE  H11Y15195   2.269   2.037   9.180  0.2177  0.4727 -2.0640
  139SAPE  C31215196   2.437   1.913   9.105  0.2513 -0.3121  0.0990
  139SAPE  H12X15197   2.358   1.839   9.080 -0.3344  0.8128 -1.5313
  139SAPE  H12Y15198   2.528   1.865   9.145  0.5372 -1.2914 -1.6174
  139SAPE  C31315199   2.481   1.971   8.973 -0.5396  0.1684  0.1159
  139SAPE  H13X15200   2.517   1.889   8.907 -1.5489  0.0656 -0.3310
  139SAPE  H13Y15201   2.554   2.054   8.984  1.3958 -1.3733 -0.4775
  139SAPE  C31415202   2.347   2.027   8.902  0.6089  0.0229 -0.1743
  139SAPE  H14X15203   2.324   2.135   8.917  0.9804  0.2482 -1.1514
  139SAPE  H14Y15204   2.267   1.966   8.948  1.0445 -0.1939  0.3127
  139SAPE  C31515205   2.349   2.006   8.752  0.1679  0.1309  0.1717
  139SAPE  H15X15206   2.376   1.904   8.716 -0.7205  0.0233 -0.1965
  139SAPE  H15Y15207   2.432   2.065   8.709 -0.9104  0.4272 -1.5747
  139SAPE  C31615208   2.220   2.062   8.695 -0.0446  0.2237  0.8389
  139SAPE  H16X15209   2.140   2.009   8.751  0.3026 -2.1283 -0.7262
  139SAPE  H16Y15210   2.209   2.172   8.702 -3.0166 -0.0407  1.4024
  139SAPE  C31715211   2.200   2.041   8.545 -0.4261 -0.1449 -0.7289
  139SAPE  H17X15212   2.271   2.105   8.488  0.6616  0.1027  0.8420
  139SAPE  H17Y15213   2.096   2.072   8.524 -0.3568 -0.5771 -1.7949
  139SAPE  C31815214   2.218   1.904   8.492  0.7659 -0.3649  0.5153
  139SAPE  H18X15215   2.324   1.873   8.478  0.5415 -0.5151 -1.0171
  139SAPE  H18Y15216   2.182   1.894   8.387 -2.1611 -1.9620  1.5582
  139SAPE  H18Z15217   2.166   1.824   8.549 -1.8018  1.1283  0.4019
  140SAPE     N15218   6.679   0.063  10.747 -0.7710  0.3818 -0.0358
  140SAPE   HN115219   6.716   0.099  10.837 -1.0570  0.6584 -0.0290
  140SAPE   HN215220   6.736   0.118  10.680  1.0001  0.6814  1.6181
  140SAPE   HN315221   6.582   0.099  10.741 -1.4150 -1.4466 -1.4520
  140SAPE   C1215222   6.679  -0.083  10.710 -0.0667  0.0972 -0.6381
  140SAPE  H12A15223   6.628  -0.100  10.613  3.2139 -1.0147 -2.3417
  140SAPE  H12B15224   6.623  -0.140  10.786 -0.4398  2.8937  1.3375
  140SAPE   C1115225   6.814  -0.152  10.712 -0.1260 -0.2315 -0.5016
  140SAPE  H11A15226   6.871  -0.142  10.617 -0.3476 -0.9341 -0.7172
  140SAPE  H11B15227   6.781  -0.258  10.710 -1.6865  0.2348 -0.7054
  140SAPE     P15228   6.924  -0.214  10.942  0.3878  0.4102  0.3518
  140SAPE   O1315229   7.019  -0.152  11.039  0.7548 -0.4230 -0.5279
  140SAPE   O1415230   6.792  -0.259  10.990  0.6584  0.0079 -0.2883
  140SAPE   O1215231   6.900  -0.115  10.826  0.1328  0.2179 -0.1018
  140SAPE   O1115232   6.988  -0.348  10.870 -0.3890  0.3229  0.7407
  140SAPE    C115233   7.112  -0.340  10.804  0.1745 -0.5730 -0.2428
  140SAPE    HA15234   7.166  -0.248  10.833  0.0400  0.4757 -3.0648
  140SAPE    HB15235   7.168  -0.431  10.835 -1.4083 -0.8889  1.9696
  140SAPE    C215236   7.095  -0.348  10.650  0.6981  0.3903 -0.4260
  140SAPE    HS15237   7.027  -0.263  10.627  0.5655  0.6674  0.9249
  140SAPE   O2115238   7.052  -0.486  10.620  0.0292  0.2191 -0.0950
  140SAPE   C2115239   6.970  -0.505  10.518 -0.3125 -0.0651  0.1036
  140SAPE   O2215240   6.923  -0.414  10.449 -0.5935  0.6994  0.1265
  140SAPE   C2215241   6.951  -0.651  10.494 -0.0865 -0.1523  0.8519
  140SAPE   H2R15242   7.025  -0.708  10.554 -0.2038 -2.7494 -1.2847
  140SAPE   H2S15243   6.843  -0.671  10.512 -0.4451  0.8364 -0.0897
  140SAPE    C315244   7.232  -0.317  10.588 -0.4873 -0.1004  0.0678
  140SAPE    HX15245   7.306  -0.377  10.646  1.5339  1.7156 -0.4821
  140SAPE    HY15246   7.278  -0.218  10.607  0.9380 -0.8165  0.5115
  140SAPE   O3115247   7.232  -0.356  10.448  0.2367  0.1177 -0.9597
  140SAPE   C3115248   7.171  -0.263  10.374 -0.4067 -0.6719 -0.3652
  140SAPE   O3215249   7.139  -0.153  10.418 -0.3856  0.2815 -0.3892
  140SAPE   C3215250   7.159  -0.314  10.235 -0.0515  0.1232  0.0413
  140SAPE   H2X15251   7.129  -0.421  10.240 -1.4992  0.5676  2.4320
  140SAPE   H2Y15252   7.255  -0.319  10.179 -0.6859 -0.4134 -1.0177
  140SAPE   C2315253   6.995  -0.694  10.350  0.6112  0.8960  0.0814
  140SAPE   H3R15254   7.103  -0.670  10.344  0.9643 -0.9308 -1.9519
  140SAPE   H3S15255   6.927  -0.649  10.275 -0.8741 -0.7653  0.3579
  140SAPE   C2415256   6.981  -0.843  10.329 -0.5095  0.0413 -0.0232
  140SAPE   H4R15257   7.051  -0.891  10.401  1.0161  2.1554  0.0034
  140SAPE   H4S15258   7.022  -0.880  10.233  0.5567 -0.5079  0.6211
  140SAPE   C2515259   6.839  -0.898  10.339 -0.1265 -0.5523 -0.6591
  140SAPE   H5R15260   6.798  -0.886  10.441 -3.2333  0.1054 -1.8691
  140SAPE   C2615261   6.757  -0.947  10.238  0.0241 -0.4953 -0.3628
  140SAPE   H6R15262   6.662  -0.993  10.269 -1.2801  2.2776  0.0526
  140SAPE   C2715263   6.788  -0.975  10.095  0.2574  0.5332 -0.1687
  140SAPE   H7R15264   6.838  -1.074  10.090  1.2761  0.9380  1.3348
  140SAPE   H7S15265   6.865  -0.900  10.068 -0.1269  0.6294 -1.0233
  140SAPE   C2815266   6.672  -0.968  10.003 -0.0110  1.1580  0.1330
  140SAPE   H8R15267   6.573  -0.995  10.044  0.0773  1.1553  0.3480
  140SAPE   C2915268   6.681  -0.931   9.875 -0.5885 -0.3005  0.3183
  140SAPE   H9R15269   6.594  -0.941   9.809 -0.0498 -0.3946 -0.3867
  140SAPE  C21015270   6.807  -0.899   9.794 -0.1342 -0.2167 -0.3629
  140SAPE  H10R15271   6.894  -0.888   9.862 -1.7291  0.0701  1.7219
  140SAPE  H10S15272   6.783  -0.811   9.730 -0.1930  0.5215  0.6651
  140SAPE  C21115273   6.839  -1.017   9.705  0.1691  0.3812 -0.7215
  140SAPE  H11R15274   6.866  -1.108   9.762  1.4785  1.6482  0.7830
  140SAPE  C21215275   6.849  -1.022   9.570 -0.2489 -0.6713  0.5966
  140SAPE  H12R15276   6.888  -1.115   9.526 -0.4250 -0.7570  0.6235
  140SAPE  C21315277   6.844  -0.922   9.455 -0.0115 -0.4830 -0.1965
  140SAPE  H13R15278   6.939  -0.903   9.403  0.4256 -0.7609  0.4841
  140SAPE  H13S15279   6.825  -0.821   9.496  1.0420 -0.7149  0.9182
  140SAPE  C21415280   6.730  -0.957   9.360 -0.3926  0.0581  0.5319
  140SAPE  H14R15281   6.678  -1.053   9.373 -2.2222  1.1435  1.4877
  140SAPE  C21515282   6.699  -0.882   9.250  0.1041  0.2754 -0.3265
  140SAPE  H15R15283   6.616  -0.919   9.187  0.6433  0.6323 -1.2673
  140SAPE  C21615284   6.762  -0.745   9.211  0.8132 -0.7976  0.7049
  140SAPE  H16R15285   6.853  -0.723   9.270  0.7694 -0.4076  0.6274
  140SAPE  H16S15286   6.686  -0.665   9.223  1.5223 -0.0965  0.6083
  140SAPE  C21715287   6.812  -0.752   9.062 -0.3825 -0.1133 -0.1617
  140SAPE  H17R15288   6.879  -0.834   9.028 -1.0296  0.3413 -2.7440
  140SAPE  H17S15289   6.861  -0.654   9.045  1.8031 -1.0165  0.4912
  140SAPE  C21815290   6.687  -0.751   8.972 -0.2103 -0.1326  1.1038
  140SAPE  H18R15291   6.619  -0.838   8.986  0.9778 -1.3575 -0.3774
  140SAPE  H18S15292   6.727  -0.761   8.869  1.4019  1.3050  1.5370
  140SAPE  C21915293   6.611  -0.615   8.969 -0.0071 -0.2462 -0.5792
  140SAPE  H19R15294   6.687  -0.534   8.961 -2.2212  2.0373  0.1142
  140SAPE  H19S15295   6.561  -0.611   9.068  1.5484 -1.0604  0.2884
  140SAPE  C22015296   6.518  -0.608   8.853 -0.1793  0.1516 -0.5239
  140SAPE  H20R15297   6.580  -0.642   8.767  0.5290  1.0430 -0.3827
  140SAPE  H20S15298   6.482  -0.506   8.828 -3.0837 -1.2738 -2.8063
  140SAPE  H20T15299   6.425  -0.667   8.862  0.7048 -1.2730 -0.2855
  140SAPE   C3315300   7.034  -0.247  10.159 -0.4801 -0.0104  0.2723
  140SAPE   H3X15301   7.072  -0.176  10.083 -0.2750  0.7370  1.0515
  140SAPE   H3Y15302   6.959  -0.206  10.230 -0.9004 -1.3099  0.5970
  140SAPE   C3415303   6.970  -0.358  10.078  0.4187  0.6379 -0.5406
  140SAPE   H4X15304   6.876  -0.317  10.035  1.1505  2.4736 -0.4906
  140SAPE   H4Y15305   6.945  -0.443  10.145  2.1924  0.6662  0.2289
  140SAPE   C3515306   7.052  -0.433   9.966  0.0000  0.3470 -0.3992
  140SAPE   H5X15307   7.156  -0.405   9.993 -1.0400  0.5347  4.3607
  140SAPE   H5Y15308   7.018  -0.394   9.868 -0.8139  0.5095 -0.0578
  140SAPE   C3615309   7.036  -0.585   9.982  0.2914  0.1602  0.0789
  140SAPE   H6X15310   6.927  -0.605   9.978  0.3318  0.0709 -1.5129
  140SAPE   H6Y15311   7.073  -0.603  10.085 -0.3789  0.8955  0.4564
  140SAPE   C3715312   7.114  -0.676   9.891 -0.5391 -0.0760 -0.3273
  140SAPE   H7X15313   7.091  -0.784   9.898 -1.0077  0.0362 -0.0735
  140SAPE   H7Y15314   7.221  -0.656   9.913 -0.6501  4.2610 -2.5471
  140SAPE   C3815315   7.089  -0.629   9.752  0.1790 -0.2375 -0.6248
  140SAPE   H8X15316   7.124  -0.525   9.740  0.0325 -0.2987 -1.6276
  140SAPE   H8Y15317   6.981  -0.626   9.726  0.4002  1.3224 -1.4620
  140SAPE   C3915318   7.157  -0.714   9.651 -0.3126 -0.2379 -0.0514
  140SAPE   H9X15319   7.121  -0.819   9.654 -3.0249  0.6183  1.0012
  140SAPE   H9Y15320   7.265  -0.715   9.674 -0.5049  2.2287  1.3041
  140SAPE  C31015321   7.150  -0.648   9.518  0.4096  0.3972  0.1458
  140SAPE  H10X15322   7.196  -0.547   9.511 -1.6669  1.2566 -3.2137
  140SAPE  H10Y15323   7.043  -0.632   9.494  1.0899  3.6102 -1.4203
  140SAPE  C31115324   7.211  -0.724   9.404  0.2139 -0.3837  0.0923
  140SAPE  H11X15325   7.177  -0.829   9.390  0.0055 -0.2965 -0.0687
  140SAPE  H11Y15326   7.318  -0.733   9.429  0.4125 -0.7027 -0.8107
  140SAPE  C31215327   7.183  -0.647   9.272  0.1020  0.0722 -0.3901
  140SAPE  H12X15328   7.205  -0.540   9.287  0.1008  0.2915 -1.8765
  140SAPE  H12Y15329   7.075  -0.637   9.248  0.1945  2.3869 -0.0759
  140SAPE  C31315330   7.252  -0.710   9.147  0.7874  0.6660  0.3375
  140SAPE  H13X15331   7.357  -0.735   9.174  0.2971 -1.3329  0.5704
  140SAPE  H13Y15332   7.267  -0.642   9.061  0.6067  0.3942  0.0861
  140SAPE  C31415333   7.181  -0.823   9.076  0.0762 -0.3872 -0.4417
  140SAPE  H14X15334   7.097  -0.775   9.022  0.9105  0.0567 -1.3775
  140SAPE  H14Y15335   7.141  -0.899   9.147 -0.0531 -0.2287 -0.3449
  140SAPE  C31515336   7.256  -0.906   8.968 -0.2679  0.0426 -0.2474
  140SAPE  H15X15337   7.271  -0.820   8.900  0.9643  0.3453  0.3792
  140SAPE  H15Y15338   7.191  -0.978   8.915 -0.0587  0.8543 -1.6546
  140SAPE  C31615339   7.395  -0.967   9.002  0.0719 -0.1344 -0.5608
  140SAPE  H16X15340   7.366  -1.049   9.072 -0.0197 -0.5565 -1.0868
  140SAPE  H16Y15341   7.463  -0.898   9.056 -1.3378 -0.1610  1.3617
  140SAPE  C31715342   7.461  -1.056   8.892  0.0304 -0.2029  0.3552
  140SAPE  H17X15343   7.384  -1.119   8.842 -0.7160  0.2922  0.8657
  140SAPE  H17Y15344   7.547  -1.116   8.928  0.4937 -0.0976 -0.5212
  140SAPE  C31815345   7.515  -0.963   8.777 -0.0530  0.3880 -0.1893
  140SAPE  H18X15346   7.539  -1.013   8.681 -0.0747 -0.1575  0.0852
  140SAPE  H18Y15347   7.607  -0.908   8.808  1.3257 -0.9172 -1.7852
  140SAPE  H18Z15348   7.433  -0.890   8.763 -1.9111 -1.1198  2.0548
  141SAPE     N15349   6.631   3.954  10.854 -0.6186 -0.6727  0.5778
  141SAPE   HN115350   6.554   4.019  10.883  0.9726  1.3708  0.5026
  141SAPE   HN215351   6.704   3.997  10.914 -0.2145  0.5890 -0.7605
  141SAPE   HN315352   6.646   3.965  10.752 -2.2769 -0.6223  0.3021
  141SAPE   C1215353   6.607   3.805  10.896  0.5526 -0.2143  0.4899
  141SAPE  H12A15354   6.690   3.749  10.848 -2.9197 -2.4955 -3.5693
  141SAPE  H12B15355   6.511   3.777  10.847  0.2092  0.7873  0.5589
  141SAPE   C1115356   6.618   3.777  11.045  0.2475 -0.1944 -0.1222
  141SAPE  H11A15357   6.726   3.794  11.066  0.3676 -1.5845  0.5265
  141SAPE  H11B15358   6.611   3.674  11.086  1.4213 -0.5618 -0.8006
  141SAPE     P15359   6.381   3.814  11.154  0.3706  0.1836 -0.0086
  141SAPE   O1315360   6.391   3.747  11.287  0.1450  0.4784  0.6249
  141SAPE   O1415361   6.292   3.936  11.138  0.0879  0.1468 -0.3620
  141SAPE   O1215362   6.528   3.872  11.115 -0.0826  0.1915 -0.2108
  141SAPE   O1115363   6.331   3.706  11.050 -0.2414 -0.3472  0.7390
  141SAPE    C115364   6.189   3.694  11.021  0.4938  0.0286 -0.5075
  141SAPE    HA15365   6.164   3.586  11.024  0.7482 -0.0993 -2.1558
  141SAPE    HB15366   6.132   3.751  11.097  1.5598 -0.1100  0.4203
  141SAPE    C215367   6.141   3.743  10.879 -0.2733  0.0836  0.1806
  141SAPE    HS15368   6.035   3.716  10.863  0.1152 -0.8189 -0.9881
  141SAPE   O2115369   6.228   3.706  10.774  0.1029  0.2788 -0.0333
  141SAPE   C2115370   6.205   3.595  10.708 -0.1164 -0.0811  0.1786
  141SAPE   O2215371   6.116   3.515  10.739  0.2583 -0.0529 -0.1765
  141SAPE   C2215372   6.316   3.567  10.611  0.0536 -0.3426 -0.4813
  141SAPE   H2R15373   6.411   3.599  10.658  0.4181 -3.0512  0.8264
  141SAPE   H2S15374   6.323   3.458  10.588  2.0142 -0.5425  0.8335
  141SAPE    C315375   6.133   3.897  10.873  0.0429  0.3909  1.0810
  141SAPE    HX15376   6.232   3.946  10.886  1.3506 -1.9104  0.2435
  141SAPE    HY15377   6.080   3.940  10.960 -1.6563  1.5360 -0.4424
  141SAPE   O3115378   6.061   3.941  10.761  0.1961  0.3763  0.7125
  141SAPE   C3115379   6.129   4.001  10.667  0.8041 -0.3403  0.1355
  141SAPE   O3215380   6.249   4.021  10.667 -0.8975  0.4683  0.2711
  141SAPE   C3215381   6.038   4.049  10.552 -0.9868 -0.3725  0.5049
  141SAPE   H2X15382   5.954   4.111  10.590 -0.5171  1.1303 -0.8276
  141SAPE   H2Y15383   6.007   3.962  10.491  0.0952 -1.4872  1.4888
  141SAPE   C2315384   6.292   3.663  10.491  0.2503 -0.2884 -0.2361
  141SAPE   H3R15385   6.387   3.663  10.432  0.0054  1.2801 -0.6812
  141SAPE   H3S15386   6.283   3.766  10.533  2.2897 -1.0374  2.3087
  141SAPE   C2415387   6.167   3.612  10.421  0.6413 -0.1726 -0.3131
  141SAPE   H4R15388   6.130   3.693  10.355 -0.3537 -0.4541 -0.1255
  141SAPE   H4S15389   6.078   3.596  10.486  1.0857  0.8368  0.5747
  141SAPE   C2515390   6.192   3.482  10.356 -0.4366 -0.0485 -0.7452
  141SAPE   H5R15391   6.210   3.400  10.427 -0.2706  0.2113 -0.4843
  141SAPE   C2615392   6.180   3.451  10.226  0.5689  0.6259 -0.5117
  141SAPE   H6R15393   6.213   3.349  10.202 -2.6967 -1.0010  1.1699
  141SAPE   C2715394   6.143   3.540  10.107 -0.4642  0.2114 -0.0221
  141SAPE   H7R15395   6.171   3.486  10.015  1.7783  1.1447  0.0462
  141SAPE   H7S15396   6.212   3.627  10.115 -1.8459  1.4046 -0.6296
  141SAPE   C2815397   6.007   3.599  10.103  0.3478  0.4660 -0.5514
  141SAPE   H8R15398   5.977   3.660  10.189  1.0348 -0.9372  0.7337
  141SAPE   C2915399   5.921   3.591  10.001 -0.1409  0.2231  0.1775
  141SAPE   H9R15400   5.822   3.636  10.015 -0.3702  0.0310 -0.7759
  141SAPE  C21015401   5.928   3.521   9.866  0.6255 -0.1200 -0.1238
  141SAPE  H10R15402   5.824   3.514   9.828  0.9832  2.5878 -1.9289
  141SAPE  H10S15403   5.961   3.419   9.895 -0.7822 -0.7464 -0.6767
  141SAPE  C21115404   6.022   3.581   9.760  0.3765 -0.7949 -0.0713
  141SAPE  H11R15405   6.127   3.593   9.788  0.8701 -1.1947 -1.6541
  141SAPE  C21215406   5.990   3.608   9.635 -0.0886 -0.2349  0.6589
  141SAPE  H12R15407   6.063   3.657   9.569  0.7748 -1.7772  0.4233
  141SAPE  C21315408   5.858   3.580   9.561  0.2176  0.1622  0.4782
  141SAPE  H13R15409   5.810   3.679   9.540 -0.9029 -0.3426  0.5844
  141SAPE  H13S15410   5.787   3.524   9.625  1.9238 -0.6164  1.7360
  141SAPE  C21415411   5.884   3.486   9.445 -0.3742  0.1996 -0.1139
  141SAPE  H14R15412   5.928   3.391   9.477  1.3102  0.4372 -1.5756
  141SAPE  C21515413   5.858   3.516   9.316 -0.8888 -0.1007 -0.0890
  141SAPE  H15R15414   5.883   3.447   9.235 -0.5933 -0.0978 -0.0016
  141SAPE  C21615415   5.788   3.636   9.267  0.4862 -0.3396  0.3557
  141SAPE  H16R15416   5.861   3.720   9.275  0.8071 -0.5491 -0.3612
  141SAPE  H16S15417   5.707   3.668   9.337  1.3051 -1.2036  1.7230
  141SAPE  C21715418   5.737   3.626   9.120 -0.2949  0.2770 -0.6848
  141SAPE  H17R15419   5.645   3.685   9.103 -0.2234  0.6307  0.0858
  141SAPE  H17S15420   5.706   3.522   9.097  1.6294 -0.6889  0.7442
  141SAPE  C21815421   5.857   3.646   9.019  0.7774  0.1438 -1.0906
  141SAPE  H18R15422   5.940   3.709   9.057  0.9054 -0.1825 -0.8244
  141SAPE  H18S15423   5.811   3.702   8.935 -0.2393  1.8876  0.5486
  141SAPE  C21915424   5.928   3.519   8.957  0.1287  0.7791  0.0849
  141SAPE  H19R15425   5.854   3.453   8.907 -0.2807  1.9198 -0.8840
  141SAPE  H19S15426   5.980   3.462   9.037  0.0205  0.6419  0.0575
  141SAPE  C22015427   6.037   3.548   8.848 -0.3547 -0.1533 -0.0857
  141SAPE  H20R15428   5.987   3.601   8.765 -0.7271 -0.3535  0.0104
  141SAPE  H20S15429   6.081   3.452   8.813 -0.4511  0.3824 -1.7638
  141SAPE  H20T15430   6.121   3.612   8.882 -0.8832 -1.1361  3.6304
  141SAPE   C3315431   6.113   4.155  10.463  0.1358  0.3186 -0.4698
  141SAPE   H3X15432   6.167   4.242  10.505  0.8296 -0.2094 -0.2542
  141SAPE   H3Y15433   6.031   4.208  10.411  0.7025  1.3456 -0.3433
  141SAPE   C3415434   6.193   4.090  10.348  0.2092  0.5573 -0.1912
  141SAPE   H4X15435   6.141   3.993  10.332  0.0627  0.3635  1.2707
  141SAPE   H4Y15436   6.290   4.077  10.399 -0.3105 -1.0455  0.4348
  141SAPE   C3515437   6.211   4.169  10.219 -0.6722  0.3161 -0.4489
  141SAPE   H5X15438   6.261   4.104  10.145  0.3328  0.3261  0.2014
  141SAPE   H5Y15439   6.276   4.254  10.249 -0.4275  0.1700 -0.5625
  141SAPE   C3615440   6.077   4.233  10.169  0.0083 -0.4788  0.8485
  141SAPE   H6X15441   6.055   4.333  10.212 -0.5582  1.6787 -3.7823
  141SAPE   H6Y15442   6.000   4.158  10.195 -0.0221 -0.4730  0.7761
  141SAPE   C3715443   6.082   4.240  10.012 -0.0552 -0.2237  0.3712
  141SAPE   H7X15444   5.978   4.250   9.974 -0.7231  1.3480  2.4391
  141SAPE   H7Y15445   6.128   4.140   9.995 -0.0131  0.3286 -4.0737
  141SAPE   C3815446   6.167   4.354   9.958 -0.6766  0.7231  0.3880
  141SAPE   H8X15447   6.264   4.369  10.011  0.3791  1.5548 -1.6400
  141SAPE   H8Y15448   6.111   4.450   9.967 -2.4006  0.1603 -2.8334
  141SAPE   C3915449   6.208   4.325   9.810 -0.0246  0.1079 -0.0439
  141SAPE   H9X15450   6.266   4.231   9.816 -1.9688 -1.0729  2.4941
  141SAPE   H9Y15451   6.270   4.409   9.773 -0.2284  0.0374 -0.5539
  141SAPE  C31015452   6.099   4.291   9.712 -0.1066  0.6037  0.2054
  141SAPE  H10X15453   6.014   4.359   9.736 -0.1277  1.2450 -1.5632
  141SAPE  H10Y15454   6.064   4.186   9.721 -0.7156  0.8897  1.4578
  141SAPE  C31115455   6.150   4.304   9.565 -1.0801  0.5335  0.1878
  141SAPE  H11X15456   6.231   4.228   9.554 -1.3267  0.2051  0.6043
  141SAPE  H11Y15457   6.205   4.399   9.549  2.2068 -1.2927 -0.1967
  141SAPE  C31215458   6.038   4.266   9.464 -0.5906 -0.6968 -0.1368
  141SAPE  H12X15459   5.945   4.321   9.490 -0.4500 -1.1876  1.5185
  141SAPE  H12Y15460   6.019   4.157   9.469  0.4522 -0.8571  1.0840
  141SAPE  C31315461   6.079   4.314   9.323  0.3033 -0.5652  0.0568
  141SAPE  H13X15462   6.165   4.257   9.282  0.3664 -0.1900 -0.3493
  141SAPE  H13Y15463   6.116   4.419   9.326  1.1357 -0.8033 -1.1513
  141SAPE  C31415464   5.961   4.306   9.227 -0.7883  1.2820  0.1038
  141SAPE  H14X15465   5.875   4.354   9.278 -1.1462 -1.1919  1.9619
  141SAPE  H14Y15466   5.951   4.197   9.209  2.5751  0.7500  0.7735
  141SAPE  C31515467   5.985   4.380   9.094  0.8730  0.0298  0.5556
  141SAPE  H15X15468   6.078   4.334   9.052 -1.3027 -2.3865 -2.0049
  141SAPE  H15Y15469   6.001   4.490   9.107  0.8327  0.0462  0.4700
  141SAPE  C31615470   5.878   4.341   8.987 -0.0220 -0.1737 -0.7715
  141SAPE  H16X15471   5.790   4.397   9.025  0.7087  0.3757  0.1715
  141SAPE  H16Y15472   5.865   4.231   8.980  0.7734 -0.2847 -0.6381
  141SAPE  C31715473   5.921   4.383   8.849 -0.2328 -0.3902 -0.8027
  141SAPE  H17X15474   6.017   4.329   8.831  1.2456  1.3601  1.2433
  141SAPE  H17Y15475   5.931   4.493   8.849  0.0795 -0.4168 -1.4428
  141SAPE  C31815476   5.817   4.361   8.736 -0.2248 -0.1587 -0.0065
  141SAPE  H18X15477   5.869   4.390   8.642 -1.4172  2.0192 -0.0565
  141SAPE  H18Y15478   5.726   4.425   8.743  0.3617  0.8285 -0.9719
  141SAPE  H18Z15479   5.795   4.255   8.716 -2.2125  0.3627 -0.7983
  142SAPE     N15480   0.392   5.000  11.212 -0.0252  0.7769 -0.2679
  142SAPE   HN115481   0.344   4.913  11.182 -0.8762  0.7794  1.0057
  142SAPE   HN215482   0.379   4.998  11.315 -0.4812  0.1046 -0.3268
  142SAPE   HN315483   0.337   5.084  11.185 -3.4849 -0.9824  0.6918
  142SAPE   C1215484   0.532   5.023  11.180 -0.8827 -0.2158  0.2391
  142SAPE  H12A15485   0.585   4.929  11.154  0.7125  1.0795 -1.4759
  142SAPE  H12B15486   0.586   5.081  11.258 -2.1453 -0.1351  1.0910
  142SAPE   C1115487   0.544   5.113  11.053 -0.0850  0.2008 -0.1260
  142SAPE  H11A15488   0.490   5.060  10.971  0.7355  0.8197 -1.0908
  142SAPE  H11B15489   0.653   5.110  11.030 -0.6584 -0.8018 -3.1677
  142SAPE     P15490   0.555   5.362  11.134 -0.0865  0.2954  0.0575
  142SAPE   O1315491   0.458   5.462  11.185 -0.2623 -0.9163 -0.1140
  142SAPE   O1415492   0.658   5.311  11.228 -0.5171  0.0532  0.8473
  142SAPE   O1215493   0.476   5.238  11.079 -0.1184  0.0993  0.4590
  142SAPE   O1115494   0.635   5.417  11.009 -0.7714 -0.4467 -0.6469
  142SAPE    C115495   0.563   5.503  10.922  0.3950  0.2456 -0.1543
  142SAPE    HA15496   0.499   5.571  10.982  1.0615  0.2106  0.6057
  142SAPE    HB15497   0.624   5.572  10.860 -1.4676  0.6302 -1.6547
  142SAPE    C215498   0.465   5.426  10.833  0.0271 -0.3973 -0.5480
  142SAPE    HS15499   0.411   5.350  10.893  1.6625 -1.3146 -0.1891
  142SAPE   O2115500   0.536   5.377  10.716 -0.0880 -0.0027  0.6628
  142SAPE   C2115501   0.492   5.274  10.653  0.1214 -0.0174 -0.1134
  142SAPE   O2215502   0.395   5.208  10.679  0.1083 -0.3139 -0.4994
  142SAPE   C2215503   0.592   5.255  10.532  0.6984  0.0256 -0.0571
  142SAPE   H2R15504   0.674   5.330  10.526  1.8084 -1.1910 -0.7436
  142SAPE   H2S15505   0.644   5.160  10.556  1.8923  0.5665 -0.4380
  142SAPE    C315506   0.355   5.539  10.783 -0.4706  0.1983 -0.3535
  142SAPE    HX15507   0.398   5.640  10.762 -1.6403  0.0473 -4.1554
  142SAPE    HY15508   0.284   5.551  10.867 -1.2423 -0.8261 -0.8424
  142SAPE   O3115509   0.270   5.492  10.679  0.1255 -0.3214  0.0870
  142SAPE   C3115510   0.184   5.578  10.623 -0.2284  0.4451  0.3481
  142SAPE   O3215511   0.170   5.694  10.662 -0.0981  0.0926 -0.5386
  142SAPE   C3215512   0.098   5.508  10.512  0.5852 -0.3181 -0.7989
  142SAPE   H2X15513   0.001   5.558  10.532  1.7655  1.8025 -0.0938
  142SAPE   H2Y15514   0.093   5.404  10.551  0.0958  0.8770  2.7040
  142SAPE   C2315515   0.511   5.239  10.397  0.3492  0.1862  0.2077
  142SAPE   H3R15516   0.482   5.341  10.366 -1.5412  0.0794  1.4723
  142SAPE   H3S15517   0.418   5.181  10.406  1.2621 -1.4763 -0.6396
  142SAPE   C2415518   0.597   5.151  10.298 -0.0945  0.0785  0.1681
  142SAPE   H4R15519   0.524   5.114  10.223  0.6425  1.7862 -1.4500
  142SAPE   H4S15520   0.627   5.056  10.348 -3.2268 -2.5336 -2.3918
  142SAPE   C2515521   0.715   5.214  10.231 -0.2511  0.2476  0.2076
  142SAPE   H5R15522   0.804   5.224  10.296 -0.6882  1.7070  0.6308
  142SAPE   C2615523   0.728   5.255  10.105  0.0536  0.0941  0.5426
  142SAPE   H6R15524   0.817   5.310  10.071  0.1089 -0.5527 -0.3906
  142SAPE   C2715525   0.614   5.246  10.003  0.2820 -0.1632 -0.3057
  142SAPE   H7R15526   0.611   5.337   9.939 -0.6693 -1.2506 -1.8865
  142SAPE   H7S15527   0.515   5.245  10.054 -0.1578  1.4739 -1.0732
  142SAPE   C2815528   0.618   5.114   9.930  0.0641  0.3486 -0.1405
  142SAPE   H8R15529   0.570   5.032   9.986 -0.6067 -1.4455 -3.1257
  142SAPE   C2915530   0.666   5.091   9.806  0.6747 -0.0997  0.0182
  142SAPE   H9R15531   0.664   4.992   9.758  0.3195  0.9683 -2.3130
  142SAPE  C21015532   0.717   5.197   9.710  0.3158 -0.2786 -0.4566
  142SAPE  H10R15533   0.782   5.256   9.778 -0.0392 -2.6497  2.1025
  142SAPE  H10S15534   0.633   5.263   9.678  0.5320  1.0863  1.5624
  142SAPE  C21115535   0.783   5.140   9.592  0.3108 -0.1656 -0.2949
  142SAPE  H11R15536   0.889   5.162   9.573 -0.3525  1.8294 -2.0803
  142SAPE  C21215537   0.737   5.062   9.490 -0.1208 -0.3553 -0.0720
  142SAPE  H12R15538   0.809   5.045   9.408  0.3304  0.9901  0.0059
  142SAPE  C21315539   0.593   5.010   9.474  0.1100  0.0268  0.0156
  142SAPE  H13R15540   0.531   5.040   9.561  1.1933 -0.7739  1.0888
  142SAPE  H13S15541   0.588   4.899   9.482  1.1722 -0.0367 -0.0603
  142SAPE  C21415542   0.539   5.061   9.348 -0.0817 -0.0882 -0.4146
  142SAPE  H14R15543   0.562   5.168   9.336 -0.4518  0.0168 -0.1850
  142SAPE  C21515544   0.467   4.993   9.251 -0.0704 -0.3081 -0.3283
  142SAPE  H15R15545   0.446   5.042   9.154 -2.0508  1.1012  0.7365
  142SAPE  C21615546   0.439   4.841   9.264 -0.0616 -0.2375 -0.1505
  142SAPE  H16R15547   0.349   4.824   9.326 -0.8291  2.3808 -0.4170
  142SAPE  H16S15548   0.531   4.792   9.303  0.0004  0.7455  0.9943
  142SAPE  C21715549   0.393   4.786   9.127 -0.5824 -0.4054 -0.0312
  142SAPE  H17R15550   0.301   4.836   9.089 -0.5886  0.1775  0.7267
  142SAPE  H17S15551   0.357   4.681   9.131 -1.9269  0.0481  0.5864
  142SAPE  C21815552   0.498   4.808   9.011  0.0474  0.1045 -0.3231
  142SAPE  H18R15553   0.599   4.773   9.041  0.9984  1.7347 -1.4653
  142SAPE  H18S15554   0.492   4.915   8.981 -1.8078  0.3719  0.8243
  142SAPE  C21915555   0.456   4.731   8.887 -1.1064 -0.3012  0.5409
  142SAPE  H19R15556   0.356   4.761   8.850 -0.2989  0.3319 -1.2509
  142SAPE  H19S15557   0.462   4.626   8.923  2.4405  0.2029  1.7950
  142SAPE  C22015558   0.563   4.753   8.781  0.5006  0.3425  0.6141
  142SAPE  H20R15559   0.602   4.857   8.776  0.7093  0.2559  0.3810
  142SAPE  H20S15560   0.529   4.727   8.678 -1.9030  1.3816  1.0879
  142SAPE  H20T15561   0.651   4.691   8.807  1.4546  1.6540  0.6561
  142SAPE   C3315562   0.139   5.532  10.365  0.4403 -0.6386  0.1704
  142SAPE   H3X15563   0.249   5.528  10.358  0.4618 -1.0494  0.6669
  142SAPE   H3Y15564   0.110   5.639  10.363 -1.1643 -0.9634  2.1812
  142SAPE   C3415565   0.073   5.442  10.262 -0.0870 -0.4712 -0.0296
  142SAPE   H4X15566  -0.032   5.468  10.234  0.0217 -0.5077 -0.4813
  142SAPE   H4Y15567   0.074   5.343  10.313  0.8039 -0.5090 -0.1089
  142SAPE   C3515568   0.147   5.445  10.128 -0.2197  0.7985 -0.2656
  142SAPE   H5X15569   0.242   5.387  10.130 -2.5255 -3.5778 -1.9667
  142SAPE   H5Y15570   0.147   5.551  10.095  1.7791  1.1662  0.7462
  142SAPE   C3615571   0.074   5.346  10.024 -0.3491 -0.7780 -0.6822
  142SAPE   H6X15572  -0.035   5.368  10.025 -0.1318  0.3744 -0.8303
  142SAPE   H6Y15573   0.091   5.238  10.043 -1.1680 -0.8856 -0.5321
  142SAPE   C3715574   0.120   5.372   9.881 -0.3847  1.0276  0.2810
  142SAPE   H7X15575   0.226   5.339   9.875  0.4522  3.2122  1.6611
  142SAPE   H7Y15576   0.134   5.481   9.868  1.5349  0.5046 -3.2419
  142SAPE   C3815577   0.044   5.308   9.769 -0.0803 -0.5515 -0.0195
  142SAPE   H8X15578  -0.050   5.363   9.746 -0.0910  0.5456  2.3162
  142SAPE   H8Y15579   0.008   5.205   9.794  1.1083 -1.0182 -0.1821
  142SAPE   C3915580   0.133   5.303   9.644  0.0408  0.3593 -0.0421
  142SAPE   H9X15581   0.209   5.224   9.662 -0.0473 -0.0349 -1.2968
  142SAPE   H9Y15582   0.186   5.400   9.638  1.9069 -0.6829 -1.8678
  142SAPE  C31015583   0.055   5.271   9.518 -0.1000  0.1231  0.4009
  142SAPE  H10X15584  -0.004   5.360   9.489 -1.5450 -1.2188 -0.9421
  142SAPE  H10Y15585  -0.010   5.182   9.534 -0.1074  0.4575  2.6196
  142SAPE  C31115586   0.152   5.235   9.402 -0.5407 -0.1316 -0.3937
  142SAPE  H11X15587   0.092   5.222   9.309 -2.4364  1.6388  0.4987
  142SAPE  H11Y15588   0.183   5.133   9.433 -1.0830 -0.2320 -0.1720
  142SAPE  C31215589   0.274   5.334   9.373 -0.6081  0.0334 -0.3659
  142SAPE  H12X15590   0.336   5.285   9.294 -1.1751  0.9216 -1.3803
  142SAPE  H12Y15591   0.336   5.364   9.460  0.7290  0.3715 -1.4012
  142SAPE  C31315592   0.233   5.474   9.305  0.7860  1.0072 -0.3703
  142SAPE  H13X15593   0.322   5.527   9.265 -0.3108  2.3485 -1.1743
  142SAPE  H13Y15594   0.185   5.538   9.382  1.2128  0.7165  0.1393
  142SAPE  C31415595   0.131   5.468   9.197  0.1010 -0.9866  0.6098
  142SAPE  H14X15596   0.048   5.400   9.225 -1.2048  0.2028 -0.1978
  142SAPE  H14Y15597   0.185   5.431   9.107 -1.7780 -0.6353 -0.7250
  142SAPE  C31515598   0.085   5.611   9.161  0.2396  0.1850 -0.0342
  142SAPE  H15X15599   0.170   5.678   9.135 -0.6083  0.8895 -1.1110
  142SAPE  H15Y15600   0.046   5.654   9.256  0.0674  2.3304 -1.0102
  142SAPE  C31615601  -0.030   5.612   9.055 -0.7801  0.0540  0.2425
  142SAPE  H16X15602  -0.078   5.712   9.050 -3.0229 -0.9126  1.0529
  142SAPE  H16Y15603  -0.110   5.539   9.081 -0.9945  0.4315  0.6524
  142SAPE  C31715604   0.017   5.585   8.906 -0.0078 -0.5443  0.0703
  142SAPE  H17X15605  -0.074   5.588   8.842 -0.8195  2.6441  1.1650
  142SAPE  H17Y15606   0.067   5.487   8.892  2.4605  0.4011  1.5832
  142SAPE  C31815607   0.113   5.696   8.869 -0.0346  0.6850  0.8026
  142SAPE  H18X15608   0.069   5.796   8.890  1.6213  1.7135 -0.4180
  142SAPE  H18Y15609   0.125   5.693   8.759 -0.0594  0.3560  0.8089
  142SAPE  H18Z15610   0.212   5.682   8.916  0.2779  0.9531  0.2328
  143SAPE     N15611   2.094   4.435  10.824  0.3043 -0.0008  0.2503
  143SAPE   HN115612   2.031   4.489  10.761 -1.8655  0.3443  2.5408
  143SAPE   HN215613   2.196   4.444  10.809  0.4535  0.5317  1.4295
  143SAPE   HN315614   2.063   4.336  10.812 -2.8284  0.9534 -0.4877
  143SAPE   C1215615   2.052   4.485  10.964  0.5667 -0.1312 -0.1895
  143SAPE  H12A15616   2.059   4.596  10.957 -0.7009 -0.1342 -2.6791
  143SAPE  H12B15617   2.118   4.451  11.046  1.6231  1.2519 -0.4243
  143SAPE   C1115618   1.905   4.447  10.998 -0.6572 -0.4805  0.2451
  143SAPE  H11A15619   1.830   4.492  10.930 -1.3727  2.0757  2.5255
  143SAPE  H11B15620   1.869   4.501  11.088 -0.7016  1.2717 -0.7770
  143SAPE     P15621   1.822   4.218  10.928  0.1322  0.5807 -0.0666
  143SAPE   O1315622   1.846   4.075  10.956 -0.3331  0.7227  0.1451
  143SAPE   O1415623   1.680   4.265  10.929  0.6820 -0.0261 -0.2143
  143SAPE   O1215624   1.898   4.309  11.025  0.5486  0.1384 -0.0477
  143SAPE   O1115625   1.896   4.259  10.792 -0.3825  0.5048  0.4588
  143SAPE    C115626   1.817   4.241  10.673 -0.2757 -0.0934 -0.1181
  143SAPE    HA15627   1.886   4.249  10.585  0.9393  0.7684  0.8727
  143SAPE    HB15628   1.755   4.149  10.679  0.7697 -0.9478 -1.4626
  143SAPE    C215629   1.725   4.362  10.644 -0.5827 -0.0734 -0.4033
  143SAPE    HS15630   1.722   4.420  10.739 -0.3528  1.8987 -1.5351
  143SAPE   O2115631   1.597   4.309  10.603 -0.2585 -0.3774  0.0519
  143SAPE   C2115632   1.500   4.393  10.631  0.5835 -0.1605 -0.0941
  143SAPE   O2215633   1.503   4.495  10.689  0.0362 -0.5293  0.8283
  143SAPE   C2215634   1.376   4.334  10.567  0.1679  0.1333  0.7992
  143SAPE   H2R15635   1.385   4.360  10.459 -1.6324  0.9525  0.8115
  143SAPE   H2S15636   1.374   4.223  10.571 -1.6888  0.1278  0.7000
  143SAPE    C315637   1.780   4.465  10.535  0.7135  0.6205  0.5579
  143SAPE    HX15638   1.878   4.509  10.563  1.7979  0.5096 -2.6507
  143SAPE    HY15639   1.723   4.560  10.529  2.3281  1.6084  0.4797
  143SAPE   O3115640   1.803   4.416  10.400 -0.1092 -0.0382  0.0331
  143SAPE   C3115641   1.702   4.434  10.317  0.1140  0.0191 -0.1419
  143SAPE   O3215642   1.591   4.480  10.344 -0.4151 -0.0868  0.2560
  143SAPE   C3215643   1.746   4.386  10.177  0.0614 -0.2240 -0.5453
  143SAPE   H2X15644   1.764   4.280  10.206 -0.0538  0.3636  1.9278
  143SAPE   H2Y15645   1.844   4.433  10.157  1.8294 -1.3022  4.2155
  143SAPE   C2315646   1.239   4.384  10.618  0.1222  0.4271 -0.2201
  143SAPE   H3R15647   1.235   4.399  10.728 -1.4226 -2.2738  0.1799
  143SAPE   H3S15648   1.165   4.303  10.599 -1.7387  2.2637 -1.3666
  143SAPE   C2415649   1.196   4.509  10.541  0.2749 -0.1235  0.5492
  143SAPE   H4R15650   1.221   4.493  10.434  1.7406  0.0988  0.8354
  143SAPE   H4S15651   1.265   4.594  10.561 -1.3915  1.4921 -0.3114
  143SAPE   C2515652   1.051   4.543  10.572 -0.9790 -0.0632 -0.1261
  143SAPE   H5R15653   1.019   4.519  10.675  0.5219 -1.7962 -0.0190
  143SAPE   C2615654   0.965   4.609  10.501 -0.1203  0.6343  0.4648
  143SAPE   H6R15655   0.861   4.619  10.536 -0.3484  1.1278 -0.3266
  143SAPE   C2715656   0.993   4.666  10.362  0.1254 -0.5692 -0.2643
  143SAPE   H7R15657   0.949   4.605  10.279 -1.2280  0.1620 -0.1162
  143SAPE   H7S15658   1.101   4.683  10.345 -0.0620  0.2174 -0.6891
  143SAPE   C2815659   0.921   4.798  10.353  0.4877 -0.1983  0.4764
  143SAPE   H8R15660   0.868   4.831  10.444  1.2282  0.6162  0.6329
  143SAPE   C2915661   0.905   4.874  10.245  0.2085  0.2207 -0.7030
  143SAPE   H9R15662   0.860   4.974  10.246 -2.5302 -0.9258  0.1734
  143SAPE  C21015663   0.960   4.832  10.108 -0.1837  0.0704 -0.5949
  143SAPE  H10R15664   0.884   4.764  10.064 -0.1915  0.8894 -1.8808
  143SAPE  H10S15665   1.051   4.769  10.116 -1.1384 -1.4468 -1.2913
  143SAPE  C21115666   0.982   4.943  10.009  0.8350  0.2237 -0.0700
  143SAPE  H11R15667   1.000   5.042  10.052 -2.2929  1.5620 -1.6063
  143SAPE  C21215668   1.001   4.919   9.884 -0.0579  0.3693  0.2133
  143SAPE  H12R15669   1.018   5.010   9.825 -2.0380 -0.3854 -1.6072
  143SAPE  C21315670   1.002   4.792   9.809  0.5003 -0.0246 -0.1171
  143SAPE  H13R15671   0.962   4.705   9.865 -0.4650 -0.7674 -1.8883
  143SAPE  H13S15672   1.109   4.777   9.782  0.9426  0.6256  1.1954
  143SAPE  C21415673   0.925   4.805   9.673 -0.3709  0.3313 -0.0122
  143SAPE  H14R15674   0.825   4.845   9.694 -0.5850 -0.2005  0.0190
  143SAPE  C21515675   0.971   4.783   9.549 -0.3915  0.3924 -0.0108
  143SAPE  H15R15676   0.909   4.795   9.459  0.2485  1.0194 -0.3760
  143SAPE  C21615677   1.094   4.720   9.500 -0.2397 -0.6982 -0.6653
  143SAPE  H16R15678   1.147   4.669   9.583 -0.0268 -0.6253 -0.7577
  143SAPE  H16S15679   1.154   4.801   9.454 -0.4476  0.7184  1.4299
  143SAPE  C21715680   1.058   4.605   9.404  0.0389  0.4651  0.1357
  143SAPE  H17R15681   1.004   4.638   9.312  1.3632  0.4551 -0.6643
  143SAPE  H17S15682   0.992   4.539   9.464  0.1195 -1.4554 -1.7880
  143SAPE  C21815683   1.183   4.529   9.348 -0.1303  0.2465 -0.5947
  143SAPE  H18R15684   1.249   4.489   9.429 -2.8141  0.0210  1.6159
  143SAPE  H18S15685   1.249   4.595   9.288  1.0182 -1.4404 -1.2776
  143SAPE  C21915686   1.156   4.408   9.258 -0.3093 -0.4434  0.5453
  143SAPE  H19R15687   1.257   4.368   9.233 -0.5620 -1.1829  0.6826
  143SAPE  H19S15688   1.109   4.446   9.165  3.3212 -1.6425 -2.0146
  143SAPE  C22015689   1.081   4.289   9.320 -0.3014 -0.4361 -0.1478
  143SAPE  H20R15690   1.095   4.199   9.256 -0.7842 -2.6311  2.6534
  143SAPE  H20S15691   0.972   4.310   9.326 -0.3240 -0.5868 -0.0261
  143SAPE  H20T15692   1.122   4.268   9.421  1.4929  3.0387  0.0002
  143SAPE   C3315693   1.635   4.399  10.063  0.2220 -0.3616 -0.1474
  143SAPE   H3X15694   1.681   4.465   9.987 -1.0343 -0.6567 -1.2005
  143SAPE   H3Y15695   1.546   4.447  10.109  0.3661 -0.3416  0.1160
  143SAPE   C3415696   1.597   4.271   9.990  0.0318 -0.0514  0.3713
  143SAPE   H4X15697   1.505   4.313   9.943  0.4085  2.0709  1.3878
  143SAPE   H4Y15698   1.574   4.191  10.063 -0.9215 -2.3143 -2.2238
  143SAPE   C3515699   1.714   4.238   9.888 -0.2747 -0.6395  0.0716
  143SAPE   H5X15700   1.809   4.219   9.943  0.2883  2.0502  0.1799
  143SAPE   H5Y15701   1.732   4.335   9.837 -0.7705 -0.4560  0.2390
  143SAPE   C3615702   1.682   4.114   9.802  0.3173  0.5231 -0.3052
  143SAPE   H6X15703   1.596   4.135   9.734  0.2589  0.2702 -0.3106
  143SAPE   H6Y15704   1.651   4.035   9.873  0.4458  2.1459  1.6658
  143SAPE   C3715705   1.804   4.062   9.732 -0.0844  0.8131  0.4916
  143SAPE   H7X15706   1.788   3.962   9.686 -2.4605  1.4891 -0.2944
  143SAPE   H7Y15707   1.899   4.063   9.789  0.8958  1.2160 -1.0769
  143SAPE   C3815708   1.854   4.148   9.615  0.7627 -0.5418  1.0320
  143SAPE   H8X15709   1.846   4.258   9.624  1.8056 -0.4153  0.5635
  143SAPE   H8Y15710   1.789   4.129   9.528  2.4211  0.1946 -0.4268
  143SAPE   C3915711   1.994   4.111   9.560 -0.2385  0.1696 -0.0261
  143SAPE   H9X15712   2.014   4.163   9.464 -1.9166 -0.0595 -0.5222
  143SAPE   H9Y15713   1.995   4.002   9.539 -3.4745 -0.2466  1.3975
  143SAPE  C31015714   2.113   4.135   9.655  0.3774  0.0755 -0.2165
  143SAPE  H10X15715   2.188   4.054   9.643  0.6676  0.4872 -1.3014
  143SAPE  H10Y15716   2.076   4.161   9.756 -1.7028 -2.0622 -0.3423
  143SAPE  C31115717   2.187   4.260   9.595  0.4132 -0.2498  0.4395
  143SAPE  H11X15718   2.117   4.346   9.599 -1.2799 -1.4750 -0.9272
  143SAPE  H11Y15719   2.214   4.244   9.488  1.4367  0.8218  0.5138
  143SAPE  C31215720   2.313   4.295   9.678 -0.2829 -0.5198 -0.3325
  143SAPE  H12X15721   2.407   4.246   9.643 -1.0084 -2.6809  0.5694
  143SAPE  H12Y15722   2.303   4.257   9.782 -1.2080 -1.0425 -0.6046
  143SAPE  C31315723   2.330   4.447   9.715  0.3743  0.3197  0.7575
  143SAPE  H13X15724   2.319   4.518   9.630  0.5388  0.2119  0.6474
  143SAPE  H13Y15725   2.435   4.468   9.744  0.5900 -0.2506  0.4098
  143SAPE  C31415726   2.247   4.495   9.835  0.4977  0.6529 -0.2093
  143SAPE  H14X15727   2.140   4.465   9.830  0.5288  0.4997  0.0252
  143SAPE  H14Y15728   2.231   4.604   9.820  1.0714  0.4998 -2.1492
  143SAPE  C31515729   2.298   4.478   9.980 -0.2881 -0.2263  0.0273
  143SAPE  H15X15730   2.382   4.550   9.979 -0.5560  0.1214 -1.8565
  143SAPE  H15Y15731   2.338   4.375   9.988 -1.8466 -0.8474  0.1696
  143SAPE  C31615732   2.185   4.507  10.076  0.8134  0.0151 -0.0133
  143SAPE  H16X15733   2.122   4.416  10.062  1.6428 -0.6390  0.4202
  143SAPE  H16Y15734   2.127   4.600  10.055  0.4712 -0.0745  0.5076
  143SAPE  C31715735   2.238   4.508  10.219  0.4246 -0.9214 -0.0981
  143SAPE  H17X15736   2.328   4.444  10.227  0.5088 -1.0132 -1.6055
  143SAPE  H17Y15737   2.157   4.473  10.286  1.4696 -3.3588 -0.0153
  143SAPE  C31815738   2.290   4.651  10.254 -0.0735 -0.4495  0.1924
  143SAPE  H18X15739   2.347   4.694  10.169 -0.7311  1.6975  0.7552
  143SAPE  H18Y15740   2.366   4.643  10.334 -0.6284  0.6411  0.8609
  143SAPE  H18Z15741   2.215   4.728  10.283 -0.0786  0.0790 -1.1561
  144SAPE     N15742   4.785   5.034  10.600  0.6097 -0.2056 -0.6033
  144SAPE   HN115743   4.878   4.988  10.599 -0.0338 -1.5751 -0.3008
  144SAPE   HN215744   4.719   4.963  10.561  1.4231 -0.7788 -0.9676
  144SAPE   HN315745   4.793   5.128  10.557 -3.6123 -0.0811 -1.6045
  144SAPE   C1215746   4.737   5.054  10.745 -0.9550  0.1630  0.3624
  144SAPE  H12A15747   4.747   4.954  10.793  0.3528 -0.6641 -1.4911
  144SAPE  H12B15748   4.629   5.076  10.738 -1.2493  0.1357  3.4750
  144SAPE   C1115749   4.809   5.173  10.821 -0.3162 -0.4875  0.2923
  144SAPE  H11A15750   4.918   5.159  10.811 -0.0959  1.0040  0.4913
  144SAPE  H11B15751   4.782   5.167  10.928 -1.0086  3.7945  0.5142
  144SAPE     P15752   4.857   5.382  10.675 -0.2271 -0.2656 -0.2000
  144SAPE   O1315753   4.787   5.506  10.636  0.6509  0.0605  0.4969
  144SAPE   O1415754   4.988   5.401  10.745  0.3853 -0.1569  0.0983
  144SAPE   O1215755   4.766   5.297  10.769  0.0848 -0.4745  0.5089
  144SAPE   O1115756   4.876   5.286  10.547 -0.0177 -0.4435  0.0306
  144SAPE    C115757   5.007   5.252  10.500 -0.6529 -0.2086 -0.2743
  144SAPE    HA15758   5.070   5.228  10.589 -1.6994  0.0519  0.5659
  144SAPE    HB15759   4.996   5.166  10.431  2.9930 -0.0997 -1.1804
  144SAPE    C215760   5.071   5.370  10.417  0.0623  0.1680  0.2437
  144SAPE    HS15761   5.066   5.463  10.477 -0.5108 -0.5032  1.2748
  144SAPE   O2115762   5.010   5.370  10.286 -0.5523 -0.5320 -0.2590
  144SAPE   C2115763   4.973   5.493  10.248  0.4978 -0.2233 -0.0330
  144SAPE   O2215764   4.970   5.598  10.307 -0.4558  0.5636 -0.5479
  144SAPE   C2215765   4.932   5.479  10.101  0.6148 -0.7455  0.4197
  144SAPE   H2R15766   5.021   5.507  10.041  0.0849  1.1774  0.4663
  144SAPE   H2S15767   4.903   5.373  10.083 -1.9870  0.2238 -1.7321
  144SAPE    C315768   5.225   5.340  10.397  0.6787  0.3272 -0.1539
  144SAPE    HX15769   5.243   5.241  10.349  0.4125  0.8352 -1.3195
  144SAPE    HY15770   5.282   5.342  10.492  0.6135  0.0474 -0.1087
  144SAPE   O3115771   5.282   5.447  10.318 -0.3489  0.1012  0.0740
  144SAPE   C3115772   5.418   5.426  10.296  0.7359 -0.3492  0.5491
  144SAPE   O3215773   5.473   5.327  10.338 -0.0975  0.8901 -0.0010
  144SAPE   C3215774   5.479   5.545  10.225 -0.2459 -0.0399  0.0076
  144SAPE   H2X15775   5.573   5.583  10.270 -1.2647  4.4380 -1.1544
  144SAPE   H2Y15776   5.416   5.636  10.235  0.7866  0.6256  0.6296
  144SAPE   C2315777   4.811   5.567  10.057 -0.7644 -0.2304 -0.0011
  144SAPE   H3R15778   4.856   5.668  10.064 -0.5531 -0.3503  0.4201
  144SAPE   H3S15779   4.727   5.557  10.128  0.1753 -2.1954  0.9032
  144SAPE   C2415780   4.764   5.540   9.912  0.4235 -0.0109 -0.2102
  144SAPE   H4R15781   4.667   5.595   9.905  0.2981  0.1094  1.8016
  144SAPE   H4S15782   4.747   5.431   9.900 -0.9415  0.2061 -0.4439
  144SAPE   C2515783   4.850   5.587   9.807 -0.2746  0.3447 -0.1127
  144SAPE   H5R15784   4.898   5.685   9.825 -3.0232  2.0231 -1.3059
  144SAPE   C2615785   4.888   5.527   9.690 -0.2728  0.2547 -0.4257
  144SAPE   H6R15786   4.953   5.579   9.618  1.3418  0.5243  1.1394
  144SAPE   C2715787   4.841   5.385   9.653  0.5258 -0.3151  0.1462
  144SAPE   H7R15788   4.739   5.394   9.609  0.6075  1.0600  0.1758
  144SAPE   H7S15789   4.833   5.322   9.743  0.5423  0.4680  0.7064
  144SAPE   C2815790   4.932   5.319   9.559 -0.0158  0.3151 -0.4611
  144SAPE   H8R15791   5.020   5.272   9.606 -1.7592 -2.2146  0.4977
  144SAPE   C2915792   4.914   5.285   9.425 -0.1504 -0.3140  0.2823
  144SAPE   H9R15793   5.004   5.249   9.374 -0.2929  0.5109 -0.6002
  144SAPE  C21015794   4.803   5.310   9.339  0.5441 -0.7341  1.0776
  144SAPE  H10R15795   4.721   5.352   9.400  1.3880 -1.6765  2.9735
  144SAPE  H10S15796   4.778   5.212   9.293  1.8315 -1.7707  2.4730
  144SAPE  C21115797   4.826   5.414   9.232 -0.8913  0.1750 -0.8338
  144SAPE  H11R15798   4.840   5.514   9.276  1.0926 -0.5578  0.3452
  144SAPE  C21215799   4.850   5.396   9.101 -0.7504  0.2669 -0.1310
  144SAPE  H12R15800   4.874   5.489   9.048  0.0418  0.6793  0.9220
  144SAPE  C21315801   4.856   5.267   9.021  0.3313 -0.2251 -0.4015
  144SAPE  H13R15802   4.771   5.276   8.950 -0.0816  1.7737  0.3053
  144SAPE  H13S15803   4.835   5.172   9.075 -0.0175 -1.5307 -2.7056
  144SAPE  C21415804   4.989   5.255   8.952 -0.4516  0.6258 -0.8280
  144SAPE  H14R15805   5.061   5.191   9.005  0.3709  2.0145 -0.2191
  144SAPE  C21515806   5.024   5.311   8.834  0.4340  0.0558  0.2936
  144SAPE  H15R15807   5.122   5.292   8.788  1.7106 -1.7018  3.4494
  144SAPE  C21615808   4.932   5.405   8.754 -0.1544  0.2020  0.3732
  144SAPE  H16R15809   4.992   5.478   8.696 -0.8627  0.1929 -0.3853
  144SAPE  H16S15810   4.858   5.460   8.816  0.7171  0.9756  0.7403
  144SAPE  C21715811   4.842   5.319   8.653  0.2563  0.2324 -0.0615
  144SAPE  H17R15812   4.756   5.383   8.623 -1.1193 -2.1725 -1.5555
  144SAPE  H17S15813   4.803   5.235   8.713  0.2833  1.3046  1.5362
  144SAPE  C21815814   4.914   5.280   8.528 -0.1595 -0.3766  0.2132
  144SAPE  H18R15815   5.002   5.218   8.553  2.0715  1.6762 -2.0107
  144SAPE  H18S15816   4.966   5.365   8.479  1.2297  0.5607  3.0888
  144SAPE  C21915817   4.829   5.209   8.421 -0.3770 -0.0509  0.5016
  144SAPE  H19R15818   4.798   5.110   8.461  0.6461 -0.8891 -0.7108
  144SAPE  H19S15819   4.897   5.189   8.336  2.1540 -0.0046  2.3890
  144SAPE  C22015820   4.710   5.300   8.368 -0.0263  0.8694  0.0980
  144SAPE  H20R15821   4.634   5.293   8.450 -1.2432  0.7417 -1.0111
  144SAPE  H20S15822   4.671   5.265   8.270  3.0402 -1.1677 -0.5432
  144SAPE  H20T15823   4.744   5.405   8.354 -1.2786  1.1675 -0.8949
  144SAPE   C3315824   5.504   5.513  10.072 -0.4837  0.0467  0.4922
  144SAPE   H3X15825   5.546   5.415  10.040 -0.2120  0.8150 -1.6864
  144SAPE   H3Y15826   5.580   5.587  10.042 -0.7403  0.3305  0.5407
  144SAPE   C3415827   5.379   5.538   9.980  0.3308  0.1323 -0.2780
  144SAPE   H4X15828   5.343   5.640  10.008  1.0939 -0.2154  2.1885
  144SAPE   H4Y15829   5.313   5.455  10.012  2.0104 -0.7139  1.1427
  144SAPE   C3515830   5.397   5.540   9.830  0.4838 -0.3870  0.1088
  144SAPE   H5X15831   5.414   5.438   9.790  1.7436  0.4604 -1.6550
  144SAPE   H5Y15832   5.483   5.601   9.794  0.0622 -0.3243 -0.8437
  144SAPE   C3615833   5.268   5.587   9.757 -0.0099 -0.1365  0.1600
  144SAPE   H6X15834   5.212   5.667   9.810  2.4357  1.3266  0.6890
  144SAPE   H6Y15835   5.201   5.499   9.760  0.2235 -0.4494 -2.0281
  144SAPE   C3715836   5.290   5.635   9.611 -0.2608 -0.3982 -0.4463
  144SAPE   H7X15837   5.350   5.728   9.617  0.6150 -1.0779  2.3399
  144SAPE   H7Y15838   5.187   5.646   9.569 -0.4652 -0.3738  0.0513
  144SAPE   C3815839   5.367   5.540   9.519  0.0995  0.5990  0.0450
  144SAPE   H8X15840   5.345   5.432   9.535  3.2192 -0.1733 -0.1637
  144SAPE   H8Y15841   5.476   5.540   9.541  0.0207 -0.0289  0.4735
  144SAPE   C3915842   5.335   5.578   9.372  0.3141  0.6789 -0.8632
  144SAPE   H9X15843   5.234   5.621   9.354  1.2860  2.0692 -3.5114
  144SAPE   H9Y15844   5.322   5.475   9.333 -1.0340  0.2261  0.6928
  144SAPE  C31015845   5.437   5.666   9.290  0.4072 -1.0202  0.5084
  144SAPE  H10X15846   5.476   5.737   9.367 -0.6802 -0.4478  0.5403
  144SAPE  H10Y15847   5.368   5.721   9.224  0.6097 -0.8641  0.4235
  144SAPE  C31115848   5.538   5.593   9.209 -0.2841  0.0787  0.1474
  144SAPE  H11X15849   5.479   5.524   9.145 -0.7969 -1.1292  1.8616
  144SAPE  H11Y15850   5.593   5.535   9.286  0.4154  0.1529 -0.2862
  144SAPE  C31215851   5.630   5.671   9.126  0.0059 -0.1841 -0.4912
  144SAPE  H12X15852   5.705   5.737   9.174  0.9313 -0.7215 -1.1457
  144SAPE  H12Y15853   5.569   5.749   9.076 -1.5326 -1.4007 -0.5872
  144SAPE  C31315854   5.692   5.586   9.010 -0.6654  0.0579 -0.1250
  144SAPE  H13X15855   5.606   5.553   8.947 -1.5057  1.2039  0.4011
  144SAPE  H13Y15856   5.751   5.503   9.055  2.5174  1.2308 -1.7933
  144SAPE  C31415857   5.799   5.665   8.932  0.8875 -0.0820 -0.0506
  144SAPE  H14X15858   5.889   5.668   8.997  0.9961  2.6683 -0.2239
  144SAPE  H14Y15859   5.767   5.768   8.904 -1.8120 -1.1136 -1.1495
  144SAPE  C31515860   5.836   5.604   8.795  0.1508  0.5134  0.7012
  144SAPE  H15X15861   5.802   5.674   8.715  0.5140 -1.6501 -1.4609
  144SAPE  H15Y15862   5.773   5.514   8.780 -1.3005  1.8736 -2.1565
  144SAPE  C31615863   5.988   5.574   8.784 -0.6460 -0.2114 -0.3268
  144SAPE  H16X15864   6.002   5.464   8.787 -0.6528 -0.2530 -1.4094
  144SAPE  H16Y15865   6.038   5.618   8.873  1.0731 -1.1963 -0.7592
  144SAPE  C31715866   6.050   5.612   8.648 -0.1878 -0.6660 -0.7486
  144SAPE  H17X15867   6.000   5.566   8.559 -1.2507  0.0981 -0.5757
  144SAPE  H17Y15868   6.155   5.578   8.651  0.1175  0.3506  0.8694
  144SAPE  C31815869   6.045   5.762   8.619  0.1208  0.0927 -0.5785
  144SAPE  H18X15870   6.110   5.799   8.537  0.8578  2.5569  0.9947
  144SAPE  H18Y15871   6.081   5.822   8.705  1.5655 -0.9409 -0.4427
  144SAPE  H18Z15872   5.942   5.793   8.590 -1.2357  0.7811  4.1394
  145SAPE     N15873   3.240   5.106  11.431  0.0261 -0.1705 -0.3249
  145SAPE   HN115874   3.195   5.197  11.455  2.5568  0.9156  0.6467
  145SAPE   HN215875   3.220   5.040  11.509 -1.6999 -1.0446 -1.4415
  145SAPE   HN315876   3.341   5.131  11.425 -0.0849  1.2793  2.3657
  145SAPE   C1215877   3.192   5.057  11.298 -0.7035 -0.5790 -0.7806
  145SAPE  H12A15878   3.086   5.024  11.309 -2.0840  3.6705  1.0583
  145SAPE  H12B15879   3.265   4.983  11.261  0.9260  0.2789  0.5934
  145SAPE   C1115880   3.200   5.166  11.192 -0.1716  0.0300  0.0873
  145SAPE  H11A15881   3.159   5.134  11.094 -0.6690  1.4030 -0.1702
  145SAPE  H11B15882   3.307   5.186  11.172 -0.5532  0.6188 -1.4750
  145SAPE     P15883   3.020   5.352  11.200 -0.1274  0.4748 -0.0294
  145SAPE   O1315884   2.932   5.279  11.292  0.5426  0.3685  0.6314
  145SAPE   O1415885   3.024   5.499  11.216 -0.2043 -0.1809  0.5503
  145SAPE   O1215886   3.162   5.300  11.220  0.2853  0.2130 -0.6555
  145SAPE   O1115887   2.992   5.311  11.050  0.5723 -0.2040 -0.1025
  145SAPE    C115888   2.887   5.224  11.014  0.0409 -0.0611 -0.1203
  145SAPE    HA15889   2.917   5.124  11.051 -2.8447  0.3053  3.7944
  145SAPE    HB15890   2.785   5.252  11.046  0.2699  1.4476 -0.5919
  145SAPE    C215891   2.885   5.209  10.857  0.0825 -0.6486 -0.0126
  145SAPE    HS15892   2.807   5.132  10.840 -1.2901 -0.0404  2.8481
  145SAPE   O2115893   3.012   5.172  10.811 -0.2067 -0.6470 -0.1043
  145SAPE   C2115894   3.061   5.053  10.835 -0.0947  0.8361  0.0778
  145SAPE   O2215895   3.028   4.965  10.907  0.3019  0.0687 -0.8302
  145SAPE   C2215896   3.200   5.047  10.764  0.6413  0.0767  0.5732
  145SAPE   H2R15897   3.193   5.106  10.671 -3.6422 -0.2791  0.4374
  145SAPE   H2S15898   3.274   5.094  10.832  0.0867  1.2217  0.3975
  145SAPE    C315899   2.851   5.346  10.789 -0.8817 -0.1962 -0.2420
  145SAPE    HX15900   2.932   5.416  10.818 -1.3714  0.8458 -1.3358
  145SAPE    HY15901   2.763   5.389  10.842 -1.1891 -0.7122 -0.3281
  145SAPE   O3115902   2.817   5.341  10.650  0.0143  0.5080  0.4045
  145SAPE   C3115903   2.917   5.395  10.568  0.6639 -0.1246  0.5260
  145SAPE   O3215904   3.022   5.444  10.610  0.0554  0.0053  0.3020
  145SAPE   C3215905   2.868   5.391  10.417  0.4126  0.1084  0.2413
  145SAPE   H2X15906   2.860   5.499  10.390  1.4667  0.0942 -0.1868
  145SAPE   H2Y15907   2.780   5.325  10.403 -0.8386  1.9454 -1.0809
  145SAPE   C2315908   3.251   4.898  10.737  0.0959  0.1164 -0.4810
  145SAPE   H3R15909   3.241   4.821  10.816  1.9909  0.2387 -0.0650
  145SAPE   H3S15910   3.360   4.918  10.738  0.3226 -0.9614  1.3987
  145SAPE   C2415911   3.207   4.832  10.605 -0.5997 -0.2432  0.1420
  145SAPE   H4R15912   3.273   4.745  10.582 -2.0047 -1.5048  0.7253
  145SAPE   H4S15913   3.216   4.897  10.516 -1.9188 -1.8042 -1.1779
  145SAPE   C2515914   3.073   4.782  10.628  0.4446  0.0428  0.5173
  145SAPE   H5R15915   3.060   4.683  10.673 -0.9341 -0.0005  0.0551
  145SAPE   C2615916   2.958   4.837  10.578 -0.0904 -0.0825 -0.6607
  145SAPE   H6R15917   2.862   4.787  10.599 -0.1701 -0.6354 -2.2224
  145SAPE   C2715918   2.943   4.966  10.502  0.3512  0.0546 -0.2744
  145SAPE   H7R15919   2.974   4.948  10.397 -0.7183  0.8887 -0.7570
  145SAPE   H7S15920   3.016   5.035  10.550 -0.2333 -1.1638  2.5492
  145SAPE   C2815921   2.810   5.043  10.493 -0.1697 -0.1417 -0.5765
  145SAPE   H8R15922   2.811   5.141  10.542 -0.8318  0.3177 -1.4599
  145SAPE   C2915923   2.694   5.008  10.432 -0.1805 -0.2503 -0.2177
  145SAPE   H9R15924   2.604   5.072  10.436 -1.6532 -2.2366  1.2704
  145SAPE  C21015925   2.685   4.884  10.344 -0.0025 -0.6305  0.3147
  145SAPE  H10R15926   2.581   4.847  10.351  0.2166 -1.1313  1.0271
  145SAPE  H10S15927   2.736   4.797  10.391 -1.4351 -3.0798 -2.3622
  145SAPE  C21115928   2.730   4.902  10.201  0.2788  0.1053 -0.1339
  145SAPE  H11R15929   2.772   5.003  10.192  1.2159  0.0508  2.7587
  145SAPE  C21215930   2.729   4.815  10.095  0.3023 -0.2384 -0.0533
  145SAPE  H12R15931   2.772   4.849  10.000 -2.0008  1.2993 -0.6240
  145SAPE  C21315932   2.675   4.671  10.090 -0.5634 -0.8307  0.9365
  145SAPE  H13R15933   2.685   4.631   9.987 -0.2162  2.6781 -0.5588
  145SAPE  H13S15934   2.564   4.678  10.101 -0.6395  1.4034 -0.5780
  145SAPE  C21415935   2.733   4.584  10.199  0.0829  0.1118  1.0179
  145SAPE  H14R15936   2.825   4.627  10.241  0.5274 -0.5317  0.7356
  145SAPE  C21515937   2.720   4.448  10.209  0.0782 -0.1548 -0.6534
  145SAPE  H15R15938   2.780   4.398  10.286 -0.3336  3.0427  1.9544
  145SAPE  C21615939   2.640   4.352  10.126  0.0666  0.0268  0.0767
  145SAPE  H16R15940   2.532   4.376  10.121  0.3411  1.1717 -1.1576
  145SAPE  H16S15941   2.629   4.255  10.177 -1.1116 -0.7475 -1.5712
  145SAPE  C21715942   2.680   4.328   9.976 -0.0732 -0.6817  0.0412
  145SAPE  H17R15943   2.791   4.321   9.986 -0.0972  0.2129  1.1831
  145SAPE  H17S15944   2.652   4.408   9.904  1.0820 -0.4343 -0.1548
  145SAPE  C21815945   2.634   4.196   9.927 -0.4606 -0.1147  0.0994
  145SAPE  H18R15946   2.524   4.196   9.921 -0.4013 -0.3932 -1.3227
  145SAPE  H18S15947   2.660   4.120  10.004  2.0957 -1.7584 -2.1989
  145SAPE  C21915948   2.689   4.163   9.788  0.0218 -0.4167 -0.1517
  145SAPE  H19R15949   2.663   4.251   9.726 -2.9951 -0.4060  0.9241
  145SAPE  H19S15950   2.624   4.077   9.759 -0.7378 -0.1996  0.8215
  145SAPE  C22015951   2.839   4.137   9.799 -0.3740  0.5164  0.8265
  145SAPE  H20R15952   2.856   4.052   9.868  0.8992  0.6651  0.7161
  145SAPE  H20S15953   2.898   4.226   9.831 -0.1621  1.3513 -1.6801
  145SAPE  H20T15954   2.882   4.118   9.698 -2.0037  1.4475 -0.0972
  145SAPE   C3315955   2.965   5.321  10.319 -1.2740  0.9104 -0.4341
  145SAPE   H3X15956   2.969   5.217  10.359  1.5055  1.4394  0.9100
  145SAPE   H3Y15957   3.070   5.358  10.323 -0.0006 -2.3425 -0.0742
  145SAPE   C3415958   2.913   5.332  10.184  0.2312  0.4444 -0.3424
  145SAPE   H4X15959   2.930   5.431  10.137 -1.7774  0.8103 -0.3991
  145SAPE   H4Y15960   2.803   5.316  10.179 -0.1335  2.1047  1.2435
  145SAPE   C3515961   2.974   5.224  10.089  0.3304 -0.1275 -0.1247
  145SAPE   H5X15962   2.980   5.132  10.151  0.2263 -0.0339  0.0267
  145SAPE   H5Y15963   3.077   5.242  10.054 -0.5994  1.3482 -2.3096
  145SAPE   C3615964   2.880   5.207   9.971 -0.4075 -0.3578  0.8924
  145SAPE   H6X15965   2.865   5.302   9.914 -1.8199 -0.5058  0.9792
  145SAPE   H6Y15966   2.782   5.183  10.019 -2.2219  4.2695  0.0560
  145SAPE   C3715967   2.902   5.087   9.877 -0.1169 -0.5820 -0.2204
  145SAPE   H7X15968   2.914   4.993   9.936 -0.3352  0.9371  2.3692
  145SAPE   H7Y15969   2.999   5.109   9.827 -1.2554  1.0179 -1.8587
  145SAPE   C3815970   2.786   5.076   9.780 -0.1949  0.1021 -0.2335
  145SAPE   H8X15971   2.780   5.175   9.730 -0.1204 -0.2390 -0.9273
  145SAPE   H8Y15972   2.685   5.061   9.823 -0.8878  1.3764 -1.3042
  145SAPE   C3915973   2.790   4.968   9.673  0.2626  0.2894 -0.1969
  145SAPE   H9X15974   2.889   4.987   9.625  0.6438 -0.4406  0.2813
  145SAPE   H9Y15975   2.709   4.989   9.601 -1.5767 -0.7507  1.4774
  145SAPE  C31015976   2.780   4.819   9.715  0.2364  0.0290  0.0527
  145SAPE  H10X15977   2.677   4.801   9.753  0.7190 -1.1321  0.8606
  145SAPE  H10Y15978   2.854   4.798   9.795  0.6766 -0.0586 -0.3705
  145SAPE  C31115979   2.821   4.718   9.608  0.5092  0.4185 -0.2480
  145SAPE  H11X15980   2.927   4.740   9.583  1.0678 -0.7821  0.8972
  145SAPE  H11Y15981   2.754   4.742   9.523 -2.4310  0.3687  1.9085
  145SAPE  C31215982   2.797   4.576   9.653  0.2781  0.3721 -0.4566
  145SAPE  H12X15983   2.706   4.562   9.716  0.6999  0.6335  0.2225
  145SAPE  H12Y15984   2.871   4.564   9.734 -1.6185 -0.7319  1.2237
  145SAPE  C31315985   2.817   4.477   9.541  0.4202 -0.3408 -0.0302
  145SAPE  H13X15986   2.833   4.377   9.586  3.6229  0.6253  1.2732
  145SAPE  H13Y15987   2.903   4.504   9.476 -0.6467  0.9250 -0.9871
  145SAPE  C31415988   2.689   4.459   9.453  0.2880  0.2126 -0.4022
  145SAPE  H14X15989   2.668   4.559   9.409 -0.8967  0.0154 -0.3299
  145SAPE  H14Y15990   2.591   4.435   9.500  0.2727  2.5073  0.8714
  145SAPE  C31515991   2.690   4.364   9.330  0.9941 -0.4524 -0.5139
  145SAPE  H15X15992   2.586   4.333   9.305  1.4467 -1.9930 -0.5365
  145SAPE  H15Y15993   2.743   4.274   9.367  1.9735  0.6075  0.7924
  145SAPE  C31615994   2.763   4.429   9.209 -0.1614 -0.0190 -0.0816
  145SAPE  H16X15995   2.871   4.443   9.232 -0.0959 -1.0967  0.3491
  145SAPE  H16Y15996   2.725   4.524   9.167 -1.1249 -0.0051  0.7871
  145SAPE  C31715997   2.758   4.331   9.096  0.3767  0.2873  0.5658
  145SAPE  H17X15998   2.650   4.324   9.074  0.2059 -2.5619  1.9579
  145SAPE  H17Y15999   2.788   4.227   9.123 -2.0765 -1.5711 -3.0791
  145SAPE  C31816000   2.840   4.375   8.976 -0.8518  0.1409  0.6018
  145SAPE  H18X16001   2.801   4.468   8.930 -0.6829  0.1564  0.4871
  145SAPE  H18Y16002   2.832   4.293   8.900 -2.3960  0.5657  0.2668
  145SAPE  H18Z16003   2.946   4.392   9.002 -0.3911  0.6871 -1.4452
  146SAPE     N16004   5.342   2.599  11.218  0.1188 -0.0275  0.1272
  146SAPE   HN116005   5.343   2.506  11.172  1.8937 -0.0627  0.1803
  146SAPE   HN216006   5.441   2.616  11.244  0.2045 -2.1172  1.3794
  146SAPE   HN316007   5.291   2.585  11.308 -2.8334 -0.5673 -1.4735
  146SAPE   C1216008   5.276   2.706  11.134  0.0973 -0.1706  0.0318
  146SAPE  H12A16009   5.268   2.793  11.202  1.5494 -1.1016  1.4544
  146SAPE  H12B16010   5.175   2.662  11.114  0.2085 -0.4787  0.1468
  146SAPE   C1116011   5.359   2.730  10.999 -0.0045 -0.7542 -0.4786
  146SAPE  H11A16012   5.321   2.818  10.943  1.1647 -0.1258 -0.3139
  146SAPE  H11B16013   5.346   2.640  10.937 -1.8806 -0.2309 -0.9122
  146SAPE     P16014   5.617   2.763  10.940  0.2973  0.4485  0.0305
  146SAPE   O1316015   5.719   2.862  10.977  0.1261 -0.1990  0.3045
  146SAPE   O1416016   5.653   2.621  10.933 -0.1841  0.1269  0.0078
  146SAPE   O1216017   5.492   2.767  11.035  0.2052  0.3834  0.4269
  146SAPE   O1116018   5.552   2.807  10.804  0.3031 -0.2921  0.1497
  146SAPE    C116019   5.534   2.943  10.777  1.3038  0.0764  0.5474
  146SAPE    HA16020   5.429   2.959  10.743  1.7270  1.1629 -0.3225
  146SAPE    HB16021   5.528   3.012  10.863  0.0158  0.5161  0.1253
  146SAPE    C216022   5.624   3.010  10.665 -0.8335 -0.4991 -0.8600
  146SAPE    HS16023   5.593   3.114  10.641 -1.5042 -0.2511  0.9510
  146SAPE   O2116024   5.622   2.920  10.553 -0.3470 -0.2117 -0.2470
  146SAPE   C2116025   5.508   2.946  10.486 -0.4731  0.9352  0.3477
  146SAPE   O2216026   5.437   3.045  10.502 -0.4328 -0.3998  0.0172
  146SAPE   C2216027   5.492   2.835  10.386 -0.0210  0.1549 -0.3504
  146SAPE   H2R16028   5.581   2.843  10.320  1.0708  0.4982  1.1185
  146SAPE   H2S16029   5.505   2.744  10.447 -0.2162  0.8048  0.6902
  146SAPE    C316030   5.778   3.015  10.701  1.6915  0.2062  0.6500
  146SAPE    HX16031   5.816   2.911  10.711 -2.4003 -1.6477 -0.8661
  146SAPE    HY16032   5.791   3.056  10.803 -2.0748 -0.4421  1.5122
  146SAPE   O3116033   5.851   3.080  10.595  0.0327  0.4885 -0.6619
  146SAPE   C3116034   5.830   3.215  10.604  0.1507 -0.1293  0.1674
  146SAPE   O3216035   5.782   3.272  10.702  0.4329  0.1509 -0.2445
  146SAPE   C3216036   5.897   3.278  10.494 -0.4035 -0.0786  0.4020
  146SAPE   H2X16037   5.992   3.227  10.469 -1.4189 -2.0798  0.3844
  146SAPE   H2Y16038   5.929   3.377  10.532  2.0319 -1.0243  1.0102
  146SAPE   C2316039   5.354   2.831  10.310 -0.5675 -0.2184  0.1404
  146SAPE   H3R16040   5.271   2.829  10.384 -1.5478 -2.8881 -0.8797
  146SAPE   H3S16041   5.342   2.739  10.248 -0.4157 -0.3093  0.2467
  146SAPE   C2416042   5.332   2.945  10.215  0.2944  0.8373 -0.1020
  146SAPE   H4R16043   5.378   3.035  10.259 -0.7624  1.6773 -0.6747
  146SAPE   H4S16044   5.222   2.965  10.219  0.1867  0.1810  0.3960
  146SAPE   C2516045   5.376   2.913  10.073  0.4069  0.2731  0.6902
  146SAPE   H5R16046   5.344   2.817  10.030 -1.4358  0.9728  0.4024
  146SAPE   C2616047   5.472   2.986  10.010  0.5298  0.0591  1.1387
  146SAPE   H6R16048   5.498   2.969   9.904  2.8637 -1.1546  1.8268
  146SAPE   C2716049   5.548   3.109  10.052  0.8316 -0.5446 -0.5506
  146SAPE   H7R16050   5.508   3.143  10.150  0.7247 -1.8273 -0.1217
  146SAPE   H7S16051   5.501   3.191   9.994 -1.8328 -1.0633  0.6835
  146SAPE   C2816052   5.695   3.104  10.041  0.2556  0.1575 -0.7536
  146SAPE   H8R16053   5.746   3.056  10.126  0.2370  1.9480  0.3314
  146SAPE   C2916054   5.763   3.129   9.932  0.3152  0.6446  0.2927
  146SAPE   H9R16055   5.873   3.120   9.931  0.7266  4.1850  0.3182
  146SAPE  C21016056   5.703   3.181   9.803  0.2375  0.5318  0.4756
  146SAPE  H10R16057   5.685   3.290   9.814  0.2989  0.6238 -0.2695
  146SAPE  H10S16058   5.601   3.143   9.780  0.1536  1.4120 -0.7058
  146SAPE  C21116059   5.798   3.184   9.687 -0.1551  0.1435  0.5356
  146SAPE  H11R16060   5.896   3.227   9.713 -1.1244  1.9325  1.4026
  146SAPE  C21216061   5.768   3.137   9.565 -0.1743 -0.3008  0.1338
  146SAPE  H12R16062   5.854   3.145   9.497  0.6170  1.9721  1.3212
  146SAPE  C21316063   5.643   3.078   9.503  0.0113 -0.1125 -0.1989
  146SAPE  H13R16064   5.585   3.169   9.475  0.1830  0.1063  0.1487
  146SAPE  H13S16065   5.585   3.014   9.573  0.9559  0.0587  0.7853
  146SAPE  C21416066   5.672   2.994   9.384  0.0149  0.7088 -0.2090
  146SAPE  H14R16067   5.691   2.889   9.412  1.5766  1.2038  0.6765
  146SAPE  C21516068   5.681   3.025   9.254 -0.0064 -0.4279  0.5555
  146SAPE  H15R16069   5.675   2.951   9.173  0.0466  1.1125 -0.9021
  146SAPE  C21616070   5.673   3.158   9.187  0.6160  0.4878 -0.6918
  146SAPE  H16R16071   5.698   3.229   9.268  3.5624  0.2644 -1.2905
  146SAPE  H16S16072   5.566   3.165   9.158  0.4463 -0.3587 -0.2778
  146SAPE  C21716073   5.772   3.168   9.071  0.4006 -0.4029  0.7102
  146SAPE  H17R16074   5.875   3.138   9.099  0.9363 -2.8346 -3.0862
  146SAPE  H17S16075   5.791   3.272   9.037 -0.2779 -0.9979 -1.7269
  146SAPE  C21816076   5.755   3.081   8.939  0.6698  0.6012  0.4415
  146SAPE  H18R16077   5.646   3.060   8.934  0.3148  2.6286 -2.1959
  146SAPE  H18S16078   5.820   2.992   8.954 -0.0885 -0.1183 -0.4988
  146SAPE  C21916079   5.787   3.163   8.811 -0.4955  0.4279 -0.1629
  146SAPE  H19R16080   5.878   3.225   8.819 -0.1596  0.0848 -1.2100
  146SAPE  H19S16081   5.697   3.227   8.804 -2.0818 -1.8270 -2.9826
  146SAPE  C22016082   5.785   3.071   8.692  0.2193 -0.5891 -0.7911
  146SAPE  H20R16083   5.771   3.140   8.606 -2.9132  1.3904  1.0819
  146SAPE  H20S16084   5.705   2.994   8.700  0.7552 -1.1937 -1.1761
  146SAPE  H20T16085   5.877   3.010   8.684  0.3233 -0.5390 -0.0427
  146SAPE   C3316086   5.821   3.286  10.362  0.5141  0.5766 -0.1056
  146SAPE   H3X16087   5.768   3.193  10.335  1.5717  0.1433 -0.7545
  146SAPE   H3Y16088   5.897   3.306  10.283 -0.0347  0.5048 -0.6534
  146SAPE   C3416089   5.728   3.407  10.370 -0.4762  0.4713  0.0183
  146SAPE   H4X16090   5.782   3.503  10.383 -0.8444  0.8819 -1.2729
  146SAPE   H4Y16091   5.657   3.386  10.453  0.9383 -1.4601  0.8300
  146SAPE   C3516092   5.651   3.428  10.244  0.9920  0.2263  0.0951
  146SAPE   H5X16093   5.602   3.336  10.206 -1.1711  0.9211  1.0455
  146SAPE   H5Y16094   5.730   3.446  10.168  0.7957  2.3457  0.3333
  146SAPE   C3616095   5.558   3.548  10.250  0.2642  0.4420  0.1662
  146SAPE   H6X16096   5.617   3.642  10.252  0.0697  0.6251 -1.3471
  146SAPE   H6Y16097   5.497   3.532  10.341  0.1059 -1.0383 -0.1825
  146SAPE   C3716098   5.471   3.560  10.124  0.2810 -0.2289  0.5719
  146SAPE   H7X16099   5.419   3.658  10.120  0.8671  0.0611 -0.5386
  146SAPE   H7Y16100   5.392   3.484  10.107 -1.4785  2.1280 -3.1335
  146SAPE   C3816101   5.538   3.542   9.983 -0.5493  0.0308 -0.0713
  146SAPE   H8X16102   5.583   3.440   9.986 -0.4982  0.0452  2.4048
  146SAPE   H8Y16103   5.620   3.616   9.969  1.7526 -2.4586 -0.6631
  146SAPE   C3916104   5.435   3.560   9.870 -0.8765 -0.1566  0.0497
  146SAPE   H9X16105   5.393   3.663   9.869 -1.1818 -0.2228 -3.1459
  146SAPE   H9Y16106   5.347   3.493   9.881 -0.2361 -0.9290  0.5750
  146SAPE  C31016107   5.493   3.546   9.727 -0.0132 -0.5876 -0.0786
  146SAPE  H10X16108   5.549   3.450   9.721  1.9097  0.5383 -1.1628
  146SAPE  H10Y16109   5.569   3.625   9.706  1.3812 -1.7849  0.3158
  146SAPE  C31116110   5.388   3.549   9.615  0.4026  0.0792 -0.1528
  146SAPE  H11X16111   5.334   3.647   9.611 -3.5723 -1.9307 -1.0269
  146SAPE  H11Y16112   5.314   3.473   9.646  1.5524 -1.4492 -1.0320
  146SAPE  C31216113   5.449   3.519   9.487 -0.6811  0.2291 -0.3267
  146SAPE  H12X16114   5.511   3.426   9.486  0.2442  0.8170  0.5227
  146SAPE  H12Y16115   5.509   3.611   9.471 -1.3562  0.6100 -0.7037
  146SAPE  C31316116   5.349   3.511   9.379  0.4852 -0.1271  0.3395
  146SAPE  H13X16117   5.285   3.602   9.377  0.0085 -0.3992  2.0407
  146SAPE  H13Y16118   5.276   3.428   9.389  0.1256  0.1767  0.2988
  146SAPE  C31416119   5.416   3.504   9.246 -0.1758  0.4852  0.3091
  146SAPE  H14X16120   5.492   3.423   9.252 -1.5249 -0.7883  0.8051
  146SAPE  H14Y16121   5.459   3.600   9.212 -1.1879  1.3835  1.4834
  146SAPE  C31516122   5.318   3.458   9.136 -0.5158  0.5447  0.6864
  146SAPE  H15X16123   5.223   3.515   9.138 -0.6810  0.3548 -0.6059
  146SAPE  H15Y16124   5.299   3.350   9.152 -2.3844  0.4889 -1.4085
  146SAPE  C31616125   5.372   3.472   8.992  0.1338 -0.1623  0.1457
  146SAPE  H16X16126   5.438   3.387   8.962  1.6125  1.0197 -0.0988
  146SAPE  H16Y16127   5.438   3.561   8.983 -0.2255  0.1108  0.2152
  146SAPE  C31716128   5.257   3.495   8.889 -0.2080 -0.2955  0.1381
  146SAPE  H17X16129   5.171   3.553   8.928 -1.3774 -1.7285 -0.2344
  146SAPE  H17Y16130   5.224   3.392   8.863  1.7669 -0.9602  0.1017
  146SAPE  C31816131   5.302   3.564   8.753  0.0680 -0.0538  0.7407
  146SAPE  H18X16132   5.220   3.561   8.677  0.4189 -2.0273  0.3749
  146SAPE  H18Y16133   5.380   3.505   8.700  0.3174 -0.4328  1.5066
  146SAPE  H18Z16134   5.336   3.668   8.766  2.1330 -0.3455 -1.5982
  147SAPE     N16135   3.871   0.270   5.983  0.4892 -0.8206  0.2243
  147SAPE   HN116136   3.936   0.190   5.977 -0.4830 -1.5808 -0.5382
  147SAPE   HN216137   3.809   0.274   5.899 -1.1090  1.6821  1.3708
  147SAPE   HN316138   3.930   0.355   5.996 -0.0345  0.0659 -2.4730
  147SAPE   C1216139   3.783   0.245   6.100 -0.2245 -0.3187 -0.3050
  147SAPE  H12A16140   3.702   0.173   6.078 -1.4962  0.3503  1.8887
  147SAPE  H12B16141   3.746   0.346   6.127  0.3389  0.3536 -1.9022
  147SAPE   C1116142   3.874   0.184   6.207 -0.1318  0.7402 -0.0310
  147SAPE  H11A16143   3.807   0.154   6.290  1.0559 -3.8294 -0.4488
  147SAPE  H11B16144   3.947   0.260   6.246  0.3767  0.3120 -0.1342
  147SAPE     P16145   3.916  -0.074   6.216 -0.4444 -0.0582  0.1733
  147SAPE   O1316146   3.791  -0.114   6.151 -0.2943  0.3322 -0.3957
  147SAPE   O1416147   4.026  -0.165   6.193 -0.1422 -0.4802 -0.3411
  147SAPE   O1216148   3.952   0.073   6.172 -0.2122  0.1614 -0.0860
  147SAPE   O1116149   3.896  -0.064   6.372  0.8132 -0.0897 -0.2937
  147SAPE    C116150   4.002  -0.014   6.457 -0.1559  0.1342  0.5189
  147SAPE    HA16151   4.073   0.055   6.407  0.5631 -0.5055  0.6432
  147SAPE    HB16152   3.962   0.051   6.538 -0.6613  0.9247 -0.3292
  147SAPE    C216153   4.087  -0.127   6.515 -0.4865  0.0178  0.1970
  147SAPE    HS16154   4.119  -0.196   6.434 -1.0549 -0.9160  0.7472
  147SAPE   O2116155   4.004  -0.193   6.608  0.1122 -0.1947 -0.7572
  147SAPE   C2116156   3.966  -0.314   6.585  0.0461  0.1055  0.0811
  147SAPE   O2216157   4.006  -0.382   6.489  0.2442  0.4435  0.5496
  147SAPE   C2216158   3.856  -0.356   6.677 -0.6296 -0.1759  0.6146
  147SAPE   H2R16159   3.773  -0.283   6.673 -0.2926  0.2773  1.5451
  147SAPE   H2S16160   3.816  -0.453   6.642  3.1575 -1.8384  0.4477
  147SAPE    C316161   4.222  -0.083   6.582 -0.1831 -0.2960  0.6067
  147SAPE    HX16162   4.285  -0.056   6.494 -2.3559 -3.1573 -2.0821
  147SAPE    HY16163   4.271  -0.177   6.617 -0.4999 -1.6454 -2.2241
  147SAPE   O3116164   4.210   0.018   6.680  0.6206 -0.2334  0.2293
  147SAPE   C3116165   4.188  -0.014   6.804 -0.0715 -0.4807  0.2148
  147SAPE   O3216166   4.163  -0.127   6.847 -0.4723 -0.5449  0.3922
  147SAPE   C3216167   4.188   0.111   6.890  0.0204 -0.2781  0.4046
  147SAPE   H2X16168   4.154   0.201   6.834 -1.0968  0.1739  1.7383
  147SAPE   H2Y16169   4.297   0.123   6.907  0.7712 -2.9585 -1.7578
  147SAPE   C2316170   3.915  -0.388   6.818 -0.5452 -0.3682 -0.1119
  147SAPE   H3R16171   3.947  -0.300   6.878 -0.2688 -1.8791  2.1068
  147SAPE   H3S16172   4.000  -0.459   6.815  0.9288  1.3322 -0.0139
  147SAPE   C2416173   3.796  -0.441   6.906  0.3691 -0.0352  0.0267
  147SAPE   H4R16174   3.836  -0.490   6.997  3.7122  1.7762 -0.3196
  147SAPE   H4S16175   3.746  -0.521   6.847 -3.5716  2.3727 -0.2991
  147SAPE   C2516176   3.691  -0.350   6.956  0.4496 -0.3651  0.4565
  147SAPE   H5R16177   3.633  -0.309   6.872  0.0456 -0.1057  0.8529
  147SAPE   C2616178   3.664  -0.317   7.084  0.1546  0.3944 -0.3484
  147SAPE   H6R16179   3.595  -0.240   7.120  0.9934 -0.3255  3.2463
  147SAPE   C2716180   3.742  -0.379   7.199  0.3949  0.0007 -0.1802
  147SAPE   H7R16181   3.743  -0.489   7.186  1.3768  0.2339 -2.7046
  147SAPE   H7S16182   3.680  -0.364   7.290  0.9139  2.1059 -0.1359
  147SAPE   C2816183   3.880  -0.328   7.228  0.1002  0.2446  0.3021
  147SAPE   H8R16184   3.955  -0.363   7.156 -1.1405 -0.2986 -0.7587
  147SAPE   C2916185   3.915  -0.220   7.296 -0.5378  0.2396 -0.1237
  147SAPE   H9R16186   4.020  -0.187   7.299 -0.5541  0.3299  3.3803
  147SAPE  C21016187   3.826  -0.131   7.377  0.3392  0.1080  0.6414
  147SAPE  H10R16188   3.753  -0.184   7.442 -0.2301  0.6408  0.4489
  147SAPE  H10S16189   3.767  -0.064   7.311  3.1424  2.5022  0.3404
  147SAPE  C21116190   3.909  -0.034   7.461  0.2504  0.1176  0.1872
  147SAPE  H11R16191   3.956   0.044   7.400 -0.7964  0.9940  0.4668
  147SAPE  C21216192   3.929  -0.026   7.593  0.7331  0.4538 -0.8607
  147SAPE  H12R16193   3.988   0.065   7.613  1.0122  1.0984 -4.0090
  147SAPE  C21316194   3.866  -0.110   7.700  0.3931 -0.6276 -0.1631
  147SAPE  H13R16195   3.785  -0.179   7.668 -2.9056  2.6604  0.3133
  147SAPE  H13S16196   3.807  -0.031   7.753  0.7219  0.4259 -1.3216
  147SAPE  C21416197   3.970  -0.183   7.778  0.1294  0.1145 -0.0032
  147SAPE  H14R16198   4.030  -0.253   7.718 -0.4992 -0.7439  0.3518
  147SAPE  C21516199   3.964  -0.199   7.913 -0.5266  0.3109 -0.2468
  147SAPE  H15R16200   4.035  -0.259   7.972 -1.4489  0.7895  1.3967
  147SAPE  C21616201   3.863  -0.120   7.994 -0.4991 -0.0404  0.7144
  147SAPE  H16R16202   3.760  -0.163   7.997 -0.0367 -1.2920 -0.5019
  147SAPE  H16S16203   3.843  -0.016   7.958  1.4352  0.3883  0.7899
  147SAPE  C21716204   3.917  -0.107   8.135 -0.6684 -0.2314 -0.3273
  147SAPE  H17R16205   4.021  -0.070   8.146 -1.0758  0.2535  2.7579
  147SAPE  H17S16206   3.910  -0.207   8.182  0.2525 -0.1823 -0.0829
  147SAPE  C21816207   3.828  -0.019   8.219  0.1653 -0.2401  0.2324
  147SAPE  H18R16208   3.838   0.090   8.198  0.4725 -0.0965  1.0996
  147SAPE  H18S16209   3.865  -0.026   8.323 -2.7000 -3.0583  1.2130
  147SAPE  C21916210   3.680  -0.060   8.229  0.4384 -0.3906 -0.5231
  147SAPE  H19R16211   3.684  -0.171   8.223  1.6764 -0.4320  0.5724
  147SAPE  H19S16212   3.615  -0.034   8.143 -1.5996  0.5810  1.2197
  147SAPE  C22016213   3.625   0.002   8.358 -0.4680  0.2726 -0.4777
  147SAPE  H20R16214   3.531  -0.040   8.400 -1.1662  2.1110 -0.0870
  147SAPE  H20S16215   3.593   0.108   8.346  0.5708  0.5285 -1.0641
  147SAPE  H20T16216   3.700  -0.002   8.439 -0.1586  0.0486 -0.7754
  147SAPE   C3316217   4.116   0.081   7.023  0.6536 -0.2297 -0.2667
  147SAPE   H3X16218   4.149   0.148   7.105 -2.4766  0.4692  0.5470
  147SAPE   H3Y16219   4.136  -0.022   7.058 -2.9553 -0.9062  0.1907
  147SAPE   C3416220   3.960   0.087   7.004 -0.5920  0.0284  0.0879
  147SAPE   H4X16221   3.911   0.032   7.087 -1.1525  1.6012  0.8371
  147SAPE   H4Y16222   3.939   0.024   6.914 -0.0451  1.4213 -1.0452
  147SAPE   C3516223   3.905   0.227   7.002 -0.1772  0.4287  1.1380
  147SAPE   H5X16224   3.796   0.206   7.012 -0.3417 -0.9602 -2.0931
  147SAPE   H5Y16225   3.917   0.262   6.897  1.5493  1.1475  1.5475
  147SAPE   C3616226   3.943   0.332   7.105  0.3367 -0.1567 -1.4645
  147SAPE   H6X16227   3.880   0.423   7.091 -0.2894 -0.3797 -0.1985
  147SAPE   H6Y16228   4.050   0.359   7.100  0.6160 -1.1448 -1.0353
  147SAPE   C3716229   3.902   0.285   7.242 -0.2568  0.6606 -0.1999
  147SAPE   H7X16230   3.969   0.200   7.264 -1.1912 -0.0783 -0.1522
  147SAPE   H7Y16231   3.800   0.243   7.231 -0.2308  1.0008 -2.1373
  147SAPE   C3816232   3.916   0.397   7.346 -0.1129  0.3628 -0.3946
  147SAPE   H8X16233   3.873   0.493   7.310  0.3129  1.0361  0.8395
  147SAPE   H8Y16234   4.023   0.422   7.362 -0.9920  3.7434  1.0536
  147SAPE   C3916235   3.865   0.355   7.487 -0.3130 -0.7266 -0.1349
  147SAPE   H9X16236   3.896   0.431   7.561 -1.7188  2.0294 -2.1728
  147SAPE   H9Y16237   3.902   0.253   7.512  1.2992 -0.3447 -0.8385
  147SAPE  C31016238   3.709   0.367   7.476 -0.1975 -0.5170 -0.0279
  147SAPE  H10X16239   3.655   0.293   7.413 -0.5204 -0.3581  0.0619
  147SAPE  H10Y16240   3.678   0.462   7.429  1.9387  0.8330  1.1022
  147SAPE  C31116241   3.654   0.366   7.618  0.2180  0.1545 -0.1661
  147SAPE  H11X16242   3.548   0.397   7.600 -0.1930 -0.9633  0.2468
  147SAPE  H11Y16243   3.718   0.443   7.667  2.0301 -1.1610 -0.3608
  147SAPE  C31216244   3.669   0.233   7.689 -0.3627  0.5632  0.2582
  147SAPE  H12X16245   3.775   0.203   7.703 -0.6577  0.4474  2.7277
  147SAPE  H12Y16246   3.625   0.152   7.626  2.6456  0.3818 -1.8568
  147SAPE  C31316247   3.604   0.230   7.823  0.0665 -0.7202 -0.0577
  147SAPE  H13X16248   3.617   0.126   7.860 -0.4475 -0.7615  0.0061
  147SAPE  H13Y16249   3.499   0.263   7.811  0.0580 -0.4549  0.6487
  147SAPE  C31416250   3.677   0.323   7.919 -0.5452 -0.6747 -0.0019
  147SAPE  H14X16251   3.680   0.428   7.883 -0.0429 -0.1411  1.4953
  147SAPE  H14Y16252   3.785   0.304   7.938 -0.3191 -0.3883 -0.9568
  147SAPE  C31516253   3.604   0.328   8.060  0.7716  0.1650 -0.7186
  147SAPE  H15X16254   3.640   0.238   8.115  2.1001 -1.5069 -4.0359
  147SAPE  H15Y16255   3.496   0.333   8.038  0.7031  1.5357 -0.2004
  147SAPE  C31616256   3.626   0.462   8.133  0.0175 -0.3115  0.2355
  147SAPE  H16X16257   3.565   0.549   8.098  0.9990  0.1536 -0.3578
  147SAPE  H16Y16258   3.727   0.501   8.108  0.1433  0.8346  2.3162
  147SAPE  C31716259   3.648   0.446   8.283  0.0604  0.3266 -0.6266
  147SAPE  H17X16260   3.558   0.407   8.337  0.6717  0.5610  0.5945
  147SAPE  H17Y16261   3.654   0.553   8.311 -0.5021 -0.0127  0.8961
  147SAPE  C31816262   3.783   0.379   8.315 -0.5917  0.3013 -0.0589
  147SAPE  H18X16263   3.814   0.413   8.416 -1.4016  3.0279 -0.6477
  147SAPE  H18Y16264   3.871   0.421   8.262 -0.0280 -0.9553 -0.1401
  147SAPE  H18Z16265   3.796   0.270   8.298  1.1230  0.3380  0.8207
  148SAPE     N16266   1.243   0.629   6.622 -0.1808  0.5273  0.1375
  148SAPE   HN116267   1.185   0.646   6.537 -0.1465  0.4548  0.1003
  148SAPE   HN216268   1.301   0.711   6.649  0.5118 -0.1886  0.8629
  148SAPE   HN316269   1.313   0.558   6.593 -2.3228 -0.6721 -2.5692
  148SAPE   C1216270   1.162   0.581   6.732 -0.0059  0.1205  0.0059
  148SAPE  H12A16271   1.069   0.641   6.742 -2.3203 -3.3154  1.1350
  148SAPE  H12B16272   1.218   0.594   6.827  3.3163  1.5214 -1.9797
  148SAPE   C1116273   1.112   0.437   6.719 -0.5082 -0.0559 -0.6307
  148SAPE  H11A16274   1.038   0.427   6.801  2.7622  0.8554  2.7118
  148SAPE  H11B16275   1.196   0.368   6.743 -0.1303  0.6997  0.3145
  148SAPE     P16276   1.014   0.263   6.556 -0.1794 -0.0194 -0.0625
  148SAPE   O1316277   0.878   0.252   6.500 -0.3754 -0.6816  0.3492
  148SAPE   O1416278   1.113   0.211   6.469 -0.1040 -0.4003 -0.3488
  148SAPE   O1216279   1.052   0.413   6.588  0.5274  0.1170  0.0104
  148SAPE   O1116280   1.016   0.191   6.699  0.4255  0.4827  0.8665
  148SAPE    C116281   0.979   0.053   6.691 -0.4931 -0.6178  0.6951
  148SAPE    HA16282   0.871   0.039   6.666 -0.3592 -0.3448 -0.0743
  148SAPE    HB16283   1.034   0.002   6.609 -1.1163 -0.6429  0.2749
  148SAPE    C216284   1.009  -0.020   6.821  0.0184 -0.1907 -0.1190
  148SAPE    HS16285   0.967  -0.123   6.826  2.2614 -1.1191  0.9803
  148SAPE   O2116286   0.963   0.053   6.937  0.0312 -0.4598  0.0763
  148SAPE   C2116287   0.831   0.071   6.950 -0.6306 -0.2021  0.1594
  148SAPE   O2216288   0.751   0.028   6.872  0.1031 -0.0242 -0.1588
  148SAPE   C2216289   0.800   0.166   7.064  0.6763 -0.5697 -0.3007
  148SAPE   H2R16290   0.821   0.270   7.029  0.6368  0.2177  1.8453
  148SAPE   H2S16291   0.691   0.170   7.084  0.9397  2.2924  1.1560
  148SAPE    C316292   1.166  -0.044   6.829 -0.4589  0.5929  0.5976
  148SAPE    HX16293   1.227   0.034   6.779  3.1418 -1.6528  1.1266
  148SAPE    HY16294   1.188  -0.133   6.766  1.7850  0.4403  1.4864
  148SAPE   O3116295   1.209  -0.061   6.968  0.1874 -0.0700  0.2412
  148SAPE   C3116296   1.156  -0.163   7.029 -0.8308  0.2006 -0.2079
  148SAPE   O3216297   1.092  -0.251   6.979 -0.0249  0.0572  0.5361
  148SAPE   C3216298   1.192  -0.151   7.177  0.4856 -0.0520  0.8792
  148SAPE   H2X16299   1.132  -0.063   7.208  1.7377  0.8764  0.7668
  148SAPE   H2Y16300   1.300  -0.124   7.187  0.7765 -0.8189 -0.0338
  148SAPE   C2316301   0.882   0.137   7.190 -0.4252  0.4384 -0.2885
  148SAPE   H3R16302   0.871   0.218   7.266  0.3117  0.7255 -0.4711
  148SAPE   H3S16303   0.990   0.139   7.165 -0.8251  1.5276 -2.1210
  148SAPE   C2416304   0.841  -0.003   7.251 -0.0148 -0.0343 -0.2958
  148SAPE   H4R16305   0.913  -0.021   7.334 -1.6470  0.3861  1.2743
  148SAPE   H4S16306   0.847  -0.085   7.176 -0.3267  0.2264 -0.6082
  148SAPE   C2516307   0.706  -0.003   7.325  0.2301  0.5895 -0.7707
  148SAPE   H5R16308   0.628   0.073   7.306  1.2659  2.5150  1.9001
  148SAPE   C2616309   0.663  -0.097   7.409  0.1863  0.1873 -0.2584
  148SAPE   H6R16310   0.562  -0.091   7.454  1.2812  0.1422  2.3598
  148SAPE   C2716311   0.749  -0.212   7.448 -0.5016  0.4038  0.0501
  148SAPE   H7R16312   0.830  -0.167   7.510  0.8195  0.9757 -2.0189
  148SAPE   H7S16313   0.807  -0.255   7.364  0.5347  2.4250 -0.3128
  148SAPE   C2816314   0.681  -0.324   7.522 -0.7242 -0.2362  0.5979
  148SAPE   H8R16315   0.651  -0.401   7.449  2.4624 -1.4011  0.3428
  148SAPE   C2916316   0.673  -0.335   7.654 -0.3626  0.6838  0.6772
  148SAPE   H9R16317   0.624  -0.428   7.688 -0.2218  0.7105  0.9583
  148SAPE  C21016318   0.729  -0.237   7.759 -0.5218 -0.1262  0.3013
  148SAPE  H10R16319   0.678  -0.139   7.746  0.5793  0.7513  2.0946
  148SAPE  H10S16320   0.834  -0.215   7.730 -0.3160 -0.6209  0.6497
  148SAPE  C21116321   0.717  -0.293   7.905  0.1861 -0.0286  0.6958
  148SAPE  H11R16322   0.718  -0.402   7.915  2.1158 -0.0085  0.9589
  148SAPE  C21216323   0.711  -0.203   8.012  0.1916 -0.6532  0.3016
  148SAPE  H12R16324   0.686  -0.247   8.110  0.7456 -0.8515  0.3589
  148SAPE  C21316325   0.724  -0.053   8.017 -0.3848 -1.1617  0.2736
  148SAPE  H13R16326   0.717  -0.011   7.915  2.0530 -1.4535 -0.0649
  148SAPE  H13S16327   0.829  -0.039   8.051  0.3322 -2.3874 -1.2885
  148SAPE  C21416328   0.641   0.035   8.104 -0.2269 -0.9659  0.0915
  148SAPE  H14R16329   0.552   0.079   8.056  0.8475  1.6673  0.3411
  148SAPE  C21516330   0.651   0.050   8.236 -0.6009  0.1789  0.3119
  148SAPE  H15R16331   0.567   0.105   8.282  1.0686  2.0792  1.2548
  148SAPE  C21616332   0.742  -0.017   8.333 -0.2222 -0.4635  0.2903
  148SAPE  H16R16333   0.748  -0.123   8.301  0.0276  0.2576 -2.2440
  148SAPE  H16S16334   0.703  -0.003   8.436  0.3979  0.9407  0.3557
  148SAPE  C21716335   0.888   0.035   8.342 -0.7303  0.4705 -0.5395
  148SAPE  H17R16336   0.935   0.028   8.241  0.2362  1.6291 -0.1991
  148SAPE  H17S16337   0.947  -0.032   8.408  0.6126  1.1484 -1.0178
  148SAPE  C21816338   0.891   0.183   8.380  0.5660 -1.0427  0.4526
  148SAPE  H18R16339   0.843   0.185   8.480 -2.8357 -1.4136 -1.0326
  148SAPE  H18S16340   0.823   0.232   8.307  0.0988 -2.8603 -0.3956
  148SAPE  C21916341   1.033   0.238   8.378 -0.4914  0.2501 -0.1111
  148SAPE  H19R16342   1.092   0.186   8.299  1.6677 -2.8872  3.2125
  148SAPE  H19S16343   1.076   0.202   8.474 -1.4906  0.1702  0.3200
  148SAPE  C22016344   1.046   0.391   8.376  0.0534  0.6914 -0.2952
  148SAPE  H20R16345   1.147   0.436   8.364  0.3323  0.3726  0.6955
  148SAPE  H20S16346   0.991   0.438   8.461 -2.2999 -1.4464 -0.5026
  148SAPE  H20T16347   0.981   0.403   8.287 -0.3086 -4.1074 -0.9660
  148SAPE   C3316348   1.157  -0.284   7.251  0.5408  0.8830 -0.0514
  148SAPE   H3X16349   1.219  -0.364   7.205  1.6406  0.7290  1.6070
  148SAPE   H3Y16350   1.052  -0.319   7.241  0.3468  0.6831  2.2886
  148SAPE   C3416351   1.184  -0.272   7.407  0.2220  0.1920 -0.3804
  148SAPE   H4X16352   1.115  -0.196   7.448 -0.9938 -1.6318  1.1379
  148SAPE   H4Y16353   1.291  -0.263   7.437 -0.1162 -0.8637  1.2855
  148SAPE   C3516354   1.144  -0.408   7.472 -0.4214  0.0673  0.3343
  148SAPE   H5X16355   1.195  -0.493   7.422 -0.4047  0.8745 -1.0752
  148SAPE   H5Y16356   1.034  -0.421   7.462 -0.3735  0.2922 -0.5826
  148SAPE   C3616357   1.186  -0.414   7.617 -0.5520 -0.9577 -0.3616
  148SAPE   H6X16358   1.130  -0.326   7.657 -0.6428 -1.2026  0.0589
  148SAPE   H6Y16359   1.296  -0.409   7.635 -0.8774  1.4853  1.6321
  148SAPE   C3716360   1.127  -0.534   7.693  0.4703 -0.1642  0.3645
  148SAPE   H7X16361   1.155  -0.626   7.636 -2.1398  1.0366 -3.1773
  148SAPE   H7Y16362   1.019  -0.515   7.681  0.3787 -1.0820 -0.4641
  148SAPE   C3816363   1.172  -0.548   7.840 -0.6986 -0.3001  0.1336
  148SAPE   H8X16364   1.282  -0.544   7.857 -0.9614 -1.5269  2.6492
  148SAPE   H8Y16365   1.129  -0.646   7.869  1.0866 -1.1649 -0.0181
  148SAPE   C3916366   1.114  -0.453   7.943 -0.2581 -0.4017 -0.4566
  148SAPE   H9X16367   1.003  -0.455   7.946 -0.2788 -0.5714  3.0016
  148SAPE   H9Y16368   1.144  -0.349   7.915 -0.7086  0.6055  2.4381
  148SAPE  C31016369   1.163  -0.478   8.095 -0.3873  0.3247  0.3171
  148SAPE  H10X16370   1.272  -0.497   8.101 -0.0840  1.0596 -1.8818
  148SAPE  H10Y16371   1.123  -0.576   8.129 -0.0127 -0.2409 -0.8320
  148SAPE  C31116372   1.120  -0.375   8.195 -0.0906 -0.4086  0.3849
  148SAPE  H11X16373   1.121  -0.279   8.139  1.8836  0.6534  2.0993
  148SAPE  H11Y16374   1.198  -0.359   8.272  0.4845  0.4063 -0.3377
  148SAPE  C31216375   0.974  -0.391   8.256 -0.1502 -0.1423 -0.4547
  148SAPE  H12X16376   0.903  -0.400   8.171 -0.4869  0.6068 -0.2655
  148SAPE  H12Y16377   0.952  -0.301   8.317  2.1020  1.2540 -1.5736
  148SAPE  C31316378   0.961  -0.521   8.348 -0.4815 -0.0056 -0.1935
  148SAPE  H13X16379   0.953  -0.612   8.284  3.3238 -0.5701 -0.0909
  148SAPE  H13Y16380   0.866  -0.512   8.405  0.7974 -0.9375  2.2393
  148SAPE  C31416381   1.086  -0.542   8.432  0.3008 -0.5411 -0.9196
  148SAPE  H14X16382   1.124  -0.439   8.453 -1.0308  0.2629 -2.1865
  148SAPE  H14Y16383   1.167  -0.583   8.367  0.3920  0.2652 -1.3337
  148SAPE  C31516384   1.067  -0.631   8.554 -0.3097  0.2030 -0.3656
  148SAPE  H15X16385   0.995  -0.714   8.534  0.0335 -0.1761 -0.0478
  148SAPE  H15Y16386   1.012  -0.568   8.627 -2.1870 -3.6060  1.8634
  148SAPE  C31616387   1.193  -0.686   8.624 -0.1177  0.4707  0.5739
  148SAPE  H16X16388   1.255  -0.619   8.687  1.0085 -0.4491  0.4817
  148SAPE  H16Y16389   1.259  -0.710   8.538 -2.5172  1.1451 -1.5911
  148SAPE  C31716390   1.172  -0.825   8.687  0.1625 -0.5345  0.2401
  148SAPE  H17X16391   1.113  -0.870   8.604  1.3613 -1.5729 -0.0958
  148SAPE  H17Y16392   1.112  -0.828   8.780 -0.0713 -0.6498  0.0874
  148SAPE  C31816393   1.298  -0.908   8.704  0.4489 -0.3883 -0.5027
  148SAPE  H18X16394   1.368  -0.832   8.747 -0.0660  0.2088 -0.6976
  148SAPE  H18Y16395   1.334  -0.967   8.618 -1.3197  1.1899 -2.4381
  148SAPE  H18Z16396   1.263  -0.969   8.790 -2.2530 -0.8454 -1.8066
  149SAPE     N16397   1.955   6.622   6.446 -0.7482  0.4732  0.0273
  149SAPE   HN116398   2.006   6.616   6.536  0.2113  2.4318 -0.3240
  149SAPE   HN216399   2.009   6.566   6.377 -0.8405  0.1216  0.2389
  149SAPE   HN316400   1.963   6.719   6.409 -1.3676 -0.0360 -1.5071
  149SAPE   C1216401   1.825   6.551   6.459  0.6979 -0.0104  0.1944
  149SAPE  H12A16402   1.786   6.543   6.355 -0.3881 -0.4228  0.6191
  149SAPE  H12B16403   1.746   6.599   6.521  2.2629  1.8646  0.8520
  149SAPE   C1116404   1.837   6.407   6.502  0.7806 -0.2671  0.4028
  149SAPE  H11A16405   1.741   6.361   6.531  0.6659  0.3138  0.9877
  149SAPE  H11B16406   1.882   6.384   6.601  0.5385 -2.0012  0.1292
  149SAPE     P16407   2.050   6.270   6.415 -0.0631 -0.2003  0.2121
  149SAPE   O1316408   2.091   6.170   6.321  0.6154 -0.0114  0.5019
  149SAPE   O1416409   2.137   6.392   6.422  0.1590 -0.0388  0.0504
  149SAPE   O1216410   1.902   6.325   6.397 -0.1170 -0.5372  0.2380
  149SAPE   O1116411   2.042   6.194   6.555 -0.1750  0.2888  0.0965
  149SAPE    C116412   2.143   6.092   6.587 -1.1193 -0.1061 -0.1496
  149SAPE    HA16413   2.123   5.996   6.536  0.8295  0.1092 -1.4289
  149SAPE    HB16414   2.242   6.124   6.547 -0.5648  0.8767  1.8553
  149SAPE    C216415   2.175   6.060   6.740  0.1146 -0.6713 -0.7537
  149SAPE    HS16416   2.274   6.012   6.751  0.5527  0.5254  1.1277
  149SAPE   O2116417   2.065   5.987   6.792  0.2195 -0.0300  0.3423
  149SAPE   C2116418   2.070   5.852   6.753  0.5221 -0.0043  0.0263
  149SAPE   O2216419   2.168   5.812   6.699 -0.6170  0.6855  0.3433
  149SAPE   C2216420   1.955   5.767   6.797 -0.1043 -0.5279  0.9725
  149SAPE   H2R16421   1.900   5.742   6.704 -0.2837  2.3150  0.2406
  149SAPE   H2S16422   1.994   5.678   6.851 -2.4823 -1.2663  1.6040
  149SAPE    C316423   2.191   6.194   6.817  0.0567 -0.4448 -0.6260
  149SAPE    HX16424   2.098   6.252   6.803  1.1143  1.1394 -1.2730
  149SAPE    HY16425   2.274   6.257   6.780 -0.7432  0.6114 -0.6548
  149SAPE   O3116426   2.202   6.170   6.963 -0.0995 -0.0988  0.3911
  149SAPE   C3116427   2.321   6.123   7.003  0.0315  0.1277 -0.5606
  149SAPE   O3216428   2.419   6.096   6.936  0.3498 -0.1946  0.4099
  149SAPE   C3216429   2.307   6.100   7.155 -0.3537  0.1314  0.0195
  149SAPE   H2X16430   2.221   6.030   7.161 -0.4108  0.1919 -0.0775
  149SAPE   H2Y16431   2.286   6.202   7.194  1.2995  0.0519  1.2150
  149SAPE   C2316432   1.851   5.841   6.887  0.2812 -0.2481  0.4177
  149SAPE   H3R16433   1.760   5.779   6.868 -1.3079  1.3765  2.1896
  149SAPE   H3S16434   1.833   5.947   6.858 -0.7493 -0.5709 -0.1786
  149SAPE   C2416435   1.880   5.846   7.035 -0.4010 -0.5696  0.0041
  149SAPE   H4R16436   1.988   5.829   7.054  0.4030  1.2856 -2.4684
  149SAPE   H4S16437   1.836   5.755   7.083  0.6191 -0.5776  0.9765
  149SAPE   C2516438   1.820   5.951   7.120  0.0372 -0.2159 -0.0048
  149SAPE   H5R16439   1.727   5.994   7.083 -0.2972 -0.9202 -0.0049
  149SAPE   C2616440   1.861   5.992   7.244  0.4280  0.1097  0.6145
  149SAPE   H6R16441   1.798   6.072   7.287  0.1857  0.1368  0.2130
  149SAPE   C2716442   1.971   5.938   7.336 -0.5445  0.1008  0.3904
  149SAPE   H7R16443   2.048   6.018   7.336  0.3747 -0.7283 -1.3417
  149SAPE   H7S16444   2.010   5.846   7.287 -0.9967  0.1312 -0.0338
  149SAPE   C2816445   1.904   5.883   7.461  0.1529 -0.3026 -0.5541
  149SAPE   H8R16446   1.794   5.874   7.464 -0.0566  1.6793 -0.7608
  149SAPE   C2916447   1.975   5.876   7.579 -0.2982 -0.1294 -0.2074
  149SAPE   H9R16448   1.921   5.854   7.672 -0.6358 -2.3619 -0.8760
  149SAPE  C21016449   2.123   5.904   7.601  0.4560 -0.4064  0.0109
  149SAPE  H10R16450   2.143   6.013   7.610  0.3890 -0.5140  1.8987
  149SAPE  H10S16451   2.181   5.874   7.512  2.8262  4.4047 -0.4072
  149SAPE  C21116452   2.193   5.833   7.721  0.4343 -0.0369  0.2899
  149SAPE  H11R16453   2.269   5.760   7.691 -1.2158 -1.4933 -0.5086
  149SAPE  C21216454   2.161   5.847   7.856  0.5619 -0.2621 -0.3742
  149SAPE  H12R16455   2.221   5.785   7.925 -2.6292 -2.6553  0.4743
  149SAPE  C21316456   2.060   5.936   7.925 -1.2162  0.1912  0.4006
  149SAPE  H13R16457   1.997   5.981   7.845 -0.0107  2.3570  0.5993
  149SAPE  H13S16458   2.113   6.014   7.983  0.2737  0.0589 -0.7076
  149SAPE  C21416459   1.973   5.844   8.011 -0.2826  0.3277  0.7492
  149SAPE  H14R16460   1.918   5.770   7.952  0.5077 -0.2147  0.6894
  149SAPE  C21516461   1.967   5.847   8.144 -0.0881  0.1377 -0.8252
  149SAPE  H15R16462   1.888   5.783   8.188 -1.9332  2.1091 -1.1411
  149SAPE  C21616463   2.045   5.922   8.245  0.2049  0.1081  0.5049
  149SAPE  H16R16464   1.988   6.012   8.280  0.6054  0.4286  0.3424
  149SAPE  H16S16465   2.141   5.955   8.200 -1.4899  1.1359 -2.6645
  149SAPE  C21716466   2.085   5.834   8.355  0.3112 -0.1702 -0.2972
  149SAPE  H17R16467   2.160   5.758   8.326 -0.1688 -1.0785  0.7880
  149SAPE  H17S16468   1.999   5.778   8.399 -0.1248 -0.6236 -1.6820
  149SAPE  C21816469   2.148   5.907   8.471  0.3631  0.2209 -0.3204
  149SAPE  H18R16470   2.251   5.936   8.440  0.2054  0.5562 -0.5380
  149SAPE  H18S16471   2.156   5.837   8.557 -0.1070 -0.2984 -0.6897
  149SAPE  C21916472   2.079   6.034   8.515 -0.0840 -0.0589  0.7009
  149SAPE  H19R16473   1.973   6.016   8.542 -0.9123 -0.4114 -2.4387
  149SAPE  H19S16474   2.077   6.108   8.433 -1.8218  0.3101  1.0407
  149SAPE  C22016475   2.143   6.112   8.631 -0.3490  0.2734 -0.0905
  149SAPE  H20R16476   2.072   6.189   8.668 -1.8458 -0.3387 -1.5420
  149SAPE  H20S16477   2.243   6.158   8.614  0.9124 -2.1961  0.1728
  149SAPE  H20T16478   2.161   6.046   8.719  0.9186  0.7836  0.0584
  149SAPE   C3316479   2.439   6.042   7.222  0.2993  0.1388  0.3576
  149SAPE   H3X16480   2.519   6.120   7.219  0.7622 -0.2536  1.6692
  149SAPE   H3Y16481   2.476   5.953   7.168 -0.1404  1.3552 -2.0882
  149SAPE   C3416482   2.416   6.009   7.372 -0.2302  0.0706  1.1492
  149SAPE   H4X16483   2.356   5.920   7.397  0.9736 -1.0941  0.0538
  149SAPE   H4Y16484   2.373   6.100   7.419 -1.5530  0.8376 -1.3591
  149SAPE   C3516485   2.553   5.992   7.437 -0.4752  0.3992 -0.6973
  149SAPE   H5X16486   2.613   6.085   7.429  0.2507  0.1006  0.8455
  149SAPE   H5Y16487   2.620   5.911   7.404  1.5506  1.8938 -0.4403
  149SAPE   C3616488   2.528   5.986   7.590  0.8030  0.3633  0.0670
  149SAPE   H6X16489   2.490   5.884   7.610 -0.8134  0.9238  0.0282
  149SAPE   H6Y16490   2.460   6.062   7.635 -0.2975 -1.1181  0.9734
  149SAPE   C3716491   2.661   5.991   7.674  0.9183  0.4363  0.5658
  149SAPE   H7X16492   2.710   6.085   7.641 -0.6528  1.3521  0.7487
  149SAPE   H7Y16493   2.714   5.900   7.638  0.9457  0.6332  0.1121
  149SAPE   C3816494   2.644   6.006   7.827 -0.1547  0.1808 -0.0219
  149SAPE   H8X16495   2.565   5.933   7.857  2.0685 -0.6453  4.8456
  149SAPE   H8Y16496   2.602   6.108   7.842  1.8363  0.8234  1.6704
  149SAPE   C3916497   2.767   5.981   7.920  0.4933 -0.0513  0.1785
  149SAPE   H9X16498   2.836   5.913   7.867  1.1271  2.0776 -1.9077
  149SAPE   H9Y16499   2.739   5.950   8.023  0.3073  1.2121  0.5305
  149SAPE  C31016500   2.850   6.114   7.931 -0.7767 -0.1310  0.4229
  149SAPE  H10X16501   2.790   6.185   7.991 -0.0993 -0.6786  1.8083
  149SAPE  H10Y16502   2.874   6.164   7.835 -0.6535 -0.9105  0.0405
  149SAPE  C31116503   2.982   6.098   8.005 -0.0279  0.0626 -0.4466
  149SAPE  H11X16504   2.971   6.066   8.111  1.3543 -1.8048 -0.8038
  149SAPE  H11Y16505   3.046   6.189   8.012 -0.5981  0.3588  1.2181
  149SAPE  C31216506   3.072   5.984   7.959 -0.5267 -0.6184 -0.2484
  149SAPE  H12X16507   3.077   5.976   7.848  3.4501 -0.3849 -0.2033
  149SAPE  H12Y16508   3.023   5.888   7.986  2.4698 -2.2301 -0.1845
  149SAPE  C31316509   3.218   5.982   8.003  0.2951  0.2265 -0.2337
  149SAPE  H13X16510   3.257   6.079   7.967 -2.3443  1.6724  0.5477
  149SAPE  H13Y16511   3.259   5.897   7.945 -1.8191 -0.9702 -0.0878
  149SAPE  C31416512   3.251   5.953   8.150 -0.1849  0.2133 -0.2233
  149SAPE  H14X16513   3.218   6.044   8.206 -0.7490  0.3978 -0.8335
  149SAPE  H14Y16514   3.361   5.947   8.157 -0.2447 -0.9113 -0.0220
  149SAPE  C31516515   3.189   5.829   8.211  0.4389  0.1913  0.2229
  149SAPE  H15X16516   3.270   5.754   8.208  1.8031  1.6302 -0.4143
  149SAPE  H15Y16517   3.120   5.778   8.141 -0.0747  2.4666 -1.0150
  149SAPE  C31616518   3.123   5.841   8.353  0.6201 -0.0875 -0.1536
  149SAPE  H16X16519   3.016   5.871   8.343  1.0782  1.9126  0.4619
  149SAPE  H16Y16520   3.176   5.917   8.415 -0.5313  1.0685 -0.5423
  149SAPE  C31716521   3.123   5.699   8.424  0.4090  0.0404  0.2728
  149SAPE  H17X16522   3.227   5.660   8.428  2.2609  4.3875  3.8999
  149SAPE  H17Y16523   3.064   5.639   8.352  0.3096  1.8190 -1.2038
  149SAPE  C31816524   3.055   5.700   8.564 -0.5786  0.3749  0.4121
  149SAPE  H18X16525   2.990   5.612   8.588 -2.0359  1.0630 -0.8630
  149SAPE  H18Y16526   2.983   5.784   8.574 -2.2913 -0.6845 -2.0464
  149SAPE  H18Z16527   3.134   5.721   8.639  0.5607  0.0968 -0.6809
  150SAPE     N16528   2.451   0.655   6.101 -0.5020 -0.3116  0.0692
  150SAPE   HN116529   2.386   0.573   6.099 -0.2340 -0.5249 -1.2044
  150SAPE   HN216530   2.433   0.706   6.012  1.2445 -0.8949 -0.6699
  150SAPE   HN316531   2.545   0.612   6.111 -0.3183  0.1072  0.1653
  150SAPE   C1216532   2.423   0.737   6.225 -0.3688  0.5511  0.1825
  150SAPE  H12A16533   2.487   0.827   6.228  1.4992 -0.7203  0.5328
  150SAPE  H12B16534   2.444   0.676   6.316  0.5894  1.0052  0.2776
  150SAPE   C1116535   2.267   0.757   6.229 -0.5038 -0.3289  0.0123
  150SAPE  H11A16536   2.238   0.794   6.128  0.5080 -2.3883 -1.1038
  150SAPE  H11B16537   2.259   0.839   6.303  1.4054 -1.0879  1.1398
  150SAPE     P16538   2.065   0.636   6.360 -0.3770 -0.0770  0.1587
  150SAPE   O1316539   1.954   0.722   6.313  0.3402 -1.1306  0.1164
  150SAPE   O1416540   2.026   0.499   6.389  0.4912  0.0762 -0.1039
  150SAPE   O1216541   2.188   0.637   6.252  0.0164  0.3453  0.4186
  150SAPE   O1116542   2.138   0.695   6.480  0.3521 -0.2282  0.1400
  150SAPE    C116543   2.244   0.630   6.551 -0.3943 -0.2742 -0.2098
  150SAPE    HA16544   2.289   0.556   6.482  1.9205  0.2939  0.6082
  150SAPE    HB16545   2.319   0.705   6.584  0.2812 -1.8840  2.2067
  150SAPE    C216546   2.190   0.555   6.671  0.7592  0.9951 -0.3123
  150SAPE    HS16547   2.119   0.485   6.622 -0.6688  1.7158  0.6420
  150SAPE   O2116548   2.112   0.637   6.765  0.1797 -0.3381  0.1262
  150SAPE   C2116549   2.181   0.713   6.846 -0.2298  0.4493  0.2416
  150SAPE   O2216550   2.291   0.755   6.827  0.5828  0.2548 -0.3550
  150SAPE   C2216551   2.104   0.747   6.970  0.1966 -0.7507 -0.7088
  150SAPE   H2R16552   2.036   0.833   6.951 -1.0058 -1.8661 -1.6448
  150SAPE   H2S16553   2.037   0.662   6.997 -1.9659  1.8022  3.0630
  150SAPE    C316554   2.289   0.467   6.758 -0.3227 -0.0690  1.1501
  150SAPE    HX16555   2.384   0.524   6.760 -1.1273  1.3224  1.1572
  150SAPE    HY16556   2.309   0.371   6.707  0.5771 -0.1956  1.7305
  150SAPE   O3116557   2.237   0.440   6.889  0.4996  0.4690 -0.8529
  150SAPE   C3116558   2.139   0.351   6.896  0.1437  0.1532 -0.0825
  150SAPE   O3216559   2.090   0.301   6.793  0.1719 -0.4243  0.4075
  150SAPE   C3216560   2.090   0.317   7.042 -0.6226 -0.3097  0.5606
  150SAPE   H2X16561   2.102   0.407   7.107  0.6752  0.7308 -1.0234
  150SAPE   H2Y16562   2.171   0.247   7.070 -0.9062  0.4954  3.7734
  150SAPE   C2316563   2.184   0.793   7.093 -0.4625 -0.3425  0.2444
  150SAPE   H3R16564   2.227   0.895   7.083  1.1549 -0.8251  1.7008
  150SAPE   H3S16565   2.277   0.732   7.100 -0.2056  0.0717  0.5308
  150SAPE   C2416566   2.113   0.786   7.226 -0.7320 -0.2942  0.2022
  150SAPE   H4R16567   2.015   0.837   7.217 -1.8802 -2.6529 -1.5687
  150SAPE   H4S16568   2.167   0.844   7.305 -0.0448 -2.0111  1.0504
  150SAPE   C2516569   2.098   0.644   7.277 -0.1711 -0.2836 -0.7502
  150SAPE   H5R16570   2.001   0.602   7.250 -1.5562  1.6031  0.9588
  150SAPE   C2616571   2.176   0.572   7.365 -0.9203  0.6561 -1.2476
  150SAPE   H6R16572   2.137   0.476   7.405  2.2758 -0.4000 -0.3996
  150SAPE   C2716573   2.311   0.602   7.438  0.4197 -0.0923  0.8294
  150SAPE   H7R16574   2.306   0.712   7.451 -0.1834  0.1769 -1.3421
  150SAPE   H7S16575   2.401   0.585   7.375 -0.5492 -1.7723 -0.1928
  150SAPE   C2816576   2.350   0.541   7.573 -0.1640  0.8645 -0.1926
  150SAPE   H8R16577   2.346   0.431   7.578  0.4218  0.8789  0.7508
  150SAPE   C2916578   2.389   0.609   7.687  0.2944  0.4189 -0.0122
  150SAPE   H9R16579   2.417   0.543   7.771  0.7217 -2.2051 -2.0931
  150SAPE  C21016580   2.393   0.759   7.706  0.0511  0.2681 -0.4353
  150SAPE  H10R16581   2.327   0.785   7.793  1.0796 -1.0912  0.7943
  150SAPE  H10S16582   2.344   0.814   7.623 -0.0470  1.7245  0.5493
  150SAPE  C21116583   2.536   0.811   7.720  0.0278 -0.3984 -0.1367
  150SAPE  H11R16584   2.584   0.850   7.630  0.6283  0.3045  0.4746
  150SAPE  C21216585   2.605   0.818   7.836 -0.2742  0.3235 -0.2960
  150SAPE  H12R16586   2.708   0.857   7.831 -0.3604  0.8200  1.2317
  150SAPE  C21316587   2.567   0.767   7.965  0.5155 -0.2297 -0.4863
  150SAPE  H13R16588   2.600   0.661   7.977 -0.5622 -0.5050  0.2489
  150SAPE  H13S16589   2.455   0.764   7.964  0.4649  0.4764  0.7682
  150SAPE  C21416590   2.616   0.851   8.080 -0.5768 -0.1536 -0.2881
  150SAPE  H14R16591   2.578   0.955   8.079 -2.2601 -0.6608  2.1286
  150SAPE  C21516592   2.698   0.826   8.179  0.0106  0.4001  0.7349
  150SAPE  H15R16593   2.727   0.912   8.241 -3.0363  1.6616  0.6116
  150SAPE  C21616594   2.769   0.698   8.205  0.2235 -0.3181  0.7602
  150SAPE  H16R16595   2.799   0.649   8.110 -2.2654  0.0295 -0.2873
  150SAPE  H16S16596   2.695   0.632   8.257 -0.7706  0.8862  0.9256
  150SAPE  C21716597   2.895   0.717   8.286 -0.0908  0.4683 -0.6025
  150SAPE  H17R16598   2.863   0.769   8.380 -0.7141 -0.3127 -0.3768
  150SAPE  H17S16599   2.962   0.793   8.240  1.2434  0.5405  1.3044
  150SAPE  C21816600   2.971   0.590   8.326 -0.7844 -0.0198  0.3171
  150SAPE  H18R16601   2.996   0.530   8.235 -0.1628 -0.1032  0.5381
  150SAPE  H18S16602   2.910   0.527   8.394 -1.7099  0.1445 -0.3354
  150SAPE  C21916603   3.105   0.619   8.400 -0.5047 -0.1792 -0.0769
  150SAPE  H19R16604   3.080   0.635   8.507 -1.9411  1.1929 -0.5765
  150SAPE  H19S16605   3.151   0.716   8.371 -0.8449 -0.0718 -0.2701
  150SAPE  C22016606   3.217   0.516   8.403  0.7585  0.2731 -0.0149
  150SAPE  H20R16607   3.266   0.521   8.304 -2.0950 -0.5440 -1.5997
  150SAPE  H20S16608   3.169   0.416   8.417  0.3972  0.5100  0.4898
  150SAPE  H20T16609   3.291   0.532   8.484 -0.0153 -2.4830  1.3926
  150SAPE   C3316610   1.954   0.251   7.049  0.2494  0.1798  0.0264
  150SAPE   H3X16611   1.969   0.156   6.995  1.6827  0.7113 -0.5370
  150SAPE   H3Y16612   1.868   0.300   6.999 -1.8851 -3.2895 -0.0101
  150SAPE   C3416613   1.904   0.214   7.190 -0.6078  0.3319 -0.9793
  150SAPE   H4X16614   1.905   0.299   7.262  1.3122 -2.5625  2.7230
  150SAPE   H4Y16615   1.976   0.141   7.232 -2.4356  0.0102  1.8625
  150SAPE   C3516616   1.765   0.146   7.190  0.0385  0.3466  0.0379
  150SAPE   H5X16617   1.749   0.110   7.086 -1.3800  1.6734 -0.2429
  150SAPE   H5Y16618   1.694   0.231   7.204  1.9354  1.6422  2.8702
  150SAPE   C3616619   1.747   0.049   7.310  0.7485 -0.2338 -0.2742
  150SAPE   H6X16620   1.756   0.094   7.411  0.6147  0.5080 -0.5894
  150SAPE   H6Y16621   1.813  -0.040   7.313  0.5126 -0.3757  1.3964
  150SAPE   C3716622   1.600  -0.010   7.303 -0.7123  0.3645  0.3010
  150SAPE   H7X16623   1.587  -0.043   7.198 -2.8096  0.5157  0.4659
  150SAPE   H7Y16624   1.531   0.076   7.314 -1.0947 -0.0075  0.8494
  150SAPE   C3816625   1.589  -0.129   7.400 -0.1320  0.6739 -0.6456
  150SAPE   H8X16626   1.656  -0.216   7.384 -0.1540  0.2074  1.4942
  150SAPE   H8Y16627   1.492  -0.183   7.392  0.3133 -0.1737 -0.3933
  150SAPE   C3916628   1.603  -0.096   7.548  0.2181 -0.0475 -0.1567
  150SAPE   H9X16629   1.537  -0.008   7.566  2.6190  1.7600  0.3805
  150SAPE   H9Y16630   1.702  -0.050   7.574  0.6114  0.2267 -2.0223
  150SAPE  C31016631   1.558  -0.200   7.651 -0.8538 -0.4186  0.6279
  150SAPE  H10X16632   1.609  -0.293   7.618 -2.2830 -1.3570  0.9567
  150SAPE  H10Y16633   1.450  -0.224   7.651 -1.0255  0.3491  0.5572
  150SAPE  C31116634   1.588  -0.170   7.797 -0.7532 -1.1564  0.2314
  150SAPE  H11X16635   1.586  -0.059   7.796 -1.1925 -1.1555  0.6777
  150SAPE  H11Y16636   1.686  -0.204   7.836 -0.0451 -1.5949 -1.8283
  150SAPE  C31216637   1.476  -0.213   7.889 -0.0694  0.1185  0.5945
  150SAPE  H12X16638   1.464  -0.323   7.879 -0.6909  0.1814  0.5887
  150SAPE  H12Y16639   1.382  -0.160   7.861 -1.2009 -1.7808  0.6499
  150SAPE  C31316640   1.504  -0.183   8.039 -0.9513 -0.2236  0.3267
  150SAPE  H13X16641   1.596  -0.122   8.052 -0.7955 -0.4947  0.4912
  150SAPE  H13Y16642   1.538  -0.282   8.075  2.4420  0.9267  0.6367
  150SAPE  C31416643   1.387  -0.126   8.119  0.0846  0.1178  0.0209
  150SAPE  H14X16644   1.300  -0.182   8.080  1.5914 -2.7412  0.4491
  150SAPE  H14Y16645   1.374  -0.024   8.076  0.1997 -0.3135 -1.0792
  150SAPE  C31516646   1.412  -0.153   8.271  0.1519 -0.2442  0.3714
  150SAPE  H15X16647   1.515  -0.119   8.295  0.2758  0.7741 -1.4492
  150SAPE  H15Y16648   1.414  -0.262   8.292 -1.5042 -0.6818 -1.3736
  150SAPE  C31616649   1.304  -0.104   8.367  0.8223 -0.0836 -0.7860
  150SAPE  H16X16650   1.203  -0.128   8.329  0.2950 -1.5926  1.3800
  150SAPE  H16Y16651   1.301   0.005   8.390  0.5724  0.0080 -1.2391
  150SAPE  C31716652   1.324  -0.183   8.501  0.4637 -0.3460 -0.1981
  150SAPE  H17X16653   1.418  -0.149   8.551 -1.7631  2.5186  2.4734
  150SAPE  H17Y16654   1.322  -0.293   8.486  1.8593 -0.8009  2.2772
  150SAPE  C31816655   1.212  -0.144   8.609 -0.7421 -0.0050 -0.6184
  150SAPE  H18X16656   1.217  -0.036   8.637  0.9538 -0.3822  0.7533
  150SAPE  H18Y16657   1.224  -0.205   8.701 -0.9848 -1.1075 -1.3065
  150SAPE  H18Z16658   1.112  -0.170   8.569 -1.7270 -0.1572  1.7655
  151SAPE     N16659   3.173   5.536   6.385  0.0236  0.0026  0.2101
  151SAPE   HN116660   3.124   5.605   6.326 -1.2214 -0.4702  0.6712
  151SAPE   HN216661   3.186   5.452   6.324 -2.3393 -1.3721  1.4894
  151SAPE   HN316662   3.114   5.499   6.461 -0.0545  0.0234  0.1593
  151SAPE   C1216663   3.304   5.590   6.429 -0.5592  0.2068 -0.2797
  151SAPE  H12A16664   3.375   5.566   6.348 -0.2474  0.1147  0.0164
  151SAPE  H12B16665   3.323   5.540   6.527 -1.4399 -2.0628 -1.1933
  151SAPE   C1116666   3.305   5.744   6.458 -0.2576 -0.6124  0.5363
  151SAPE  H11A16667   3.368   5.773   6.544  0.1687  0.9353 -0.2585
  151SAPE  H11B16668   3.198   5.769   6.474  0.0461  1.0512  0.1068
  151SAPE     P16669   3.353   5.971   6.356  0.0666  0.5696  0.3760
  151SAPE   O1316670   3.492   6.001   6.374 -0.2123  0.2505  0.4528
  151SAPE   O1416671   3.287   6.037   6.237  0.1743 -0.7951 -0.2490
  151SAPE   O1216672   3.345   5.816   6.336 -0.0761  0.2667 -0.2401
  151SAPE   O1116673   3.282   6.003   6.498  0.0002 -0.1079  1.3134
  151SAPE    C116674   3.296   6.118   6.578 -0.3864 -0.5612  0.2151
  151SAPE    HA16675   3.368   6.186   6.528 -0.9298  1.8716  2.4841
  151SAPE    HB16676   3.201   6.176   6.588 -0.1565 -0.4469  2.2659
  151SAPE    C216677   3.360   6.085   6.716  0.1329  0.0504 -0.9387
  151SAPE    HS16678   3.377   6.184   6.762 -0.8765  0.0068 -0.4405
  151SAPE   O2116679   3.482   6.012   6.711 -0.4722  0.3790  0.8130
  151SAPE   C2116680   3.579   6.070   6.648  0.4807  0.3535  0.4027
  151SAPE   O2216681   3.585   6.189   6.619  0.3485 -0.6843 -0.1328
  151SAPE   C2216682   3.684   5.964   6.594  0.0827  0.2391  0.6751
  151SAPE   H2R16683   3.713   5.897   6.678  0.1021 -0.8620 -0.1907
  151SAPE   H2S16684   3.631   5.890   6.530 -0.4032  0.5508  0.7122
  151SAPE    C316685   3.266   5.995   6.807  0.5149 -0.0681 -0.2904
  151SAPE    HX16686   3.256   5.892   6.766 -0.1579 -0.2980  0.4472
  151SAPE    HY16687   3.163   6.036   6.808  0.4671 -0.1402 -1.1436
  151SAPE   O3116688   3.321   5.996   6.939  0.1266  1.0819 -0.3560
  151SAPE   C3116689   3.298   6.105   7.016  0.4959  0.5349 -0.0716
  151SAPE   O3216690   3.215   6.188   6.992  0.2567  0.1921 -0.3761
  151SAPE   C3216691   3.359   6.076   7.149 -0.4195 -0.2187  0.1212
  151SAPE   H2X16692   3.443   6.147   7.170  0.2479 -0.9651  0.0418
  151SAPE   H2Y16693   3.399   5.972   7.149  0.4819  0.0563 -2.6832
  151SAPE   C2316694   3.809   6.024   6.527  0.6121 -0.1186 -0.5315
  151SAPE   H3R16695   3.780   6.116   6.473 -0.4354 -0.1899 -0.1270
  151SAPE   H3S16696   3.848   5.941   6.464  1.3820  1.3962 -2.0993
  151SAPE   C2416697   3.914   6.069   6.628  0.1967  0.4379  0.8874
  151SAPE   H4R16698   3.863   6.138   6.698  1.4759  3.2805 -0.7864
  151SAPE   H4S16699   3.975   6.146   6.576  0.3382  1.0733  1.9807
  151SAPE   C2516700   4.012   5.962   6.677 -0.4055  0.0841  0.7330
  151SAPE   H5R16701   4.076   5.916   6.600 -0.6910  1.9557 -0.6924
  151SAPE   C2616702   4.029   5.931   6.803 -0.5763 -0.4110  0.3579
  151SAPE   H6R16703   4.096   5.847   6.827 -2.3679 -1.2967  2.5669
  151SAPE   C2716704   3.961   5.975   6.925  0.5780  0.3730 -0.7538
  151SAPE   H7R16705   3.852   5.984   6.909  0.1150 -3.1071 -0.4250
  151SAPE   H7S16706   4.001   6.077   6.939 -0.7321  0.7836  0.2067
  151SAPE   C2816707   3.982   5.888   7.046  0.0212 -0.1150 -0.8265
  151SAPE   H8R16708   4.040   5.796   7.030  0.0112 -0.0552 -1.2159
  151SAPE   C2916709   3.961   5.934   7.170 -0.2504  1.3276  0.6333
  151SAPE   H9R16710   4.003   5.886   7.259 -0.5708 -1.2710 -0.5445
  151SAPE  C21016711   3.908   6.070   7.201 -0.2197 -1.0968 -0.3524
  151SAPE  H10R16712   3.882   6.141   7.120  0.3190  0.2127  0.5865
  151SAPE  H10S16713   3.990   6.130   7.246  1.7933 -2.9756 -1.3440
  151SAPE  C21116714   3.790   6.066   7.295 -0.4664 -0.1773 -0.4721
  151SAPE  H11R16715   3.697   6.035   7.244  0.1547 -0.7160 -1.3013
  151SAPE  C21216716   3.790   6.094   7.429  0.8436  0.1016 -0.0229
  151SAPE  H12R16717   3.691   6.084   7.478  0.2113 -0.3121 -1.3252
  151SAPE  C21316718   3.908   6.143   7.513 -0.2507  0.8564  0.5231
  151SAPE  H13R16719   3.999   6.172   7.457 -0.2761 -0.2397 -0.1102
  151SAPE  H13S16720   3.934   6.059   7.580 -1.1779  0.4457  0.3851
  151SAPE  C21416721   3.875   6.273   7.587  0.1923  0.2350  0.0249
  151SAPE  H14R16722   3.898   6.364   7.530  1.3936 -0.3748 -0.4914
  151SAPE  C21516723   3.825   6.277   7.714 -0.4895  0.4173 -0.4526
  151SAPE  H15R16724   3.802   6.371   7.766 -1.2402 -0.5499  0.9978
  151SAPE  C21616725   3.799   6.161   7.801 -0.0319 -0.4038 -0.0094
  151SAPE  H16R16726   3.765   6.071   7.745 -0.1165  0.3129 -1.1279
  151SAPE  H16S16727   3.728   6.191   7.881 -0.6672 -0.5889 -0.5050
  151SAPE  C21716728   3.921   6.117   7.885  0.5673 -0.9750 -0.3051
  151SAPE  H17R16729   4.013   6.102   7.826  0.7463 -0.9381 -0.0393
  151SAPE  H17S16730   3.907   6.026   7.947  4.7629 -0.7546  1.2417
  151SAPE  C21816731   3.953   6.216   8.002 -0.9365  0.4446  0.0136
  151SAPE  H18R16732   3.960   6.318   7.959  0.0762  0.0079 -0.9187
  151SAPE  H18S16733   4.050   6.190   8.049  0.2141 -1.3181 -3.0486
  151SAPE  C21916734   3.849   6.217   8.115 -0.2927 -0.3202  0.0247
  151SAPE  H19R16735   3.823   6.115   8.149 -0.4839  0.0856  1.1121
  151SAPE  H19S16736   3.758   6.270   8.080  0.3053  0.7142 -0.0089
  151SAPE  C22016737   3.893   6.300   8.235 -0.4435  0.5221  0.1269
  151SAPE  H20R16738   3.933   6.395   8.194  1.5934  0.2827  1.4002
  151SAPE  H20S16739   3.811   6.327   8.305 -1.5111 -1.1936 -0.3944
  151SAPE  H20T16740   3.975   6.242   8.283  0.7911  0.0032 -2.4100
  151SAPE   C3316741   3.250   6.089   7.260 -0.5519 -0.1627  0.2840
  151SAPE   H3X16742   3.167   6.016   7.247 -0.1366 -0.8153  1.2251
  151SAPE   H3Y16743   3.214   6.195   7.261 -1.1881 -0.3390 -1.1416
  151SAPE   C3416744   3.300   6.053   7.396 -0.0318  0.0201 -0.0292
  151SAPE   H4X16745   3.336   5.948   7.390 -2.0031 -1.0066  3.3211
  151SAPE   H4Y16746   3.214   6.054   7.467  1.2838  0.5975  1.6401
  151SAPE   C3516747   3.412   6.145   7.446 -0.3430 -0.0175  0.8222
  151SAPE   H5X16748   3.491   6.131   7.369 -0.8185  0.0662  0.3154
  151SAPE   H5Y16749   3.464   6.122   7.542  2.1883  0.4726 -0.3324
  151SAPE   C3616750   3.382   6.294   7.439  0.2609  0.3146 -0.3247
  151SAPE   H6X16751   3.285   6.309   7.490 -1.6020 -1.5200 -3.0402
  151SAPE   H6Y16752   3.370   6.348   7.343  2.2693  0.8961 -0.2880
  151SAPE   C3716753   3.493   6.369   7.512  0.3061 -0.3454  0.4670
  151SAPE   H7X16754   3.586   6.353   7.452 -0.3478  2.5618 -1.5565
  151SAPE   H7Y16755   3.520   6.323   7.610  1.2087  1.3424  1.0563
  151SAPE   C3816756   3.478   6.523   7.522 -0.5822 -1.2521  0.5979
  151SAPE   H8X16757   3.378   6.558   7.492 -0.0947 -0.6590 -0.3909
  151SAPE   H8Y16758   3.552   6.563   7.449 -1.5552 -0.1999  0.1679
  151SAPE   C3916759   3.509   6.575   7.665  0.0655  0.2090  0.1755
  151SAPE   H9X16760   3.533   6.683   7.658  1.0369  0.0825  1.2160
  151SAPE   H9Y16761   3.608   6.533   7.693  1.2190  2.1706 -0.7599
  151SAPE  C31016762   3.404   6.553   7.775 -0.6604  0.6357  0.3393
  151SAPE  H10X16763   3.416   6.444   7.794 -0.0410  0.3622 -1.4650
  151SAPE  H10Y16764   3.304   6.571   7.729 -0.9177 -2.8490 -0.7489
  151SAPE  C31116765   3.450   6.629   7.908  0.4599 -0.4813  0.5945
  151SAPE  H11X16766   3.429   6.738   7.905 -0.5838 -0.6624  1.0703
  151SAPE  H11Y16767   3.558   6.601   7.913  0.1850 -1.9645 -0.7404
  151SAPE  C31216768   3.374   6.585   8.029  0.4161  0.4444 -1.0130
  151SAPE  H12X16769   3.268   6.617   8.033  0.1278 -0.5817  0.3853
  151SAPE  H12Y16770   3.419   6.630   8.120 -2.7711  0.1993  0.8484
  151SAPE  C31316771   3.384   6.428   8.049 -0.4256 -0.5021 -0.1419
  151SAPE  H13X16772   3.487   6.403   8.016 -0.8105 -1.4432 -0.6560
  151SAPE  H13Y16773   3.314   6.370   7.986  1.2194 -1.6741 -0.9676
  151SAPE  C31416774   3.348   6.383   8.189  0.7246 -0.5206 -0.0695
  151SAPE  H14X16775   3.395   6.451   8.263  0.9464  0.2371 -0.8944
  151SAPE  H14Y16776   3.396   6.283   8.199  0.6369 -0.6932 -1.2886
  151SAPE  C31516777   3.199   6.363   8.225 -0.0475  0.0806  0.0256
  151SAPE  H15X16778   3.151   6.283   8.165  0.9900  0.5691 -1.5386
  151SAPE  H15Y16779   3.152   6.460   8.196 -0.4837 -0.2309 -0.3398
  151SAPE  C31616780   3.183   6.340   8.377  0.8041  0.1308  0.0221
  151SAPE  H16X16781   3.219   6.433   8.425 -0.8162 -0.2256  2.0511
  151SAPE  H16Y16782   3.241   6.251   8.411  3.1471  1.5491 -0.0609
  151SAPE  C31716783   3.030   6.321   8.408 -0.3233 -0.1058  0.1514
  151SAPE  H17X16784   3.000   6.220   8.375  1.3496 -0.9753  1.1947
  151SAPE  H17Y16785   2.968   6.391   8.348 -0.0260  0.8155  0.8948
  151SAPE  C31816786   2.994   6.356   8.551  0.0762 -0.5249  0.1193
  151SAPE  H18X16787   2.884   6.345   8.562  0.1171 -3.8926 -1.3840
  151SAPE  H18Y16788   3.033   6.458   8.566  0.6604 -0.5402 -1.1058
  151SAPE  H18Z16789   3.049   6.299   8.629 -1.0280 -0.8382  0.6821
  152SAPE     N16790   0.651   3.129   6.240  0.0887  0.3553 -0.6037
  152SAPE   HN116791   0.688   3.220   6.206  0.4543  0.4993  0.1629
  152SAPE   HN216792   0.583   3.145   6.317 -0.1227 -1.4775 -0.3789
  152SAPE   HN316793   0.729   3.068   6.271 -1.0430 -0.1069  1.5030
  152SAPE   C1216794   0.580   3.059   6.131  0.3815  0.5904  0.1057
  152SAPE  H12A16795   0.654   3.011   6.063 -1.5747 -0.4468 -1.4236
  152SAPE  H12B16796   0.518   3.127   6.068  2.3064  2.5331  0.1932
  152SAPE   C1116797   0.491   2.952   6.201 -0.3141  0.3483 -0.2150
  152SAPE  H11A16798   0.476   2.882   6.116 -1.5597  1.8574 -1.3034
  152SAPE  H11B16799   0.385   2.976   6.222 -1.1308 -2.5444 -0.5251
  152SAPE     P16800   0.583   2.730   6.333  0.2091 -0.2619 -0.4666
  152SAPE   O1316801   0.461   2.655   6.320  0.8593  0.3030  0.2947
  152SAPE   O1416802   0.703   2.687   6.264  0.0949 -0.1987 -0.6241
  152SAPE   O1216803   0.560   2.884   6.310  0.6144  0.8646  0.1623
  152SAPE   O1116804   0.608   2.735   6.490 -0.3953  0.0592 -0.0002
  152SAPE    C116805   0.716   2.817   6.542  0.3672 -0.2519 -0.0663
  152SAPE    HA16806   0.808   2.777   6.495  1.1213 -0.3676  1.4540
  152SAPE    HB16807   0.714   2.922   6.504  0.1994 -0.9756 -2.1632
  152SAPE    C216808   0.721   2.826   6.698  0.1647 -0.0175  0.6565
  152SAPE    HS16809   0.753   2.732   6.748  0.9893 -0.8016 -1.2416
  152SAPE   O2116810   0.595   2.880   6.743 -0.0803  0.5886  0.3062
  152SAPE   C2116811   0.540   2.815   6.842  0.1705  0.8172  0.2240
  152SAPE   O2216812   0.587   2.721   6.904 -0.0305 -0.3833 -0.2396
  152SAPE   C2216813   0.396   2.871   6.846  0.4221  0.1476 -0.3444
  152SAPE   H2R16814   0.413   2.979   6.828 -0.7896  0.1086 -1.9207
  152SAPE   H2S16815   0.348   2.826   6.757  0.0742 -0.7824  0.2997
  152SAPE    C316816   0.839   2.924   6.744 -0.1112  0.5629  0.3385
  152SAPE    HX16817   0.827   3.027   6.705 -0.0170  1.2318  1.9902
  152SAPE    HY16818   0.933   2.896   6.691 -0.6634  2.6068 -1.9066
  152SAPE   O3116819   0.864   2.912   6.886 -0.3376  0.8472 -0.0435
  152SAPE   C3116820   0.843   3.019   6.951  0.0868 -0.2983 -0.3034
  152SAPE   O3216821   0.802   3.126   6.910  1.0021  0.7267  0.3724
  152SAPE   C3216822   0.851   2.987   7.100 -0.4214  0.4039 -0.0451
  152SAPE   H2X16823   0.835   3.087   7.146  0.8432 -0.0322  1.4470
  152SAPE   H2Y16824   0.953   2.951   7.129 -0.1482  1.5655  0.5128
  152SAPE   C2316825   0.330   2.840   6.981 -0.5982  1.1684  0.1071
  152SAPE   H3R16826   0.405   2.858   7.060  2.0308 -1.5651 -1.5061
  152SAPE   H3S16827   0.308   2.731   6.991 -1.3754  1.4691  1.9438
  152SAPE   C2416828   0.201   2.923   6.999  0.1311  0.2436 -0.2776
  152SAPE   H4R16829   0.138   2.883   7.081 -0.9123  0.4055 -0.9783
  152SAPE   H4S16830   0.143   2.902   6.906 -1.8025 -1.1425  1.1591
  152SAPE   C2516831   0.219   3.070   7.008  0.6919  0.2846 -0.0043
  152SAPE   H5R16832   0.262   3.119   6.919  1.6137 -0.0581  0.2447
  152SAPE   C2616833   0.188   3.143   7.117 -1.1806 -0.0229  0.1053
  152SAPE   H6R16834   0.208   3.251   7.111  1.0779 -0.4418 -0.9405
  152SAPE   C2716835   0.133   3.095   7.251 -0.3286 -0.1570  0.0010
  152SAPE   H7R16836   0.070   3.005   7.242  1.6796 -1.6402  0.1770
  152SAPE   H7S16837   0.066   3.173   7.294 -1.2207 -0.8610 -0.0853
  152SAPE   C2816838   0.235   3.068   7.363 -0.3652 -1.1195  0.2252
  152SAPE   H8R16839   0.339   3.054   7.331  1.0261  3.4662  1.9826
  152SAPE   C2916840   0.215   3.050   7.495  1.2055  0.4611  0.2842
  152SAPE   H9R16841   0.299   3.025   7.561  0.9965 -0.4637  0.2150
  152SAPE  C21016842   0.090   3.053   7.579 -0.1787 -0.5322 -0.0203
  152SAPE  H10R16843   0.076   2.961   7.639 -1.2947 -0.9366 -0.8500
  152SAPE  H10S16844  -0.004   3.065   7.519 -0.7798 -1.9113  0.5959
  152SAPE  C21116845   0.089   3.180   7.666  0.1940  0.1027 -0.0613
  152SAPE  H11R16846   0.102   3.268   7.601 -0.1689 -0.8633 -1.5039
  152SAPE  C21216847   0.049   3.186   7.797  0.4115 -0.4658 -1.3577
  152SAPE  H12R16848   0.038   3.284   7.845  2.4231 -0.0538 -1.6470
  152SAPE  C21316849   0.007   3.068   7.886 -0.4498  0.0894 -0.7888
  152SAPE  H13R16850  -0.018   2.988   7.813 -3.4496  0.2306 -0.0548
  152SAPE  H13S16851  -0.084   3.097   7.943  1.4457 -1.3158  3.3524
  152SAPE  C21416852   0.121   3.017   7.973  1.1005 -0.1664 -0.0816
  152SAPE  H14R16853   0.220   3.052   7.940 -0.0547  4.2079  0.3901
  152SAPE  C21516854   0.100   2.952   8.093  0.2210 -0.0097  0.3019
  152SAPE  H15R16855   0.182   2.919   8.159 -1.8107 -1.1382  2.3903
  152SAPE  C21616856  -0.037   2.907   8.147  0.0116 -0.3611 -0.0323
  152SAPE  H16R16857  -0.106   2.914   8.059 -0.5543 -1.9188  0.2552
  152SAPE  H16S16858  -0.075   2.971   8.229 -1.3367 -1.9622  0.6474
  152SAPE  C21716859  -0.051   2.769   8.213  0.6342  0.1917 -0.0213
  152SAPE  H17R16860   0.003   2.699   8.146  0.1079  1.2409 -1.5770
  152SAPE  H17S16861  -0.159   2.744   8.222  1.2889 -2.6988  0.9074
  152SAPE  C21816862   0.018   2.763   8.354 -0.4979 -0.1344  0.5547
  152SAPE  H18R16863   0.101   2.835   8.367 -0.2378  0.2208 -2.4037
  152SAPE  H18S16864   0.074   2.667   8.360 -3.2058 -1.7417  2.4337
  152SAPE  C21916865  -0.064   2.767   8.478 -0.9593 -0.1213  0.2828
  152SAPE  H19R16866  -0.006   2.708   8.553  1.0343  1.0203 -0.2936
  152SAPE  H19S16867  -0.163   2.716   8.474  0.0678 -2.4577  1.9146
  152SAPE  C22016868  -0.076   2.905   8.543 -0.1549 -0.0304 -0.2127
  152SAPE  H20R16869  -0.082   2.892   8.653 -1.1498  0.9655 -0.1304
  152SAPE  H20S16870  -0.176   2.941   8.512 -0.7919 -2.0443 -0.6344
  152SAPE  H20T16871   0.011   2.973   8.527  0.3412 -0.6699 -0.2795
  152SAPE   C3316872   0.740   2.875   7.128 -0.3266 -0.8031  0.1306
  152SAPE   H3X16873   0.763   2.797   7.052  0.8666 -0.5476  0.2099
  152SAPE   H3Y16874   0.644   2.926   7.107  0.6340  0.4130 -1.5611
  152SAPE   C3416875   0.741   2.812   7.267 -0.0796 -0.8860 -0.3616
  152SAPE   H4X16876   0.845   2.802   7.307  0.8433  0.7647 -2.1691
  152SAPE   H4Y16877   0.693   2.715   7.247 -0.5176 -0.5918 -0.7386
  152SAPE   C3516878   0.655   2.888   7.378  0.1150  0.7761  0.0433
  152SAPE   H5X16879   0.554   2.905   7.335  0.8242  2.1359 -1.1887
  152SAPE   H5Y16880   0.709   2.983   7.400  0.0169  0.8917 -0.1998
  152SAPE   C3616881   0.630   2.793   7.499 -0.3219 -0.5103  0.2092
  152SAPE   H6X16882   0.727   2.752   7.533 -0.4093 -1.6001 -0.8078
  152SAPE   H6Y16883   0.553   2.717   7.474 -0.4881  0.2019 -1.5757
  152SAPE   C3716884   0.564   2.880   7.610 -0.4679  0.2745 -0.6876
  152SAPE   H7X16885   0.455   2.894   7.594 -0.5197  0.7515  0.0440
  152SAPE   H7Y16886   0.613   2.980   7.604 -0.5621  0.2783 -1.6114
  152SAPE   C3816887   0.595   2.820   7.749  0.3609 -0.0503  0.1309
  152SAPE   H8X16888   0.705   2.807   7.756  0.4975  1.0791  0.1552
  152SAPE   H8Y16889   0.553   2.717   7.750  0.4278 -0.0737  0.9905
  152SAPE   C3916890   0.532   2.898   7.862 -0.1572 -0.4767  0.2872
  152SAPE   H9X16891   0.421   2.886   7.854 -0.2486 -1.3940  2.2202
  152SAPE   H9Y16892   0.563   3.004   7.859  0.4826 -0.6718 -2.8603
  152SAPE  C31016893   0.558   2.835   8.001  0.2048 -0.1894 -0.5060
  152SAPE  H10X16894   0.665   2.842   8.031 -0.3510 -0.6804  1.8379
  152SAPE  H10Y16895   0.527   2.729   8.010 -4.3677  1.0339  1.6004
  152SAPE  C31116896   0.471   2.905   8.109 -0.3886 -0.5062  0.1700
  152SAPE  H11X16897   0.364   2.902   8.081 -0.6186 -1.1634  1.0560
  152SAPE  H11Y16898   0.505   3.010   8.110 -1.1924 -0.2310 -0.5313
  152SAPE  C31216899   0.482   2.834   8.247 -0.0510 -0.3734 -0.8934
  152SAPE  H12X16900   0.416   2.892   8.314 -0.4291  0.7010 -2.1510
  152SAPE  H12Y16901   0.585   2.857   8.282 -0.2623 -0.3425 -0.2816
  152SAPE  C31316902   0.440   2.683   8.256 -0.4264 -0.4717  0.4559
  152SAPE  H13X16903   0.498   2.620   8.185  1.1178 -0.6369  1.8038
  152SAPE  H13Y16904   0.332   2.683   8.231 -1.0277  2.0727  2.5757
  152SAPE  C31416905   0.466   2.616   8.391  0.3779  0.2768  0.0673
  152SAPE  H14X16906   0.566   2.645   8.431  0.8926 -0.5560 -0.5752
  152SAPE  H14Y16907   0.471   2.505   8.385  0.4494  0.2487  0.6153
  152SAPE  C31516908   0.356   2.651   8.498  0.0201  0.3961 -0.4186
  152SAPE  H15X16909   0.250   2.644   8.467 -0.6703  4.2968  0.5527
  152SAPE  H15Y16910   0.378   2.756   8.528  3.3379 -0.0763 -0.7732
  152SAPE  C31616911   0.371   2.568   8.629 -0.5717  0.1857  0.3326
  152SAPE  H16X16912   0.453   2.611   8.689 -0.8466 -0.0728  0.8985
  152SAPE  H16Y16913   0.369   2.458   8.611 -0.2490  0.0477  1.1260
  152SAPE  C31716914   0.254   2.598   8.726 -0.6178 -0.1633 -0.1216
  152SAPE  H17X16915   0.164   2.545   8.687 -0.6447  0.7890 -1.4269
  152SAPE  H17Y16916   0.230   2.706   8.713 -0.2134  0.0420  0.7695
  152SAPE  C31816917   0.283   2.583   8.874  0.2415 -0.2109 -0.4839
  152SAPE  H18X16918   0.198   2.616   8.937  0.7250 -0.0668  0.1030
  152SAPE  H18Y16919   0.365   2.648   8.913  0.6676 -0.4396 -0.9818
  152SAPE  H18Z16920   0.303   2.475   8.889 -1.2921 -0.3639  0.7027
  153SAPE     N16921   3.909   3.130   6.302  0.1782  0.0689  0.7279
  153SAPE   HN116922   3.887   3.123   6.403  1.4201  3.1169  1.3188
  153SAPE   HN216923   3.991   3.066   6.296 -0.5131 -0.8536  1.0214
  153SAPE   HN316924   3.938   3.229   6.287  1.0757 -0.3812 -0.8550
  153SAPE   C1216925   3.800   3.081   6.210  0.0682  0.4381 -0.0454
  153SAPE  H12A16926   3.820   3.102   6.102  1.3986  0.2320  0.1431
  153SAPE  H12B16927   3.712   3.140   6.244  1.2148  1.7487  0.7672
  153SAPE   C1116928   3.761   2.936   6.232  0.5081  0.0257  0.0087
  153SAPE  H11A16929   3.847   2.869   6.215  0.0951 -0.5308  0.0873
  153SAPE  H11B16930   3.685   2.903   6.158  0.1642 -0.0973  0.4089
  153SAPE     P16931   3.618   2.797   6.400  0.2986  0.3197  0.0229
  153SAPE   O1316932   3.485   2.860   6.426  0.3600  0.1625  0.5906
  153SAPE   O1416933   3.632   2.700   6.289  0.1729 -0.1640 -1.2260
  153SAPE   O1216934   3.715   2.916   6.363 -0.3517  0.0493  0.1752
  153SAPE   O1116935   3.684   2.740   6.528  0.2201 -0.3815  0.3275
  153SAPE    C116936   3.792   2.796   6.605  0.0719  0.0958 -0.6929
  153SAPE    HA16937   3.832   2.722   6.678  1.3760  1.9652  0.5814
  153SAPE    HB16938   3.872   2.835   6.540  0.7859  0.8133  0.5669
  153SAPE    C216939   3.733   2.910   6.698  0.7570 -0.9716  0.2238
  153SAPE    HS16940   3.668   2.983   6.646  0.2320 -1.0388  0.7642
  153SAPE   O2116941   3.838   2.967   6.774  0.0910  0.6290  0.0889
  153SAPE   C2116942   3.903   3.063   6.700 -0.7070 -0.2125  0.0591
  153SAPE   O2216943   3.874   3.101   6.587  0.5492  0.5166 -0.5250
  153SAPE   C2216944   4.015   3.119   6.787 -0.1852 -0.5989 -0.1760
  153SAPE   H2R16945   4.038   3.049   6.870  1.5256  0.5926  0.4174
  153SAPE   H2S16946   4.106   3.120   6.724  1.2826  1.3797  1.8232
  153SAPE    C316947   3.620   2.848   6.799 -0.5415  0.2051  0.4170
  153SAPE    HX16948   3.680   2.774   6.856  1.3053  1.5981  0.3666
  153SAPE    HY16949   3.551   2.792   6.731  1.7034  0.0276 -1.8873
  153SAPE   O3116950   3.558   2.939   6.880  0.2009  0.8163 -0.3039
  153SAPE   C3116951   3.473   3.030   6.826  0.7945 -0.2552 -0.0216
  153SAPE   O3216952   3.456   3.047   6.708  0.5553 -0.5656  0.3956
  153SAPE   C3216953   3.392   3.094   6.941  0.7214  0.2408  0.4553
  153SAPE   H2X16954   3.413   3.044   7.038 -2.3857  1.9943  2.1864
  153SAPE   H2Y16955   3.284   3.079   6.921  0.9695  1.3421 -2.2309
  153SAPE   C2316956   4.002   3.263   6.848  0.2191  0.1648  0.3349
  153SAPE   H3R16957   3.968   3.329   6.766  0.8409  3.6896  2.6762
  153SAPE   H3S16958   4.100   3.304   6.881  0.3562  1.7683 -1.8987
  153SAPE   C2416959   3.899   3.254   6.969  0.1452 -0.8164 -0.5288
  153SAPE   H4R16960   3.911   3.162   7.029  0.1866 -0.1609  0.5050
  153SAPE   H4S16961   3.799   3.241   6.923  0.1190  0.3758 -0.8490
  153SAPE   C2516962   3.883   3.378   7.056 -0.2639  0.0780 -0.8437
  153SAPE   H5R16963   3.843   3.468   7.007 -2.2813  0.0812  0.6586
  153SAPE   C2616964   3.918   3.373   7.191  0.0661 -0.4185  0.0713
  153SAPE   H6R16965   3.888   3.464   7.246 -2.2138 -0.9187 -0.2291
  153SAPE   C2716966   3.969   3.258   7.278 -0.5480 -0.2259  0.3725
  153SAPE   H7R16967   4.045   3.292   7.352  0.4661 -1.4402 -0.0598
  153SAPE   H7S16968   4.035   3.189   7.221 -0.3959  0.7451 -0.6791
  153SAPE   C2816969   3.872   3.169   7.344 -0.3641 -0.5900 -0.8095
  153SAPE   H8R16970   3.795   3.106   7.297 -1.3187 -2.6689  3.0866
  153SAPE   C2916971   3.854   3.158   7.477  0.5880  0.9524  0.3777
  153SAPE   H9R16972   3.781   3.088   7.520  3.4151 -2.2646  0.3168
  153SAPE  C21016973   3.927   3.237   7.585 -0.0716  0.3598 -0.3319
  153SAPE  H10R16974   3.856   3.321   7.605 -2.9635 -1.8524 -0.6658
  153SAPE  H10S16975   4.009   3.293   7.536 -0.2587 -0.5998 -1.7776
  153SAPE  C21116976   3.979   3.155   7.696 -0.7531  0.3097 -0.6742
  153SAPE  H11R16977   4.046   3.076   7.659  0.6853  1.6676 -1.1022
  153SAPE  C21216978   3.957   3.168   7.828  0.0447  0.7549  0.5817
  153SAPE  H12R16979   4.005   3.098   7.898 -1.0080  0.5811  1.1483
  153SAPE  C21316980   3.882   3.285   7.891 -0.4410 -0.0667  0.5659
  153SAPE  H13R16981   3.838   3.340   7.805 -3.5792 -0.8785  1.5133
  153SAPE  H13S16982   3.956   3.348   7.943 -0.9562  0.6762  0.4253
  153SAPE  C21416983   3.765   3.234   7.979 -0.4939 -0.9894 -0.1351
  153SAPE  H14R16984   3.678   3.196   7.922 -0.3558 -1.1200 -0.2582
  153SAPE  C21516985   3.765   3.209   8.110  0.2908  0.3591  0.2314
  153SAPE  H15R16986   3.672   3.166   8.151  0.4358 -0.3603 -0.1662
  153SAPE  C21616987   3.877   3.238   8.201  0.4724  0.1299  0.6666
  153SAPE  H16R16988   3.978   3.242   8.155  0.4311 -0.1993  0.5468
  153SAPE  H16S16989   3.881   3.161   8.280 -2.0980  1.8227  2.6214
  153SAPE  C21716990   3.845   3.368   8.274 -0.3500  0.1243  0.6426
  153SAPE  H17R16991   3.912   3.378   8.362 -0.2814  1.0687  0.4880
  153SAPE  H17S16992   3.743   3.354   8.316 -0.3745  2.2941  1.3999
  153SAPE  C21816993   3.856   3.495   8.186  0.4287 -0.3765 -0.7035
  153SAPE  H18R16994   3.770   3.496   8.115 -0.1396  1.5279 -0.0625
  153SAPE  H18S16995   3.954   3.507   8.136  0.2131  0.9288 -0.8570
  153SAPE  C21916996   3.832   3.626   8.278 -0.1947  0.4704  0.8201
  153SAPE  H19R16997   3.905   3.618   8.362 -0.3727  1.8883  1.1433
  153SAPE  H19S16998   3.731   3.624   8.324 -0.4274  3.5567  0.6471
  153SAPE  C22016999   3.845   3.749   8.192 -1.0123 -0.6169 -0.1188
  153SAPE  H20R17000   3.783   3.835   8.225 -0.6095  0.2512 -1.5362
  153SAPE  H20S17001   3.822   3.734   8.084  1.1000 -3.6955 -0.2681
  153SAPE  H20T17002   3.952   3.778   8.198 -1.3404  0.7621 -0.4527
  153SAPE   C3317003   3.429   3.243   6.952 -0.3635  0.3873 -0.0139
  153SAPE   H3X17004   3.411   3.286   6.851 -0.0022 -0.4337 -0.4433
  153SAPE   H3Y17005   3.537   3.257   6.973 -0.8613  1.3166  2.2078
  153SAPE   C3417006   3.341   3.308   7.059 -0.3304 -0.0427 -0.1787
  153SAPE   H4X17007   3.236   3.285   7.033 -1.0869  2.2519  0.6042
  153SAPE   H4Y17008   3.356   3.419   7.057 -2.7825  0.3592  0.5506
  153SAPE   C3517009   3.381   3.250   7.200  0.1762 -0.4052  0.0498
  153SAPE   H5X17010   3.491   3.261   7.214 -0.0969  3.4022  0.2522
  153SAPE   H5Y17011   3.351   3.143   7.193  0.4020 -0.3935 -1.4128
  153SAPE   C3617012   3.307   3.323   7.318 -0.1025  0.0514 -0.1204
  153SAPE   H6X17013   3.203   3.284   7.317  1.2292 -3.8576 -0.4409
  153SAPE   H6Y17014   3.306   3.434   7.312 -1.0021  0.1097  0.7559
  153SAPE   C3717015   3.389   3.282   7.438  0.4977  0.8522 -0.2169
  153SAPE   H7X17016   3.485   3.330   7.411  1.3094  1.0798  2.7612
  153SAPE   H7Y17017   3.413   3.173   7.438 -1.4544  0.3847  0.2158
  153SAPE   C3817018   3.335   3.332   7.570  0.1687  0.2218  0.0048
  153SAPE   H8X17019   3.229   3.299   7.580  0.5457 -1.5362 -1.4811
  153SAPE   H8Y17020   3.324   3.442   7.554  1.6561  0.6461  1.6040
  153SAPE   C3917021   3.419   3.296   7.697  0.7741 -0.6177  0.3339
  153SAPE   H9X17022   3.521   3.335   7.678  0.9280 -1.9355 -1.8855
  153SAPE   H9Y17023   3.408   3.188   7.721  0.6378 -0.2756  1.9641
  153SAPE  C31017024   3.350   3.372   7.808 -0.1083 -0.2945  0.0042
  153SAPE  H10X17025   3.256   3.322   7.840  0.9589 -3.5848 -1.5629
  153SAPE  H10Y17026   3.336   3.478   7.775  1.2500  0.2846  1.2184
  153SAPE  C31117027   3.436   3.381   7.935  0.3987 -0.1723 -0.1936
  153SAPE  H11X17028   3.539   3.419   7.915 -0.5181  3.3121  1.0610
  153SAPE  H11Y17029   3.442   3.278   7.978  0.3612 -0.6965 -1.4211
  153SAPE  C31217030   3.367   3.471   8.031 -0.1868 -0.2982  0.1372
  153SAPE  H12X17031   3.262   3.447   8.057 -0.6818 -0.5794 -1.9570
  153SAPE  H12Y17032   3.354   3.572   7.986  0.4012  0.1240  0.8789
  153SAPE  C31317033   3.449   3.487   8.161 -0.0123  0.8121  1.0542
  153SAPE  H13X17034   3.535   3.554   8.143 -0.8452  1.6223 -0.0067
  153SAPE  H13Y17035   3.478   3.386   8.197 -1.7666 -0.4698 -0.9385
  153SAPE  C31417036   3.374   3.553   8.277  0.2672  0.0827  0.0446
  153SAPE  H14X17037   3.278   3.500   8.293  0.9951 -0.8704  1.4080
  153SAPE  H14Y17038   3.342   3.655   8.245  2.0228  0.0314 -2.0839
  153SAPE  C31517039   3.458   3.545   8.407  0.3435  0.5572  0.2719
  153SAPE  H15X17040   3.552   3.488   8.390  0.5327  1.0657 -0.4553
  153SAPE  H15Y17041   3.406   3.473   8.473 -2.1746  1.8027 -0.2483
  153SAPE  C31617042   3.494   3.678   8.475  0.1716 -0.0382 -0.8668
  153SAPE  H16X17043   3.570   3.715   8.402 -1.2939  0.4465 -2.2019
  153SAPE  H16Y17044   3.546   3.667   8.573 -2.3188  2.1953  0.8475
  153SAPE  C31717045   3.383   3.781   8.482 -0.4241  0.0890  0.0046
  153SAPE  H17X17046   3.288   3.738   8.518 -0.8319 -0.3303 -1.5091
  153SAPE  H17Y17047   3.357   3.806   8.377 -0.7391  0.6592  0.2116
  153SAPE  C31817048   3.427   3.907   8.559  0.8129  0.7619  0.1134
  153SAPE  H18X17049   3.365   3.993   8.528 -1.0410 -0.6739 -0.3886
  153SAPE  H18Y17050   3.532   3.938   8.542  1.6847 -0.1015  3.2744
  153SAPE  H18Z17051   3.420   3.885   8.667  1.1928  2.3480  0.4747
  154SAPE     N17052   1.044   2.052   5.945 -0.6621  0.1970 -0.3891
  154SAPE   HN117053   1.125   2.088   5.999 -0.1901 -2.1586  0.5983
  154SAPE   HN217054   1.068   1.953   5.926  0.4906  0.5796 -1.0092
  154SAPE   HN317055   1.033   2.101   5.854  0.9684  1.7770  0.2062
  154SAPE   C1217056   0.916   2.053   6.029  0.5350  0.3589 -0.3171
  154SAPE  H12A17057   0.826   2.012   5.978 -1.4285  3.2122  0.6134
  154SAPE  H12B17058   0.895   2.162   6.035  1.8639  0.5969  0.4929
  154SAPE   C1117059   0.932   1.992   6.167 -0.0449  0.2106  0.0355
  154SAPE  H11A17060   0.947   1.882   6.160 -1.0108 -0.0598  1.6239
  154SAPE  H11B17061   0.839   1.992   6.229 -0.5519  0.5526 -0.7115
  154SAPE     P17062   1.068   2.185   6.308 -0.0412  0.2384 -0.2883
  154SAPE   O1317063   1.208   2.208   6.273 -0.7342  0.3640  0.3359
  154SAPE   O1417064   0.968   2.280   6.258  0.1664  0.3465  0.3374
  154SAPE   O1217065   1.033   2.037   6.250 -0.2519  0.1666 -0.3008
  154SAPE   O1117066   1.049   2.162   6.469 -0.3567  0.2159 -1.0023
  154SAPE    C117067   1.152   2.203   6.559 -0.3499  0.0671  0.6814
  154SAPE    HA17068   1.253   2.179   6.520 -0.8633 -2.2317  0.5911
  154SAPE    HB17069   1.138   2.311   6.580  1.3991  0.2905  0.7965
  154SAPE    C217070   1.152   2.131   6.698 -0.6339  0.7325 -0.0549
  154SAPE    HS17071   1.056   2.158   6.747 -1.3557  0.0840 -1.0649
  154SAPE   O2117072   1.261   2.182   6.779 -0.3249 -0.4550 -0.3316
  154SAPE   C2117073   1.238   2.275   6.865 -0.4274  0.3526  0.3900
  154SAPE   O2217074   1.131   2.330   6.892  0.4573 -0.2345 -0.3131
  154SAPE   C2217075   1.363   2.324   6.927 -0.1665 -0.4435  0.6327
  154SAPE   H2R17076   1.323   2.417   6.973 -1.0215 -0.5922  0.2081
  154SAPE   H2S17077   1.391   2.256   7.011 -0.6430 -1.0872  0.2790
  154SAPE    C317078   1.163   1.975   6.692  0.2289 -0.4490  0.0193
  154SAPE    HX17079   1.092   1.945   6.613  0.7725 -2.0546  0.0858
  154SAPE    HY17080   1.123   1.924   6.782 -2.9106  1.3066 -0.2562
  154SAPE   O3117081   1.290   1.926   6.654  0.3761 -0.0059 -0.1410
  154SAPE   C3117082   1.371   1.919   6.761  0.0020 -0.1570 -0.1945
  154SAPE   O3217083   1.341   1.931   6.875 -0.0629  0.8499 -0.6830
  154SAPE   C3217084   1.511   1.884   6.706 -0.2372 -0.0914 -0.0679
  154SAPE   H2X17085   1.553   1.971   6.651 -0.0809  0.4474  0.8737
  154SAPE   H2Y17086   1.492   1.790   6.651 -3.5841  0.6898 -0.4577
  154SAPE   C2317087   1.473   2.351   6.830  0.1535  0.2109 -0.0615
  154SAPE   H3R17088   1.431   2.411   6.746  0.5685  1.5992  0.6864
  154SAPE   H3S17089   1.526   2.265   6.785 -2.1115 -0.2921 -1.9924
  154SAPE   C2417090   1.573   2.445   6.889  0.3199  0.1860  0.1223
  154SAPE   H4R17091   1.532   2.544   6.920  0.7035  0.7196 -1.0115
  154SAPE   H4S17092   1.648   2.475   6.813 -0.2729  2.1041  0.2438
  154SAPE   C2517093   1.649   2.387   7.008 -0.3145  0.3457 -0.2229
  154SAPE   H5R17094   1.717   2.305   6.982  2.7070  2.8787 -0.8982
  154SAPE   C2617095   1.643   2.422   7.137 -0.9430 -0.1019 -0.3959
  154SAPE   H6R17096   1.715   2.381   7.209 -0.2355  0.2005 -0.9274
  154SAPE   C2717097   1.557   2.528   7.199 -0.1980  0.1683  0.0490
  154SAPE   H7R17098   1.527   2.507   7.304  1.0242 -1.1468  0.1774
  154SAPE   H7S17099   1.463   2.521   7.141  0.9767  1.4738 -2.1377
  154SAPE   C2817100   1.603   2.671   7.174  0.0704  0.5506  0.0990
  154SAPE   H8R17101   1.627   2.690   7.069  1.0177 -1.0551 -0.0087
  154SAPE   C2917102   1.620   2.767   7.268 -1.0209  0.1805  0.1118
  154SAPE   H9R17103   1.645   2.867   7.229 -1.0404  0.0341 -0.2765
  154SAPE  C21017104   1.588   2.746   7.415  0.2983 -0.5902 -0.2491
  154SAPE  H10R17105   1.486   2.701   7.415 -1.3210  2.7463  1.2235
  154SAPE  H10S17106   1.561   2.838   7.471  0.9108 -0.7217  0.2651
  154SAPE  C21117107   1.688   2.675   7.495 -0.2606  0.5013  0.5455
  154SAPE  H11R17108   1.767   2.623   7.438 -0.4895 -0.3693  0.9937
  154SAPE  C21217109   1.693   2.655   7.629 -0.5529 -1.0090 -0.3253
  154SAPE  H12R17110   1.782   2.603   7.669  1.1933  2.0481  0.1160
  154SAPE  C21317111   1.597   2.724   7.725 -0.8234  0.1533 -0.0721
  154SAPE  H13R17112   1.589   2.828   7.688  1.8318  0.7222  0.7468
  154SAPE  H13S17113   1.650   2.726   7.823  0.7425 -2.1439 -0.7717
  154SAPE  C21417114   1.460   2.655   7.739  0.3085  0.1228 -0.4657
  154SAPE  H14R17115   1.426   2.596   7.652  1.2756  1.8929 -2.1178
  154SAPE  C21517116   1.389   2.664   7.857 -0.6077 -0.7772 -0.0453
  154SAPE  H15R17117   1.288   2.620   7.852 -0.7429 -0.4882  0.1094
  154SAPE  C21617118   1.425   2.740   7.978 -0.1597 -0.8575 -0.5543
  154SAPE  H16R17119   1.416   2.849   7.957 -0.2553 -1.1115 -1.9243
  154SAPE  H16S17120   1.533   2.726   7.999 -0.2238 -0.1978  0.2617
  154SAPE  C21717121   1.345   2.701   8.106 -0.4463 -0.4773 -0.0123
  154SAPE  H17R17122   1.237   2.724   8.090 -0.6430 -1.4590 -0.2082
  154SAPE  H17S17123   1.371   2.760   8.196 -1.2377 -0.6289  0.3239
  154SAPE  C21817124   1.353   2.556   8.161 -0.4743  0.0974 -0.3214
  154SAPE  H18R17125   1.310   2.473   8.101  0.1114 -1.0464  0.7850
  154SAPE  H18S17126   1.281   2.553   8.245  0.4529 -0.4466  0.4840
  154SAPE  C21917127   1.499   2.506   8.192  0.0963  0.1494 -0.1321
  154SAPE  H19R17128   1.548   2.482   8.095  0.1255  0.5794 -0.2227
  154SAPE  H19S17129   1.493   2.414   8.255  1.9504  0.0842 -0.0025
  154SAPE  C22017130   1.589   2.605   8.274 -0.4079  0.0132 -0.7823
  154SAPE  H20R17131   1.694   2.574   8.296 -0.9044 -2.2324 -1.2870
  154SAPE  H20S17132   1.548   2.637   8.371  0.5655 -0.8183 -0.0691
  154SAPE  H20T17133   1.590   2.700   8.217  0.9755 -0.2697 -1.2781
  154SAPE   C3317134   1.608   1.850   6.821  0.0271  0.7017 -0.3582
  154SAPE   H3X17135   1.690   1.782   6.791 -0.0528 -0.6826  2.2693
  154SAPE   H3Y17136   1.549   1.806   6.904  0.3744  2.7838  1.0825
  154SAPE   C3417137   1.670   1.978   6.883 -0.1827  1.3007  1.1247
  154SAPE   H4X17138   1.595   2.051   6.919  0.7108  2.7119  0.2010
  154SAPE   H4Y17139   1.724   2.029   6.801 -1.6012  0.9856 -0.0284
  154SAPE   C3517140   1.779   1.953   6.995  0.3633 -0.6134  0.0668
  154SAPE   H5X17141   1.838   2.047   7.010  0.7841 -0.8882  0.1686
  154SAPE   H5Y17142   1.859   1.887   6.954 -0.4459 -2.2325  1.0056
  154SAPE   C3617143   1.719   1.912   7.133 -0.5996  0.4901  0.1678
  154SAPE   H6X17144   1.764   1.827   7.189  1.0133 -1.7057 -3.9613
  154SAPE   H6Y17145   1.629   1.869   7.084 -0.0318  0.8575 -1.2700
  154SAPE   C3717146   1.692   2.023   7.230 -0.1340  0.0676 -0.2275
  154SAPE   H7X17147   1.664   2.111   7.167 -0.7946  0.6405  0.8283
  154SAPE   H7Y17148   1.778   2.049   7.296  0.3271  1.8824 -1.4500
  154SAPE   C3817149   1.570   2.011   7.328 -0.4377 -0.3461 -0.3499
  154SAPE   H8X17150   1.479   1.994   7.268  0.5651 -0.6182 -1.8346
  154SAPE   H8Y17151   1.551   2.101   7.390 -0.7722 -1.6210  1.4852
  154SAPE   C3917152   1.597   1.894   7.425  0.1547  0.0945  0.1726
  154SAPE   H9X17153   1.686   1.917   7.488 -0.4298  0.0893  1.0128
  154SAPE   H9Y17154   1.614   1.799   7.371 -1.3092 -1.2601  1.9887
  154SAPE  C31017155   1.485   1.864   7.528 -0.2298 -0.0759  0.2630
  154SAPE  H10X17156   1.391   1.891   7.476  1.0247  1.6059 -1.2680
  154SAPE  H10Y17157   1.485   1.930   7.617 -0.8094 -0.6188  0.6760
  154SAPE  C31117158   1.476   1.711   7.554  0.5077 -0.0483 -0.4790
  154SAPE  H11X17159   1.464   1.653   7.460  0.0375 -0.2365 -0.3031
  154SAPE  H11Y17160   1.383   1.694   7.612 -0.0641 -3.6929 -2.2051
  154SAPE  C31217161   1.585   1.655   7.647 -0.0012 -0.6581  0.2918
  154SAPE  H12X17162   1.682   1.690   7.605  1.0364 -1.2844  2.0603
  154SAPE  H12Y17163   1.597   1.545   7.638  1.2592 -0.4526 -1.0413
  154SAPE  C31317164   1.589   1.705   7.789 -0.3695  0.4086  0.4712
  154SAPE  H13X17165   1.585   1.816   7.795 -1.2221  0.3366  1.6303
  154SAPE  H13Y17166   1.680   1.660   7.834 -0.5771 -1.6495 -1.0293
  154SAPE  C31417167   1.482   1.634   7.877  0.0497 -0.7523  0.2824
  154SAPE  H14X17168   1.467   1.525   7.856 -0.1359 -0.5751 -0.5541
  154SAPE  H14Y17169   1.387   1.685   7.851 -0.5744 -2.1153 -0.2263
  154SAPE  C31517170   1.503   1.661   8.030  0.1479 -0.4410 -0.1075
  154SAPE  H15X17171   1.455   1.760   8.048 -1.5667 -1.3633  0.6202
  154SAPE  H15Y17172   1.612   1.656   8.051 -0.0194 -0.9727  0.6554
  154SAPE  C31617173   1.467   1.549   8.132 -0.0253 -0.6941  0.0619
  154SAPE  H16X17174   1.363   1.517   8.106 -0.4423 -0.7330  1.6631
  154SAPE  H16Y17175   1.480   1.587   8.235  0.4517  1.8192 -0.8466
  154SAPE  C31717176   1.549   1.425   8.112 -0.7002 -0.8759 -0.7582
  154SAPE  H17X17177   1.657   1.439   8.133 -0.7205 -1.0737 -0.5059
  154SAPE  H17Y17178   1.549   1.380   8.010  2.0485 -0.1623 -1.1558
  154SAPE  C31817179   1.503   1.315   8.208  0.1530 -0.4796  0.2054
  154SAPE  H18X17180   1.392   1.311   8.195  0.0140  1.1403  0.7260
  154SAPE  H18Y17181   1.541   1.341   8.309  1.0870  2.2638 -0.7704
  154SAPE  H18Z17182   1.538   1.215   8.175  2.1244  1.3778 -3.9849
  155SAPE     N17183   1.815   0.879   6.493  0.8604  0.1782 -0.4888
  155SAPE   HN117184   1.859   0.844   6.406  2.5095 -0.9136  0.7229
  155SAPE   HN217185   1.889   0.886   6.566  0.0653 -3.9875  0.9514
  155SAPE   HN317186   1.738   0.813   6.518  0.3236  0.6635 -0.8361
  155SAPE   C1217187   1.763   1.015   6.472 -0.2195  0.3086  0.3645
  155SAPE  H12A17188   1.688   0.999   6.391  1.1331 -1.7799 -0.5870
  155SAPE  H12B17189   1.845   1.079   6.434 -0.3298  0.6334  0.6769
  155SAPE   C1117190   1.695   1.067   6.602 -0.3681  0.3587  1.0096
  155SAPE  H11A17191   1.644   1.161   6.570 -0.3713 -0.4722 -1.7238
  155SAPE  H11B17192   1.771   1.106   6.673  0.3754  1.5847 -0.3819
  155SAPE     P17193   1.463   0.947   6.609 -0.3537 -0.0266  0.1609
  155SAPE   O1317194   1.451   0.952   6.462 -0.0697  0.1212  0.6020
  155SAPE   O1417195   1.407   0.831   6.673  0.2048 -0.2184  0.2975
  155SAPE   O1217196   1.608   0.969   6.665 -0.2509  0.4174 -0.1931
  155SAPE   O1117197   1.379   1.070   6.656 -0.1869 -0.1741  0.0776
  155SAPE    C117198   1.385   1.116   6.797  0.3130  0.0606  0.4312
  155SAPE    HA17199   1.282   1.104   6.837 -0.2287 -1.2565 -1.2216
  155SAPE    HB17200   1.443   1.059   6.873 -0.0827 -0.2285  0.5160
  155SAPE    C217201   1.427   1.268   6.811 -0.1845  0.3361  0.9501
  155SAPE    HS17202   1.401   1.317   6.714  0.2826 -1.1863  0.0158
  155SAPE   O2117203   1.570   1.276   6.839 -0.1053 -0.2848  0.3069
  155SAPE   C2117204   1.619   1.400   6.848 -0.0035 -0.8909  1.1622
  155SAPE   O2217205   1.563   1.499   6.796  0.1635 -0.0156 -0.2132
  155SAPE   C2217206   1.770   1.390   6.887 -0.4290 -0.3133  0.7568
  155SAPE   H2R17207   1.790   1.283   6.910 -1.2551 -0.9744 -1.3737
  155SAPE   H2S17208   1.832   1.431   6.805  0.1007 -1.2871  0.6460
  155SAPE    C317209   1.347   1.337   6.924  0.2550 -0.3987  0.4677
  155SAPE    HX17210   1.239   1.323   6.903  0.6229 -2.1401 -0.4253
  155SAPE    HY17211   1.353   1.448   6.919  0.2597 -0.3017  2.2325
  155SAPE   O3117212   1.375   1.283   7.058  0.1708 -0.0791  0.5579
  155SAPE   C3117213   1.289   1.323   7.156  0.3391 -0.4283  0.5261
  155SAPE   O3217214   1.178   1.376   7.136 -0.4777  0.3318 -0.1221
  155SAPE   C3217215   1.353   1.283   7.292  0.0041  0.0878  0.5544
  155SAPE   H2X17216   1.462   1.287   7.273  0.4929 -1.9642  2.5370
  155SAPE   H2Y17217   1.328   1.177   7.310  0.0208 -0.1842 -0.8758
  155SAPE   C2317218   1.805   1.470   7.011  0.5750 -0.1445 -0.5972
  155SAPE   H3R17219   1.799   1.578   6.989  0.3925 -0.3040 -1.3402
  155SAPE   H3S17220   1.908   1.448   7.045 -0.0819 -0.0453  1.6420
  155SAPE   C2417221   1.709   1.427   7.126  0.0895 -0.0229 -0.2534
  155SAPE   H4R17222   1.719   1.321   7.160  1.0979 -0.3264 -1.4267
  155SAPE   H4S17223   1.606   1.429   7.084  0.8116 -0.6838 -2.1652
  155SAPE   C2517224   1.714   1.521   7.240 -0.3785  0.4789 -0.0272
  155SAPE   H5R17225   1.676   1.621   7.213 -0.8242 -0.2686 -2.4508
  155SAPE   C2617226   1.753   1.499   7.370 -0.0969  0.2477 -0.1087
  155SAPE   H6R17227   1.760   1.582   7.442  0.5074  0.3513 -0.2773
  155SAPE   C2717228   1.803   1.368   7.430 -0.1710 -0.9504 -0.1014
  155SAPE   H7R17229   1.747   1.283   7.386  4.4200 -3.4829 -1.7302
  155SAPE   H7S17230   1.778   1.374   7.538  0.6612  1.3743  0.0316
  155SAPE   C2817231   1.953   1.353   7.415 -0.2065 -0.5187  0.3751
  155SAPE   H8R17232   2.011   1.430   7.364  0.3189 -0.3089  1.2795
  155SAPE   C2917233   2.019   1.263   7.486  0.1690  0.0156 -0.0123
  155SAPE   H9R17234   2.128   1.250   7.475  0.2722  0.9326 -0.1554
  155SAPE  C21017235   1.944   1.166   7.584 -1.1789  0.4852 -0.0174
  155SAPE  H10R17236   1.861   1.115   7.531  1.5618 -2.2022 -2.0809
  155SAPE  H10S17237   1.914   1.224   7.674 -0.0745  0.8221  0.1541
  155SAPE  C21117238   2.039   1.054   7.628 -0.7339 -0.6209  0.7452
  155SAPE  H11R17239   2.042   0.964   7.566 -1.9633 -1.1935  1.4767
  155SAPE  C21217240   2.138   1.066   7.723 -0.7285 -0.0101 -0.4091
  155SAPE  H12R17241   2.207   0.985   7.749  1.0503  1.4873 -0.2686
  155SAPE  C21317242   2.169   1.188   7.808 -0.4122 -0.5549  0.5485
  155SAPE  H13R17243   2.120   1.276   7.761  3.1473  1.1817 -0.2368
  155SAPE  H13S17244   2.276   1.216   7.801  0.1708 -1.7164  3.1914
  155SAPE  C21417245   2.123   1.175   7.950 -0.1963  0.2040 -0.0176
  155SAPE  H14R17246   2.146   1.072   7.983 -1.7142 -0.0751  0.2284
  155SAPE  C21517247   2.032   1.248   8.023 -0.7617  0.4783  0.7335
  155SAPE  H15R17248   2.005   1.231   8.128 -0.3607 -2.6665  0.4223
  155SAPE  C21617249   1.946   1.363   7.972 -0.1377 -0.6407  0.8409
  155SAPE  H16R17250   1.849   1.328   7.928 -0.1270  0.7341 -0.3609
  155SAPE  H16S17251   1.989   1.419   7.886 -0.6878  0.7542  1.4507
  155SAPE  C21717252   1.923   1.482   8.067  0.0617  0.3485 -0.2521
  155SAPE  H17R17253   1.869   1.459   8.162  0.5143 -0.0814 -0.0943
  155SAPE  H17S17254   1.852   1.548   8.012 -0.7632 -0.6269 -0.3992
  155SAPE  C21817255   2.047   1.561   8.113  0.0295 -0.1224  0.2830
  155SAPE  H18R17256   2.102   1.594   8.022 -0.0057 -0.7304  0.0393
  155SAPE  H18S17257   2.121   1.497   8.166  2.4449  0.2326 -2.3989
  155SAPE  C21917258   2.023   1.682   8.209 -0.2890 -0.2734 -0.6143
  155SAPE  H19R17259   1.940   1.738   8.160 -1.8952 -1.5333  0.5513
  155SAPE  H19S17260   2.115   1.744   8.211  0.9269 -2.0376  0.5015
  155SAPE  C22017261   1.986   1.635   8.349  1.1707  0.9667 -0.3877
  155SAPE  H20R17262   1.890   1.580   8.344  1.4886  0.4901 -1.7853
  155SAPE  H20S17263   1.971   1.723   8.414  2.1873  0.6343  0.3237
  155SAPE  H20T17264   2.066   1.570   8.392  1.3913  0.9964 -0.7478
  155SAPE   C3317265   1.299   1.366   7.402  0.2027 -0.6296 -0.0283
  155SAPE   H3X17266   1.199   1.321   7.423 -0.5741  1.4849  1.1069
  155SAPE   H3Y17267   1.282   1.469   7.366 -3.9692 -0.5663  1.4869
  155SAPE   C3417268   1.383   1.369   7.526 -0.2211 -0.2724 -0.4094
  155SAPE   H4X17269   1.336   1.448   7.588  0.6080  0.4740 -0.7131
  155SAPE   H4Y17270   1.485   1.410   7.512  0.8883 -1.8666  2.1264
  155SAPE   C3517271   1.419   1.228   7.586 -0.1014  0.4171 -0.5274
  155SAPE   H5X17272   1.436   1.162   7.499  2.1599  2.9349 -2.1717
  155SAPE   H5Y17273   1.336   1.198   7.654 -0.4269 -1.2304 -1.6176
  155SAPE   C3617274   1.566   1.219   7.659  0.2549 -0.2839 -0.0757
  155SAPE   H6X17275   1.592   1.325   7.679 -0.3580 -0.2672  0.7095
  155SAPE   H6Y17276   1.638   1.177   7.587 -0.2994 -0.5525 -0.4823
  155SAPE   C3717277   1.566   1.147   7.801  0.3516 -0.7194  0.9070
  155SAPE   H7X17278   1.467   1.100   7.818 -0.4354 -0.8976 -3.2539
  155SAPE   H7Y17279   1.588   1.230   7.871  2.3285 -0.2323 -0.2214
  155SAPE   C3817280   1.675   1.050   7.815  0.4466 -0.4367  0.3413
  155SAPE   H8X17281   1.762   1.109   7.779  0.2145  0.0393  0.5445
  155SAPE   H8Y17282   1.647   0.964   7.752  1.0097 -1.4910  1.4809
  155SAPE   C3917283   1.697   0.998   7.959  0.4654 -0.5249 -0.6100
  155SAPE   H9X17284   1.601   0.950   7.986 -1.3998  2.0975 -2.1067
  155SAPE   H9Y17285   1.716   1.084   8.027 -1.9591 -0.9349  0.6842
  155SAPE  C31017286   1.810   0.886   7.979 -0.2781  0.4340  0.2036
  155SAPE  H10X17287   1.890   0.907   7.904 -0.4442  1.7163  0.3531
  155SAPE  H10Y17288   1.771   0.783   7.969 -0.9583  0.7214 -0.1445
  155SAPE  C31117289   1.875   0.897   8.116 -0.1850 -0.0789 -0.1627
  155SAPE  H11X17290   1.807   0.876   8.202  1.7351 -0.3493  1.3696
  155SAPE  H11Y17291   1.900   1.004   8.131  0.0759 -0.0997 -0.4468
  155SAPE  C31217292   2.011   0.821   8.123 -0.0760 -0.2671  0.0081
  155SAPE  H12X17293   2.068   0.859   8.035  1.2179 -0.2054  0.8402
  155SAPE  H12Y17294   1.978   0.717   8.102 -1.2314  0.1911 -0.4927
  155SAPE  C31317295   2.087   0.835   8.255  0.0555 -0.2559  0.7396
  155SAPE  H13X17296   2.026   0.794   8.339 -0.0129  0.2496  0.9404
  155SAPE  H13Y17297   2.100   0.940   8.288  2.6182 -0.3735  0.2882
  155SAPE  C31417298   2.222   0.769   8.264 -0.0387  0.2639 -0.2400
  155SAPE  H14X17299   2.286   0.823   8.191 -1.8558  0.8468 -1.4795
  155SAPE  H14Y17300   2.210   0.661   8.240 -0.7764  0.8002 -2.5314
  155SAPE  C31517301   2.282   0.782   8.396 -1.0050  0.4910  0.8952
  155SAPE  H15X17302   2.212   0.738   8.470  1.2154 -3.3925  0.9416
  155SAPE  H15Y17303   2.305   0.888   8.418 -1.2357  1.2664 -2.1416
  155SAPE  C31617304   2.409   0.698   8.396  0.3394 -0.1391 -0.6226
  155SAPE  H16X17305   2.471   0.724   8.308 -0.4849 -1.4230 -1.6150
  155SAPE  H16Y17306   2.369   0.595   8.388 -1.9242  0.7968 -2.1351
  155SAPE  C31717307   2.496   0.711   8.524 -0.7221 -0.5422 -0.0197
  155SAPE  H17X17308   2.471   0.810   8.568 -1.0620 -0.9987  0.8315
  155SAPE  H17Y17309   2.600   0.700   8.488 -0.5596  0.1066  0.2382
  155SAPE  C31817310   2.465   0.599   8.617  0.4922 -0.3512  0.5148
  155SAPE  H18X17311   2.532   0.609   8.704  2.2104 -1.8702 -0.5642
  155SAPE  H18Y17312   2.483   0.502   8.565  0.2751  1.6523 -3.7665
  155SAPE  H18Z17313   2.361   0.611   8.656  0.4556 -0.0550  0.3340
  156SAPE     N17314   2.134   4.060   6.281  0.3341 -0.4424 -0.0341
  156SAPE   HN117315   2.052   4.024   6.333  0.8100  0.3809  1.3481
  156SAPE   HN217316   2.206   3.987   6.266  2.0146  1.0313  0.4277
  156SAPE   HN317317   2.187   4.125   6.343  1.9800 -2.4671  0.8092
  156SAPE   C1217318   2.092   4.120   6.154 -0.3669  0.1961  0.3982
  156SAPE  H12A17319   2.056   4.044   6.082  0.4637  0.9350 -0.8451
  156SAPE  H12B17320   2.185   4.165   6.113  0.5829  0.1449  2.4088
  156SAPE   C1117321   1.985   4.234   6.168  0.4051 -0.0366  0.0422
  156SAPE  H11A17322   1.949   4.257   6.065 -1.8557 -2.6706  0.1321
  156SAPE  H11B17323   2.030   4.332   6.196 -0.9361  0.8826 -0.8601
  156SAPE     P17324   1.754   4.125   6.207 -0.6224 -0.2170 -0.1695
  156SAPE   O1317325   1.674   4.203   6.112  0.0241  0.1584  0.3856
  156SAPE   O1417326   1.799   3.989   6.167 -0.3134  0.1079  0.3208
  156SAPE   O1217327   1.874   4.211   6.259 -0.4053 -0.0808 -0.3781
  156SAPE   O1117328   1.678   4.109   6.341  0.7215 -0.2197  0.2604
  156SAPE    C117329   1.710   4.160   6.465  0.2970 -0.2652  0.3132
  156SAPE    HA17330   1.813   4.131   6.495  1.4035  1.8512 -1.1759
  156SAPE    HB17331   1.703   4.270   6.461 -1.2261 -0.3244  0.8224
  156SAPE    C217332   1.606   4.105   6.570  0.5938 -0.3987 -0.1367
  156SAPE    HS17333   1.606   4.184   6.648 -3.3271  0.2520 -0.5628
  156SAPE   O2117334   1.651   3.979   6.614 -0.2801  0.3009  0.3180
  156SAPE   C2117335   1.717   3.975   6.724  0.4402  0.7800 -0.3584
  156SAPE   O2217336   1.742   4.065   6.803  0.3956 -0.7623  0.0770
  156SAPE   C2217337   1.761   3.829   6.742  0.4582  0.3961 -0.1454
  156SAPE   H2R17338   1.671   3.764   6.738 -0.3171  1.3650  0.7349
  156SAPE   H2S17339   1.829   3.807   6.658 -1.1470  0.4127 -1.5086
  156SAPE    C317340   1.465   4.104   6.515 -0.0861 -0.5533 -0.0386
  156SAPE    HX17341   1.456   4.005   6.465  0.0554  0.3070 -1.8437
  156SAPE    HY17342   1.457   4.182   6.437 -2.0400 -0.2135  0.4532
  156SAPE   O3117343   1.377   4.139   6.629 -0.0517 -0.0295  0.0184
  156SAPE   C3117344   1.246   4.122   6.599 -0.1578 -0.1693 -0.3755
  156SAPE   O3217345   1.202   4.109   6.485 -0.4186 -0.3110 -0.0726
  156SAPE   C3217346   1.167   4.109   6.732  0.0710  0.2483 -0.7138
  156SAPE   H2X17347   1.066   4.148   6.707 -0.5764 -0.6168  0.4204
  156SAPE   H2Y17348   1.219   4.170   6.809  4.0102 -0.9259 -2.2043
  156SAPE   C2317349   1.830   3.817   6.879 -0.2561 -0.0455 -0.4623
  156SAPE   H3R17350   1.798   3.894   6.953  2.4589  2.1689 -1.4333
  156SAPE   H3S17351   1.930   3.861   6.860 -0.5216  0.3415 -0.9996
  156SAPE   C2417352   1.845   3.680   6.941 -0.3716  0.7337  0.0975
  156SAPE   H4R17353   1.918   3.687   7.024 -0.8479  0.9221  0.5062
  156SAPE   H4S17354   1.881   3.610   6.862 -1.4329 -0.8078  0.9277
  156SAPE   C2517355   1.710   3.630   6.987  0.5920 -0.5393  0.0263
  156SAPE   H5R17356   1.648   3.578   6.912 -0.0150  1.7649 -1.1815
  156SAPE   C2617357   1.665   3.647   7.112  0.8782  0.3521 -0.0950
  156SAPE   H6R17358   1.564   3.609   7.137 -0.0159  1.2838 -2.0365
  156SAPE   C2717359   1.739   3.721   7.222  0.5478  0.7881 -0.6913
  156SAPE   H7R17360   1.669   3.763   7.297  2.3437  0.2857  1.3782
  156SAPE   H7S17361   1.797   3.810   7.190  2.3486 -0.2229 -0.3408
  156SAPE   C2817362   1.849   3.648   7.300  0.2819 -1.0043 -0.3820
  156SAPE   H8R17363   1.946   3.683   7.262 -1.0234  2.4950 -0.8485
  156SAPE   C2917364   1.817   3.580   7.409 -0.1030 -0.0428 -0.7961
  156SAPE   H9R17365   1.906   3.535   7.456  0.0976 -2.0572 -2.9046
  156SAPE  C21017366   1.686   3.552   7.484 -0.9227 -0.4126 -0.0571
  156SAPE  H10R17367   1.644   3.653   7.505 -1.6328 -0.9859  1.3982
  156SAPE  H10S17368   1.712   3.511   7.584  2.5255 -1.7389 -1.3314
  156SAPE  C21117369   1.568   3.478   7.413  0.1959  0.1025  0.0647
  156SAPE  H11R17370   1.505   3.539   7.347 -1.9046 -2.6299 -0.6491
  156SAPE  C21217371   1.536   3.347   7.419  0.1475 -0.4758 -0.7973
  156SAPE  H12R17372   1.466   3.324   7.336 -1.6060 -0.4397  0.6126
  156SAPE  C21317373   1.596   3.230   7.494  0.0624  0.8539 -0.3521
  156SAPE  H13R17374   1.702   3.251   7.518  0.1579 -0.5501  0.6221
  156SAPE  H13S17375   1.610   3.147   7.421  1.1585  1.4100 -0.8007
  156SAPE  C21417376   1.505   3.189   7.611 -0.2066 -0.0212  0.8503
  156SAPE  H14R17377   1.407   3.148   7.586 -0.1990  1.1474 -1.3569
  156SAPE  C21517378   1.538   3.221   7.738  0.2133 -0.1561  0.3757
  156SAPE  H15R17379   1.475   3.192   7.824 -0.5158  2.3010  0.7529
  156SAPE  C21617380   1.662   3.296   7.788  0.0322  0.2461  0.1077
  156SAPE  H16R17381   1.736   3.319   7.709 -0.9213  1.9075 -0.3291
  156SAPE  H16S17382   1.702   3.225   7.864 -1.6177  2.8784  3.7571
  156SAPE  C21717383   1.630   3.423   7.857  0.1286 -0.6146 -1.1711
  156SAPE  H17R17384   1.562   3.490   7.799  0.9054  0.4312 -0.9002
  156SAPE  H17S17385   1.724   3.479   7.874 -0.3834  1.1466 -3.6416
  156SAPE  C21817386   1.578   3.400   7.991 -0.5765  0.0741 -0.2118
  156SAPE  H18R17387   1.642   3.329   8.048 -2.1301  0.0657  1.6437
  156SAPE  H18S17388   1.470   3.375   7.991 -0.9105  1.1291  2.6564
  156SAPE  C21917389   1.578   3.526   8.087 -0.0626  0.8658 -0.8239
  156SAPE  H19R17390   1.518   3.606   8.038  0.5147  0.2108 -2.6757
  156SAPE  H19S17391   1.684   3.558   8.091  0.6161 -1.3770  1.2062
  156SAPE  C22017392   1.533   3.507   8.229  0.7711  0.5399  0.8818
  156SAPE  H20R17393   1.545   3.609   8.272 -1.6663  0.4769  1.8499
  156SAPE  H20S17394   1.571   3.424   8.292 -1.3666 -1.0116  0.2318
  156SAPE  H20T17395   1.424   3.489   8.229  0.3236  2.4299 -2.5147
  156SAPE   C3317396   1.141   3.961   6.776  1.2131 -0.3925  0.4557
  156SAPE   H3X17397   1.236   3.903   6.774  2.2499  1.2643 -0.4946
  156SAPE   H3Y17398   1.080   3.914   6.696 -2.3258 -0.3679  2.9617
  156SAPE   C3417399   1.062   3.962   6.906  0.9818 -0.9148  0.6489
  156SAPE   H4X17400   1.032   3.856   6.920  0.5748 -1.3188 -2.6629
  156SAPE   H4Y17401   0.960   4.005   6.899 -0.3004 -3.8340  0.2820
  156SAPE   C3517402   1.149   3.997   7.027  0.3795  0.5022 -0.0231
  156SAPE   H5X17403   1.177   4.104   7.031 -0.1242  0.6093  0.7969
  156SAPE   H5Y17404   1.249   3.950   7.026 -0.5587 -1.7901  2.5673
  156SAPE   C3617405   1.079   3.959   7.159  0.7472  0.2328 -0.2678
  156SAPE   H6X17406   1.053   3.851   7.163  0.2499  0.3327 -0.6826
  156SAPE   H6Y17407   0.980   4.008   7.172  0.9374  0.2625  1.2486
  156SAPE   C3717408   1.171   3.984   7.276 -0.2974  0.6446 -0.4419
  156SAPE   H7X17409   1.231   4.077   7.266 -0.3820  0.5306 -2.2935
  156SAPE   H7Y17410   1.243   3.901   7.262  0.8574  1.3185  1.1866
  156SAPE   C3817411   1.094   3.979   7.411  0.1473  0.2965  0.2248
  156SAPE   H8X17412   1.071   3.874   7.437  2.0618 -0.5098 -1.0986
  156SAPE   H8Y17413   0.999   4.036   7.398  2.1446  3.5447 -1.6126
  156SAPE   C3917414   1.172   4.038   7.530 -0.4270 -0.2074 -0.2057
  156SAPE   H9X17415   1.208   4.140   7.504  1.6060 -0.4714  1.2858
  156SAPE   H9Y17416   1.265   3.981   7.553 -0.8490 -0.9174 -0.2283
  156SAPE  C31017417   1.100   4.046   7.669 -0.1537 -0.0911  0.2023
  156SAPE  H10X17418   1.069   3.943   7.697 -3.4722 -0.0163 -2.5539
  156SAPE  H10Y17419   1.009   4.107   7.653  0.0379  0.0672 -0.3047
  156SAPE  C31117420   1.173   4.103   7.783 -0.6023  0.2368 -0.4858
  156SAPE  H11X17421   1.213   4.207   7.773 -1.1209  0.6678  1.4199
  156SAPE  H11Y17422   1.268   4.048   7.800  0.4575  2.6198  2.1851
  156SAPE  C31217423   1.087   4.099   7.914 -0.0213 -0.0141  0.2256
  156SAPE  H12X17424   1.046   3.996   7.917  1.1409 -0.5243 -0.5597
  156SAPE  H12Y17425   0.999   4.164   7.896  1.2004  1.4460 -0.7672
  156SAPE  C31317426   1.173   4.138   8.033 -0.2600  0.0456  0.2539
  156SAPE  H13X17427   1.178   4.249   8.036 -0.2956  0.0279  1.3599
  156SAPE  H13Y17428   1.277   4.105   8.012 -0.9454 -0.9513 -1.9114
  156SAPE  C31417429   1.131   4.091   8.166  0.5272 -0.0418 -0.2278
  156SAPE  H14X17430   1.092   3.987   8.167 -0.3989  0.2600  1.9803
  156SAPE  H14Y17431   1.044   4.154   8.197 -0.6963 -0.7827 -1.9539
  156SAPE  C31517432   1.236   4.096   8.273  0.8802  0.0859 -1.0395
  156SAPE  H15X17433   1.254   4.204   8.288  3.0043 -0.3939  0.3055
  156SAPE  H15Y17434   1.324   4.043   8.231  0.6270 -0.3106 -1.0815
  156SAPE  C31617435   1.194   4.026   8.409  0.0762 -0.1899  0.0773
  156SAPE  H16X17436   1.105   4.085   8.438  0.5565 -0.0933  1.4276
  156SAPE  H16Y17437   1.275   4.047   8.481  1.2126  0.7603 -1.4077
  156SAPE  C31717438   1.175   3.874   8.401 -0.5187 -0.1580 -0.3991
  156SAPE  H17X17439   1.081   3.848   8.347 -0.6645 -2.6292  0.9466
  156SAPE  H17Y17440   1.148   3.826   8.497  0.8853 -2.3701 -1.0462
  156SAPE  C31817441   1.304   3.796   8.348  0.2264 -0.0166  0.5373
  156SAPE  H18X17442   1.317   3.821   8.240  0.5808  1.1642  0.8341
  156SAPE  H18Y17443   1.289   3.687   8.360  2.0076 -0.7809 -2.9929
  156SAPE  H18Z17444   1.395   3.832   8.399  0.5525 -0.9725  0.6443
  157SAPE     N17445   6.477   5.736   6.225 -0.3455 -0.6222  0.5075
  157SAPE   HN117446   6.499   5.829   6.266  0.2695 -0.1664 -0.8201
  157SAPE   HN217447   6.414   5.687   6.292 -1.0722  1.7810  1.6912
  157SAPE   HN317448   6.571   5.692   6.221  0.8588  1.8053  0.4052
  157SAPE   C1217449   6.411   5.764   6.088  0.2380 -0.0617 -0.9072
  157SAPE  H12A17450   6.458   5.701   6.010  0.3311 -0.0627 -0.8506
  157SAPE  H12B17451   6.443   5.868   6.064  0.3296  0.3996  1.0457
  157SAPE   C1117452   6.253   5.748   6.085 -0.0106 -0.1241 -0.3196
  157SAPE  H11A17453   6.210   5.646   6.092 -1.3780  0.4501  0.0111
  157SAPE  H11B17454   6.210   5.793   5.993 -0.8185  0.6439  0.4047
  157SAPE     P17455   6.052   5.850   6.223  0.2704 -0.2546  0.0878
  157SAPE   O1317456   5.995   5.926   6.110  0.0731 -0.7948 -0.2028
  157SAPE   O1417457   5.990   5.714   6.247  0.4445  0.1338  0.0363
  157SAPE   O1217458   6.204   5.816   6.197 -0.3177  0.3863 -0.3896
  157SAPE   O1117459   6.033   5.934   6.348 -0.1914 -0.1016 -0.8374
  157SAPE    C117460   6.130   5.966   6.451  0.8471 -0.1525  0.3839
  157SAPE    HA17461   6.231   5.982   6.408  0.6521  0.3618  0.1079
  157SAPE    HB17462   6.098   6.046   6.521  1.5330 -1.1744  1.9099
  157SAPE    C217463   6.152   5.850   6.555 -0.2462 -0.4142 -0.0762
  157SAPE    HS17464   6.198   5.764   6.502  0.8851 -0.3325  0.7344
  157SAPE   O2117465   6.021   5.821   6.616 -0.5455 -0.6505 -0.0890
  157SAPE   C2117466   6.000   5.703   6.650 -0.0066 -0.0123 -1.2604
  157SAPE   O2217467   6.064   5.607   6.610  0.5325  0.4199 -0.3321
  157SAPE   C2217468   5.879   5.695   6.746 -0.4588  0.1264  0.1100
  157SAPE   H2R17469   5.848   5.795   6.783  0.3782  0.0726  0.9936
  157SAPE   H2S17470   5.798   5.657   6.680  0.4012 -0.5392 -0.5853
  157SAPE    C317471   6.263   5.890   6.659  0.1030 -0.1533  0.0835
  157SAPE    HX17472   6.209   5.955   6.731  1.4520 -0.7686  1.7111
  157SAPE    HY17473   6.348   5.945   6.613  0.8146 -0.4062  1.0656
  157SAPE   O3117474   6.314   5.771   6.726 -0.4835  0.0677 -0.0720
  157SAPE   C3117475   6.404   5.708   6.657  0.1556  0.1066  0.9848
  157SAPE   O3217476   6.450   5.753   6.555  0.4474 -0.1898  0.4158
  157SAPE   C3217477   6.421   5.564   6.706  0.2729 -0.5566 -0.1655
  157SAPE   H2X17478   6.462   5.502   6.624 -3.1898  0.0996 -2.6377
  157SAPE   H2Y17479   6.317   5.540   6.736  0.3767  0.5146  1.1275
  157SAPE   C2317480   5.902   5.598   6.866 -0.2343  0.0175  0.3738
  157SAPE   H3R17481   5.903   5.494   6.828 -0.2650 -0.3705  1.3994
  157SAPE   H3S17482   5.805   5.590   6.920 -1.3149  0.9823 -1.3400
  157SAPE   C2417483   6.021   5.636   6.948 -0.5370 -0.1361 -0.5965
  157SAPE   H4R17484   6.114   5.614   6.893 -0.3713 -0.9651 -0.0102
  157SAPE   H4S17485   6.024   5.561   7.031 -1.4078 -0.5643 -0.9376
  157SAPE   C2517486   6.021   5.777   7.012 -0.2856  0.6261  0.5634
  157SAPE   H5R17487   6.021   5.857   6.937 -0.0400  0.9582  0.9102
  157SAPE   C2617488   6.007   5.811   7.140  0.0116  0.6183 -0.4702
  157SAPE   H6R17489   5.994   5.917   7.166 -0.5005  0.6397 -0.8064
  157SAPE   C2717490   5.992   5.730   7.260  0.2371  0.1329  0.3254
  157SAPE   H7R17491   6.094   5.720   7.303 -0.7730 -1.1174  2.6056
  157SAPE   H7S17492   5.966   5.630   7.220  2.1737  1.2318 -4.3570
  157SAPE   C2817493   5.877   5.773   7.353 -0.4922 -0.0694  0.2192
  157SAPE   H8R17494   5.782   5.801   7.305  0.2525  1.4501 -0.4357
  157SAPE   C2917495   5.898   5.778   7.484 -0.7254 -0.8643 -0.8507
  157SAPE   H9R17496   5.811   5.814   7.541  0.5975  1.9108 -0.4037
  157SAPE  C21017497   6.015   5.744   7.573 -0.2973  0.2133 -0.3854
  157SAPE  H10R17498   6.073   5.838   7.569 -3.1521  2.0668 -1.5623
  157SAPE  H10S17499   6.083   5.660   7.544 -2.9914 -1.9437 -0.8834
  157SAPE  C21117500   5.987   5.740   7.726 -0.3564  0.1278  0.6670
  157SAPE  H11R17501   5.936   5.833   7.754  1.9857  0.9244  2.6313
  157SAPE  C21217502   6.026   5.646   7.817  0.1907 -0.6348 -0.2104
  157SAPE  H12R17503   5.985   5.659   7.919 -2.2637 -1.7133 -0.9833
  157SAPE  C21317504   6.112   5.529   7.798 -0.3523 -0.7537  0.1728
  157SAPE  H13R17505   6.200   5.545   7.864 -0.1191  1.6804 -0.6372
  157SAPE  H13S17506   6.163   5.528   7.699 -1.8094  2.1641 -0.7209
  157SAPE  C21417507   6.056   5.393   7.828  0.2939 -0.6486 -0.9937
  157SAPE  H14R17508   6.066   5.347   7.927  0.8707  0.0944 -0.6910
  157SAPE  C21517509   5.987   5.320   7.749  0.4130  0.4802  0.6528
  157SAPE  H15R17510   5.949   5.223   7.782  1.5854 -0.6685 -1.1916
  157SAPE  C21617511   5.950   5.356   7.603  0.4115 -0.2298 -0.0432
  157SAPE  H16R17512   5.954   5.465   7.582  2.8144 -0.4602 -1.0632
  157SAPE  H16S17513   5.847   5.321   7.578  0.6246 -0.4810 -0.5723
  157SAPE  C21717514   6.042   5.301   7.487 -0.2306  0.4197 -0.0930
  157SAPE  H17R17515   6.026   5.191   7.482 -0.0335  0.4211 -0.9008
  157SAPE  H17S17516   6.149   5.323   7.507 -0.4038  0.7465  0.4905
  157SAPE  C21817517   6.005   5.367   7.353 -0.4646 -0.5048  0.1426
  157SAPE  H18R17518   6.004   5.478   7.364 -0.3619 -0.3998 -0.8302
  157SAPE  H18S17519   5.900   5.334   7.336  0.1425 -1.5075 -1.9713
  157SAPE  C21917520   6.093   5.310   7.242  0.0658  0.0403  0.0626
  157SAPE  H19R17521   6.197   5.297   7.279 -0.2402  0.2620  1.0412
  157SAPE  H19S17522   6.088   5.388   7.164 -0.6519  0.3683  0.4256
  157SAPE  C22017523   6.044   5.175   7.190 -0.5627 -0.5504 -0.3363
  157SAPE  H20R17524   5.944   5.179   7.141 -0.7458  0.4473  0.0922
  157SAPE  H20S17525   6.036   5.097   7.269 -0.9469 -1.4810 -1.2634
  157SAPE  H20T17526   6.118   5.130   7.121  0.2681  2.1769 -1.3607
  157SAPE   C3317527   6.494   5.574   6.846  0.0046  0.3167  0.3113
  157SAPE   H3X17528   6.573   5.652   6.846 -2.2335  2.7712 -0.9822
  157SAPE   H3Y17529   6.546   5.476   6.851  1.0613  0.8548  0.2175
  157SAPE   C3417530   6.406   5.580   6.967  0.0084 -0.1536 -0.7008
  157SAPE   H4X17531   6.326   5.504   6.958  0.3420 -0.3461 -2.2593
  157SAPE   H4Y17532   6.358   5.680   6.957 -0.3366 -0.1371  0.8854
  157SAPE   C3517533   6.483   5.557   7.100  0.2521 -0.1599  0.4979
  157SAPE   H5X17534   6.560   5.636   7.111 -0.3599  0.5723 -0.3129
  157SAPE   H5Y17535   6.516   5.451   7.104  1.8802  0.2778 -0.6170
  157SAPE   C3617536   6.384   5.559   7.217 -0.2887  0.0216 -0.8909
  157SAPE   H6X17537   6.292   5.502   7.191 -0.7173  0.2996  0.0006
  157SAPE   H6Y17538   6.342   5.660   7.237  1.1306  0.3434  0.6594
  157SAPE   C3717539   6.453   5.507   7.346  0.6449 -0.3098 -0.1888
  157SAPE   H7X17540   6.560   5.536   7.338  0.5665 -0.1755 -0.8589
  157SAPE   H7Y17541   6.433   5.398   7.352 -2.3528  0.1193 -0.6661
  157SAPE   C3817542   6.385   5.574   7.468 -0.0844 -0.1762 -0.2356
  157SAPE   H8X17543   6.301   5.509   7.500  1.2988 -1.0316  1.9100
  157SAPE   H8Y17544   6.352   5.678   7.451  2.4149  0.5444 -1.1800
  157SAPE   C3917545   6.470   5.572   7.593  0.6371 -0.4848  0.3820
  157SAPE   H9X17546   6.413   5.617   7.676 -3.2813 -3.0708 -0.5839
  157SAPE   H9Y17547   6.560   5.634   7.573  0.5842  0.5540  3.0034
  157SAPE  C31017548   6.518   5.430   7.627  0.3505 -0.4552 -0.0252
  157SAPE  H10X17549   6.596   5.409   7.551  1.2240 -1.1322  1.0250
  157SAPE  H10Y17550   6.427   5.366   7.636 -1.2152  1.5461 -0.8045
  157SAPE  C31117551   6.578   5.428   7.767 -0.6436 -0.2174  0.0277
  157SAPE  H11X17552   6.657   5.505   7.777  0.9531 -1.9511  1.4236
  157SAPE  H11Y17553   6.638   5.336   7.784 -1.1470 -0.4563  0.5570
  157SAPE  C31217554   6.478   5.434   7.878  0.2768 -0.5693 -0.2491
  157SAPE  H12X17555   6.408   5.351   7.858  0.4354 -0.8049  0.1599
  157SAPE  H12Y17556   6.432   5.535   7.884  1.4609 -0.0182 -0.1219
  157SAPE  C31317557   6.542   5.408   8.016  0.1002  0.2122  0.4855
  157SAPE  H13X17558   6.620   5.487   8.026  0.5036  0.1430 -1.5740
  157SAPE  H13Y17559   6.596   5.311   8.014  2.1332  1.2852  0.5140
  157SAPE  C31417560   6.451   5.405   8.134 -0.5111 -0.0795  0.6620
  157SAPE  H14X17561   6.508   5.390   8.229 -1.2948 -1.5629  0.9351
  157SAPE  H14Y17562   6.377   5.322   8.131  1.1057 -1.5583  0.1320
  157SAPE  C31517563   6.376   5.533   8.162  0.3642 -0.5487  1.0299
  157SAPE  H15X17564   6.306   5.548   8.078  0.7506 -2.7980  0.2387
  157SAPE  H15Y17565   6.448   5.617   8.172 -0.8922  0.5669  0.9911
  157SAPE  C31617566   6.292   5.516   8.295  0.3177 -0.1823 -0.1638
  157SAPE  H16X17567   6.365   5.483   8.372 -0.1397 -0.9810 -0.0573
  157SAPE  H16Y17568   6.236   5.421   8.280 -1.0129  0.5339  0.0899
  157SAPE  C31717569   6.206   5.633   8.336  1.3391  0.0530  0.4236
  157SAPE  H17X17570   6.267   5.704   8.396  1.6981  2.6934 -2.7635
  157SAPE  H17Y17571   6.121   5.592   8.395  1.6461 -1.9756 -0.4866
  157SAPE  C31817572   6.143   5.714   8.230 -0.1690  0.4378 -0.7261
  157SAPE  H18X17573   6.207   5.793   8.186  2.2510 -0.8766  0.2031
  157SAPE  H18Y17574   6.056   5.771   8.268  0.2590  1.2004 -0.8847
  157SAPE  H18Z17575   6.107   5.654   8.143  0.6016 -1.8805  0.4576
  158SAPE     N17576   4.603   2.423   6.212  0.2557  0.0565  0.5285
  158SAPE   HN117577   4.624   2.469   6.303 -0.6436 -1.0997  1.3699
  158SAPE   HN217578   4.512   2.455   6.174  0.3136  0.7720  0.9674
  158SAPE   HN317579   4.578   2.331   6.254 -1.0431 -0.9562 -2.2202
  158SAPE   C1217580   4.719   2.416   6.109  0.2638 -0.9578 -0.6256
  158SAPE  H12A17581   4.694   2.342   6.031 -0.6506  0.3529 -1.6066
  158SAPE  H12B17582   4.811   2.383   6.162  0.4000  0.8788  0.3580
  158SAPE   C1117583   4.734   2.555   6.050  0.0710  0.1840 -0.4133
  158SAPE  H11A17584   4.644   2.603   6.007  0.4709  0.2016 -1.2479
  158SAPE  H11B17585   4.806   2.529   5.969  1.1360 -0.2927  0.6583
  158SAPE     P17586   4.899   2.749   6.102  0.0996 -0.2102 -0.0743
  158SAPE   O1317587   4.989   2.701   5.998  0.4284  0.1324  0.2129
  158SAPE   O1417588   4.830   2.882   6.080  0.2269 -0.4528  0.6436
  158SAPE   O1217589   4.785   2.646   6.148  0.6097 -0.1516 -0.0387
  158SAPE   O1117590   4.987   2.761   6.229  0.1541 -0.2572 -0.3039
  158SAPE    C117591   4.947   2.713   6.361  0.0803  0.2100  0.3703
  158SAPE    HA17592   4.917   2.798   6.425  0.8198 -0.6208  1.8782
  158SAPE    HB17593   4.855   2.651   6.365 -0.5397  0.8063  6.9776
  158SAPE    C217594   5.061   2.638   6.445 -0.0819 -0.0188  0.1444
  158SAPE    HS17595   5.077   2.537   6.401  1.7224  0.8051 -1.2523
  158SAPE   O2117596   5.004   2.636   6.574  0.5463  0.1480 -0.1124
  158SAPE   C2117597   5.043   2.528   6.640  0.6346 -0.2134 -0.1264
  158SAPE   O2217598   5.116   2.437   6.598  0.3203  0.3867  0.6483
  158SAPE   C2217599   4.999   2.542   6.782  0.2882  0.4865  0.0373
  158SAPE   H2R17600   4.990   2.437   6.818  1.8393 -0.5824 -2.4303
  158SAPE   H2S17601   5.075   2.582   6.852 -0.5322  0.8265  0.7565
  158SAPE    C317602   5.206   2.706   6.435  0.1752 -0.2173 -0.2407
  158SAPE    HX17603   5.186   2.815   6.432 -1.3731 -0.4015  1.4936
  158SAPE    HY17604   5.224   2.666   6.333  1.6025 -2.8161  0.9157
  158SAPE   O3117605   5.300   2.659   6.542  0.4121  0.0166 -0.3235
  158SAPE   C3117606   5.348   2.755   6.624  0.3229  0.8879  0.1292
  158SAPE   O3217607   5.319   2.873   6.614  0.0991 -0.3663  0.2770
  158SAPE   C3217608   5.440   2.697   6.724 -0.3335 -0.3004  0.0786
  158SAPE   H2X17609   5.528   2.666   6.663 -0.6499  1.4808 -1.3593
  158SAPE   H2Y17610   5.385   2.609   6.764 -0.0414 -0.0787  0.9786
  158SAPE   C2317611   4.854   2.604   6.795 -0.1185  0.5243  0.0554
  158SAPE   H3R17612   4.780   2.555   6.728 -0.2587 -0.3033  0.7903
  158SAPE   H3S17613   4.846   2.712   6.770 -0.4647  0.4804 -0.0221
  158SAPE   C2417614   4.789   2.568   6.933  0.6078 -0.7654  0.1653
  158SAPE   H4R17615   4.857   2.600   7.015 -0.4735  2.7131 -0.1513
  158SAPE   H4S17616   4.767   2.459   6.931  0.3829 -0.7068 -0.9049
  158SAPE   C2517617   4.661   2.639   6.966 -0.0967 -0.1368  0.1833
  158SAPE   H5R17618   4.588   2.640   6.884  1.0835 -1.3525 -0.9121
  158SAPE   C2617619   4.633   2.707   7.084 -0.6487  0.0461  0.3557
  158SAPE   H6R17620   4.532   2.750   7.095 -0.5208  0.3490  0.3561
  158SAPE   C2717621   4.728   2.732   7.206 -0.7171  0.1721 -0.4334
  158SAPE   H7R17622   4.725   2.841   7.228  0.2256 -0.1621  1.5190
  158SAPE   H7S17623   4.836   2.718   7.185 -1.0334 -0.0688 -2.1053
  158SAPE   C2817624   4.683   2.648   7.325  0.7923 -0.0409  0.0906
  158SAPE   H8R17625   4.598   2.580   7.308  1.4631 -1.1960  1.1973
  158SAPE   C2917626   4.738   2.663   7.449  0.6397  0.2392  0.4908
  158SAPE   H9R17627   4.698   2.602   7.532 -1.4925  0.3818 -0.3548
  158SAPE  C21017628   4.850   2.760   7.481 -0.2722 -0.0046 -0.5537
  158SAPE  H10R17629   4.909   2.796   7.394  0.9680  0.7001  0.5349
  158SAPE  H10S17630   4.926   2.705   7.541 -0.8540  0.4448  0.6463
  158SAPE  C21117631   4.796   2.879   7.554 -0.4430 -0.1546 -0.2974
  158SAPE  H11R17632   4.761   2.957   7.484 -0.4416 -0.7891 -1.0132
  158SAPE  C21217633   4.796   2.902   7.688  0.3057  0.3153  0.5880
  158SAPE  H12R17634   4.769   3.002   7.725 -0.6027 -1.1114  4.1481
  158SAPE  C21317635   4.839   2.810   7.802 -0.1801 -0.3732 -0.1944
  158SAPE  H13R17636   4.884   2.869   7.884 -0.9462 -0.2637  0.1597
  158SAPE  H13S17637   4.926   2.755   7.761  1.6743  1.8530  0.5791
  158SAPE  C21417638   4.725   2.720   7.847  0.0387 -1.0128  0.2382
  158SAPE  H14R17639   4.684   2.671   7.758 -0.9402 -1.4298  0.9041
  158SAPE  C21517640   4.683   2.684   7.970  0.1268  0.3679 -0.7141
  158SAPE  H15R17641   4.595   2.619   7.983  1.8693 -2.2654 -1.2154
  158SAPE  C21617642   4.735   2.741   8.097  0.7768  0.3087  0.1239
  158SAPE  H16R17643   4.844   2.724   8.106  0.5013 -0.7351  2.3835
  158SAPE  H16S17644   4.699   2.680   8.184  0.5760 -0.0810 -0.2283
  158SAPE  C21717645   4.707   2.892   8.116  0.4377  0.9470  0.3534
  158SAPE  H17R17646   4.596   2.891   8.110  0.3471  0.1106  1.7329
  158SAPE  H17S17647   4.749   2.942   8.026 -4.8049  0.5160 -2.7646
  158SAPE  C21817648   4.755   2.952   8.242 -0.1048  0.5182  0.5178
  158SAPE  H18R17649   4.752   2.881   8.327  3.3863 -1.8112 -1.0406
  158SAPE  H18S17650   4.706   3.049   8.263 -1.5788  0.0520 -0.6005
  158SAPE  C21917651   4.907   2.987   8.215  0.4773  0.4554 -0.1439
  158SAPE  H19R17652   4.912   3.065   8.135  0.5009 -0.8285 -1.4331
  158SAPE  H19S17653   4.968   2.902   8.179  0.3485 -0.3763  1.5114
  158SAPE  C22017654   4.974   3.049   8.335  0.1672 -0.0563 -0.4703
  158SAPE  H20R17655   4.923   3.022   8.429 -1.2279 -0.8528 -1.4235
  158SAPE  H20S17656   4.961   3.160   8.333 -2.2317 -0.2930 -0.8498
  158SAPE  H20T17657   5.080   3.020   8.348  0.2323  0.4469  0.1888
  158SAPE   C3317658   5.494   2.795   6.830 -0.1736 -0.1512  0.0084
  158SAPE   H3X17659   5.536   2.882   6.777  0.8838  0.0403  1.0985
  158SAPE   H3Y17660   5.571   2.724   6.868  0.0458 -0.7125 -1.4036
  158SAPE   C3417661   5.388   2.836   6.935  0.5120 -0.0506  0.3358
  158SAPE   H4X17662   5.339   2.741   6.966 -0.2357  0.2317  0.0361
  158SAPE   H4Y17663   5.309   2.887   6.876 -0.2705 -1.9735 -0.3758
  158SAPE   C3517664   5.453   2.924   7.033 -0.7450 -0.0883 -0.0313
  158SAPE   H5X17665   5.467   3.028   6.998 -0.7395  0.3700  1.2981
  158SAPE   H5Y17666   5.556   2.895   7.065 -0.6006  1.0891  0.6249
  158SAPE   C3617667   5.371   2.936   7.166  0.0519  0.0577  1.0293
  158SAPE   H6X17668   5.426   2.992   7.244  0.2649 -0.0156  0.9335
  158SAPE   H6Y17669   5.358   2.832   7.202  2.9885 -1.0493 -0.7933
  158SAPE   C3717670   5.237   3.012   7.164 -0.1113 -0.4435 -0.3973
  158SAPE   H7X17671   5.261   3.115   7.133 -1.3384 -0.6236 -2.0422
  158SAPE   H7Y17672   5.172   2.967   7.087  0.5181  0.7098 -1.6312
  158SAPE   C3817673   5.158   3.014   7.292  0.4846 -0.1813 -1.0161
  158SAPE   H8X17674   5.095   2.923   7.297 -1.8493  1.2855 -1.8975
  158SAPE   H8Y17675   5.087   3.099   7.300  2.7579  1.6850  2.3519
  158SAPE   C3917676   5.241   3.010   7.421 -0.9465  0.1287  0.0665
  158SAPE   H9X17677   5.295   3.107   7.435 -0.9636  0.5243 -2.3015
  158SAPE   H9Y17678   5.314   2.927   7.421  0.2545  1.1501  0.4003
  158SAPE  C31017679   5.165   2.974   7.551 -0.5853 -0.8073  0.4064
  158SAPE  H10X17680   5.126   2.870   7.548 -2.9493  0.0018  0.8712
  158SAPE  H10Y17681   5.077   3.041   7.563 -0.7396 -0.8934 -0.2140
  158SAPE  C31117682   5.255   2.993   7.677  0.5102  0.4994 -0.0714
  158SAPE  H11X17683   5.270   3.101   7.693  3.2615 -0.0423  1.6746
  158SAPE  H11Y17684   5.348   2.946   7.639 -0.2487  0.0607 -1.4858
  158SAPE  C31217685   5.192   2.932   7.802 -0.8702  1.0157 -1.2422
  158SAPE  H12X17686   5.199   2.821   7.789 -1.3479  1.1771 -3.1678
  158SAPE  H12Y17687   5.081   2.941   7.807 -0.9720 -0.4135 -0.1319
  158SAPE  C31317688   5.252   2.976   7.935 -0.0180 -0.0498 -0.2584
  158SAPE  H13X17689   5.176   2.947   8.011 -0.6419  0.9664 -0.4679
  158SAPE  H13Y17690   5.250   3.088   7.936  0.5275  0.0178 -2.1474
  158SAPE  C31417691   5.388   2.909   7.968 -0.1967  0.1757  0.7727
  158SAPE  H14X17692   5.478   2.945   7.913 -1.1683  1.0266 -0.3139
  158SAPE  H14Y17693   5.381   2.800   7.946 -1.0069  0.4005 -0.1424
  158SAPE  C31517694   5.432   2.940   8.106  1.0521  0.0756 -0.5044
  158SAPE  H15X17695   5.346   2.911   8.169  1.1296  0.3100 -0.2890
  158SAPE  H15Y17696   5.447   3.049   8.121  0.4411  0.1892 -0.6855
  158SAPE  C31617697   5.561   2.867   8.146  0.4005 -0.1505  0.1425
  158SAPE  H16X17698   5.647   2.869   8.075 -0.3343  0.0364 -0.7682
  158SAPE  H16Y17699   5.525   2.762   8.136 -0.4525  0.1558 -0.1288
  158SAPE  C31717700   5.612   2.898   8.282 -0.3198 -1.3026  0.8713
  158SAPE  H17X17701   5.610   3.009   8.291  1.0758 -1.2450  0.6662
  158SAPE  H17Y17702   5.719   2.870   8.275 -0.6622 -2.4668  0.1281
  158SAPE  C31817703   5.530   2.824   8.390 -1.2717 -0.1147  0.2035
  158SAPE  H18X17704   5.581   2.849   8.485 -0.3198  0.1828 -0.3681
  158SAPE  H18Y17705   5.533   2.716   8.365  1.3712 -0.1225  0.2846
  158SAPE  H18Z17706   5.426   2.864   8.396 -0.6223  1.5239  1.2065
  159SAPE     N17707   5.942   4.042   6.192  0.0227 -0.2975  0.2871
  159SAPE   HN117708   5.960   3.946   6.228 -1.5141 -0.4423  0.7752
  159SAPE   HN217709   5.960   4.116   6.263 -0.6443  1.2390 -1.0664
  159SAPE   HN317710   5.839   4.045   6.174 -0.1146 -1.4859  0.7669
  159SAPE   C1217711   5.991   4.083   6.056  0.0424 -0.0618 -0.0666
  159SAPE  H12A17712   5.957   4.189   6.054  1.7117  0.5598  1.5478
  159SAPE  H12B17713   5.941   4.019   5.981  0.6441 -0.1056 -0.4406
  159SAPE   C1117714   6.147   4.086   6.044  0.1352 -0.3247  0.3478
  159SAPE  H11A17715   6.178   4.113   5.940  1.6592 -1.9555  0.3268
  159SAPE  H11B17716   6.169   3.977   6.058  1.0923 -0.8297 -3.7428
  159SAPE     P17717   6.304   4.106   6.256  0.0751 -0.0248  0.1323
  159SAPE   O1317718   6.387   3.998   6.202 -0.6511 -0.2946 -0.2324
  159SAPE   O1417719   6.380   4.223   6.313  0.0839  0.0447 -0.5900
  159SAPE   O1217720   6.216   4.165   6.139 -0.6875  0.3471  0.4042
  159SAPE   O1117721   6.203   4.054   6.362 -0.1072  0.4652  0.2340
  159SAPE    C117722   6.230   3.953   6.455  0.1416  0.3549 -0.1919
  159SAPE    HA17723   6.152   3.875   6.465 -0.6696  1.3944  2.5025
  159SAPE    HB17724   6.329   3.905   6.441  1.5258  3.3225 -1.3031
  159SAPE    C217725   6.227   4.027   6.591 -0.0116  0.4827  0.1493
  159SAPE    HS17726   6.329   4.065   6.610  0.7119 -1.6648  0.8334
  159SAPE   O2117727   6.193   3.934   6.695  0.0859 -0.0822 -0.0969
  159SAPE   C2117728   6.284   3.832   6.732 -0.0850  0.3695 -0.6546
  159SAPE   O2217729   6.398   3.823   6.683  0.3680  0.2896  0.2111
  159SAPE   C2217730   6.218   3.744   6.829 -0.1179  0.0339 -0.4167
  159SAPE   H2R17731   6.157   3.813   6.891  1.0366  0.9951 -0.3156
  159SAPE   H2S17732   6.146   3.681   6.773 -0.3395  0.5523 -0.7228
  159SAPE    C317733   6.142   4.157   6.601 -0.3837 -0.1327  0.1163
  159SAPE    HX17734   6.046   4.152   6.545  0.6602 -1.9832 -1.6348
  159SAPE    HY17735   6.193   4.234   6.539 -1.2173  0.4151  0.0878
  159SAPE   O3117736   6.118   4.199   6.736 -0.1815  0.8318  0.2509
  159SAPE   C3117737   6.216   4.267   6.785  1.0343 -0.2225  0.7819
  159SAPE   O3217738   6.312   4.305   6.722 -0.3144  0.0840  0.1780
  159SAPE   C3217739   6.189   4.291   6.936 -0.4624 -0.0210 -0.3277
  159SAPE   H2X17740   6.137   4.389   6.945  2.0183  1.3328  0.1764
  159SAPE   H2Y17741   6.290   4.307   6.980 -1.9943  0.1000  3.5061
  159SAPE   C2317742   6.308   3.651   6.905 -0.1785  0.5060 -0.1056
  159SAPE   H3R17743   6.395   3.617   6.845 -0.8162 -0.2793 -0.6058
  159SAPE   H3S17744   6.246   3.564   6.936  0.0731  0.1023 -0.7229
  159SAPE   C2417745   6.356   3.715   7.036 -0.1192 -0.1547 -0.5488
  159SAPE   H4R17746   6.419   3.638   7.087  1.1553  0.0985 -1.6835
  159SAPE   H4S17747   6.270   3.735   7.103  0.4103 -2.9697  1.1404
  159SAPE   C2517748   6.451   3.834   7.025  0.1720  0.7376  0.0522
  159SAPE   H5R17749   6.492   3.865   6.928  2.0953 -0.1348  0.5446
  159SAPE   C2617750   6.486   3.911   7.123 -0.6132 -0.8116 -0.2042
  159SAPE   H6R17751   6.554   3.995   7.100 -2.6883  0.8827 -0.3784
  159SAPE   C2717752   6.434   3.903   7.267 -0.8003 -0.3111  0.5230
  159SAPE   H7R17753   6.340   3.843   7.267 -0.9069 -0.1542 -0.3385
  159SAPE   H7S17754   6.413   4.004   7.309  0.5561 -0.4863  1.7257
  159SAPE   C2817755   6.540   3.843   7.361 -0.8141 -0.2728 -0.0683
  159SAPE   H8R17756   6.619   3.785   7.312  1.0698  1.2154  1.0414
  159SAPE   C2917757   6.550   3.860   7.494  0.2442  0.0140 -0.0728
  159SAPE   H9R17758   6.628   3.806   7.549 -0.0777 -0.7051 -0.3021
  159SAPE  C21017759   6.456   3.941   7.577 -1.0488  0.0975  0.0830
  159SAPE  H10R17760   6.374   3.989   7.520 -0.2127  0.5757 -0.7367
  159SAPE  H10S17761   6.525   4.025   7.599  1.2199 -1.3319 -1.1948
  159SAPE  C21117762   6.429   3.881   7.714 -0.3989  0.1305 -0.6941
  159SAPE  H11R17763   6.380   3.783   7.721  0.3067 -0.2005 -0.2098
  159SAPE  C21217764   6.441   3.946   7.830  0.4041  0.8421 -0.4014
  159SAPE  H12R17765   6.394   3.894   7.915 -0.3058  1.0750 -0.6418
  159SAPE  C21317766   6.477   4.095   7.857 -0.3871 -0.0090 -0.5531
  159SAPE  H13R17767   6.381   4.142   7.888 -0.5770 -0.2176 -0.8265
  159SAPE  H13S17768   6.517   4.148   7.768  1.1488 -0.7621 -0.3527
  159SAPE  C21417769   6.575   4.104   7.970  0.7257  0.1169  0.1318
  159SAPE  H14R17770   6.664   4.164   7.946  0.5092  0.9427  1.3154
  159SAPE  C21517771   6.567   4.050   8.092  0.1104 -0.3847  0.1519
  159SAPE  H15R17772   6.645   4.081   8.162  1.5736 -3.0516 -0.1504
  159SAPE  C21617773   6.472   3.963   8.160  0.6212 -0.2165 -0.3816
  159SAPE  H16R17774   6.498   3.858   8.134  0.1439 -0.2213 -0.8648
  159SAPE  H16S17775   6.367   3.979   8.128  1.0232 -0.7649 -2.0899
  159SAPE  C21717776   6.491   3.976   8.312  0.5323 -0.2008 -0.0567
  159SAPE  H17R17777   6.467   4.079   8.345  1.1948 -0.2035  0.4535
  159SAPE  H17S17778   6.594   3.939   8.334 -0.5436 -2.8725  0.9094
  159SAPE  C21817779   6.390   3.882   8.383  0.1183 -0.1378  0.3964
  159SAPE  H18R17780   6.418   3.777   8.358  0.7995 -0.3645  1.9909
  159SAPE  H18S17781   6.288   3.900   8.343  1.2259  5.5708 -0.7252
  159SAPE  C21917782   6.391   3.886   8.528  0.5533  0.5435  0.3033
  159SAPE  H19R17783   6.389   3.984   8.580  1.2123 -0.0902  1.5731
  159SAPE  H19S17784   6.481   3.834   8.569 -0.6042 -0.8929  1.1030
  159SAPE  C22017785   6.268   3.797   8.583 -0.1380 -0.3939  0.1223
  159SAPE  H20R17786   6.281   3.786   8.693 -0.7911  0.5323  0.3114
  159SAPE  H20S17787   6.283   3.695   8.542 -0.9340 -0.3925 -0.1946
  159SAPE  H20T17788   6.169   3.845   8.565 -0.4063 -0.6103  0.9652
  159SAPE   C3317789   6.114   4.172   7.002  0.4545  0.8241 -0.3632
  159SAPE   H3X17790   6.163   4.074   6.987 -0.0861  0.6983 -1.3588
  159SAPE   H3Y17791   6.007   4.164   6.975  0.3060 -4.6959  0.7439
  159SAPE   C3417792   6.115   4.185   7.155  0.4504 -0.0912 -0.0607
  159SAPE   H4X17793   6.058   4.279   7.170  0.9831  1.0952 -4.0877
  159SAPE   H4Y17794   6.213   4.202   7.204  0.3014 -0.7790  0.4983
  159SAPE   C3517795   6.058   4.056   7.218  0.2253  0.6977 -0.8079
  159SAPE   H5X17796   6.096   3.970   7.159 -0.1017  0.0583 -0.0994
  159SAPE   H5Y17797   5.948   4.044   7.215  0.3818 -3.0572  1.6321
  159SAPE   C3617798   6.082   4.048   7.373  0.5703  0.9328  0.1868
  159SAPE   H6X17799   5.999   4.111   7.413 -1.3099 -1.0353 -0.4312
  159SAPE   H6Y17800   6.184   4.089   7.384  1.0711 -0.5982  1.5460
  159SAPE   C3717801   6.061   3.902   7.424 -0.2525  0.0941 -0.3165
  159SAPE   H7X17802   6.121   3.831   7.363  0.2000 -0.1534  0.3962
  159SAPE   H7Y17803   5.952   3.885   7.411 -0.3166 -0.6775  1.0117
  159SAPE   C3817804   6.097   3.875   7.570 -0.3037  0.7644  0.2150
  159SAPE   H8X17805   6.195   3.911   7.607 -0.3413 -0.0565  1.1525
  159SAPE   H8Y17806   6.082   3.767   7.587  1.8492  0.7998  2.9750
  159SAPE   C3917807   6.009   3.947   7.670  0.1713  0.6521  0.6907
  159SAPE   H9X17808   5.903   3.914   7.664 -0.8871  3.8105  0.1738
  159SAPE   H9Y17809   6.007   4.053   7.638  0.3282  0.4356 -0.0766
  159SAPE  C31017810   6.049   3.961   7.816 -0.0927 -0.5896 -0.2546
  159SAPE  H10X17811   5.974   4.032   7.856  0.5023 -0.0267 -0.1218
  159SAPE  H10Y17812   6.148   4.011   7.819 -0.2111 -0.3712  0.1453
  159SAPE  C31117813   6.061   3.828   7.885  0.3498 -0.2568 -0.6256
  159SAPE  H11X17814   6.143   3.766   7.843  1.5322 -0.3141  1.6163
  159SAPE  H11Y17815   5.959   3.783   7.879  0.1967  0.0254 -0.1796
  159SAPE  C31217816   6.086   3.854   8.034 -0.3238  0.5481  0.2472
  159SAPE  H12X17817   6.011   3.922   8.080  0.3024  1.3853  0.0565
  159SAPE  H12Y17818   6.182   3.908   8.051 -0.1368 -0.1046  1.3655
  159SAPE  C31317819   6.082   3.723   8.117 -0.1556 -0.4525  0.2627
  159SAPE  H13X17820   5.973   3.702   8.120 -0.3933  0.7623  0.8434
  159SAPE  H13Y17821   6.111   3.758   8.218 -0.9746  2.9273 -0.5702
  159SAPE  C31417822   6.169   3.608   8.069 -0.0767  0.4945 -0.5576
  159SAPE  H14X17823   6.274   3.644   8.067 -0.2641  1.0714 -0.3365
  159SAPE  H14Y17824   6.125   3.583   7.970  0.7421 -1.0236 -0.5704
  159SAPE  C31517825   6.149   3.501   8.178  0.4428  0.7048  0.4236
  159SAPE  H15X17826   6.221   3.522   8.261  1.9181  1.1999 -0.9369
  159SAPE  H15Y17827   6.196   3.407   8.141 -0.0999  0.3382  0.6551
  159SAPE  C31617828   6.009   3.477   8.242  0.7411  0.4266 -0.3362
  159SAPE  H16X17829   5.926   3.485   8.169 -0.5397 -0.4313  0.9759
  159SAPE  H16Y17830   5.991   3.553   8.322  0.9892 -2.0655  2.2639
  159SAPE  C31717831   6.012   3.347   8.332 -0.2594  0.4130  0.3582
  159SAPE  H17X17832   6.097   3.353   8.403 -0.1734 -2.2369  0.5984
  159SAPE  H17Y17833   6.032   3.259   8.266 -0.6360  0.0030  0.7808
  159SAPE  C31817834   5.884   3.328   8.408 -0.0065  0.7210  0.1612
  159SAPE  H18X17835   5.890   3.227   8.454  0.2682  1.0919  0.9607
  159SAPE  H18Y17836   5.789   3.328   8.351  0.9414 -0.2728 -1.5087
  159SAPE  H18Z17837   5.871   3.402   8.490  1.1693 -1.9125  2.9273
  160SAPE     N17838   2.308   3.420   6.444 -0.2675 -0.6312  0.2218
  160SAPE   HN117839   2.316   3.334   6.502 -0.3935 -2.2829 -2.0424
  160SAPE   HN217840   2.284   3.497   6.508  0.6432 -0.5282  0.4572
  160SAPE   HN317841   2.229   3.412   6.377  0.7663  0.1028 -1.1532
  160SAPE   C1217842   2.437   3.425   6.368  0.4587 -0.2806  0.0067
  160SAPE  H12A17843   2.441   3.343   6.294  1.9283  2.7802 -3.6474
  160SAPE  H12B17844   2.518   3.404   6.441  0.3695  1.0651  0.5308
  160SAPE   C1117845   2.444   3.553   6.291  0.0608 -0.0224 -0.8028
  160SAPE  H11A17846   2.345   3.564   6.242 -0.4035  0.2419  0.1741
  160SAPE  H11B17847   2.519   3.545   6.209  0.2040  0.5403 -0.7268
  160SAPE     P17848   2.377   3.765   6.427 -0.0688 -0.1560  0.3679
  160SAPE   O1317849   2.333   3.868   6.331 -0.2907 -0.2618  0.0469
  160SAPE   O1417850   2.271   3.690   6.502  0.1956 -0.1651 -0.0919
  160SAPE   O1217851   2.483   3.663   6.370  0.8335  0.3975  0.3003
  160SAPE   O1117852   2.457   3.833   6.547  0.0527 -0.1269  0.4856
  160SAPE    C117853   2.580   3.775   6.596  0.2500  0.6415 -0.0767
  160SAPE    HA17854   2.643   3.739   6.511 -0.6812  2.0859 -1.4312
  160SAPE    HB17855   2.645   3.854   6.639  0.7185 -0.0544  0.5177
  160SAPE    C217856   2.555   3.651   6.686  0.4554  0.1220  0.1784
  160SAPE    HS17857   2.536   3.579   6.604  1.0654  0.4615 -0.2729
  160SAPE   O2117858   2.441   3.677   6.772 -0.3847 -0.5650  0.1682
  160SAPE   C2117859   2.369   3.569   6.800 -0.1125  0.3395 -0.2605
  160SAPE   O2217860   2.379   3.457   6.745  0.2472  0.0259  0.1016
  160SAPE   C2217861   2.284   3.605   6.918 -0.2356  0.8551 -0.2452
  160SAPE   H2R17862   2.256   3.712   6.903  1.5035  1.4556  0.5582
  160SAPE   H2S17863   2.199   3.535   6.908  1.3865 -1.1448 -0.6046
  160SAPE    C317864   2.684   3.617   6.765 -0.1088  0.0446  0.1377
  160SAPE    HX17865   2.683   3.681   6.856 -2.6676  0.7772 -0.3193
  160SAPE    HY17866   2.777   3.631   6.706 -0.1567 -2.0867 -0.5256
  160SAPE   O3117867   2.684   3.478   6.813  0.1253  0.2457 -0.3780
  160SAPE   C3117868   2.699   3.380   6.726 -0.4138 -0.2271  0.1819
  160SAPE   O3217869   2.709   3.402   6.605 -0.4289 -0.2713  0.2398
  160SAPE   C3217870   2.709   3.239   6.792 -0.0354 -0.2867  0.1084
  160SAPE   H2X17871   2.815   3.208   6.780  0.1126  0.3973 -0.3738
  160SAPE   H2Y17872   2.647   3.177   6.724  0.9817 -1.6649  0.3767
  160SAPE   C2317873   2.351   3.598   7.051  0.4836 -0.1826  0.2472
  160SAPE   H3R17874   2.279   3.649   7.118 -0.0229  0.1157 -0.5051
  160SAPE   H3S17875   2.433   3.673   7.046 -0.6875  1.1688  0.8551
  160SAPE   C2417876   2.392   3.454   7.083  0.9314 -0.9087 -0.0452
  160SAPE   H4R17877   2.468   3.427   7.007  1.6072  2.5088 -0.7213
  160SAPE   H4S17878   2.307   3.383   7.072 -0.9597  0.7973  2.3996
  160SAPE   C2517879   2.445   3.451   7.222  0.1380 -0.4441  0.6249
  160SAPE   H5R17880   2.553   3.445   7.239  0.1941 -1.5211  0.0031
  160SAPE   C2617881   2.367   3.458   7.333 -0.2796 -0.1892  0.0242
  160SAPE   H6R17882   2.418   3.458   7.430 -0.5220 -0.8510  0.1580
  160SAPE   C2717883   2.218   3.464   7.346  0.1233 -0.4815  0.8523
  160SAPE   H7R17884   2.153   3.464   7.255 -1.7761  0.9622  2.1283
  160SAPE   H7S17885   2.198   3.565   7.388 -1.1238  0.7067 -2.2850
  160SAPE   C2817886   2.169   3.356   7.434  0.2796  0.5458 -0.9494
  160SAPE   H8R17887   2.137   3.262   7.386 -1.3353  0.0990  0.8740
  160SAPE   C2917888   2.141   3.362   7.569  0.7903  0.1001 -0.1159
  160SAPE   H9R17889   2.111   3.266   7.614  0.3109  0.1999 -0.2279
  160SAPE  C21017890   2.166   3.475   7.660  0.3513  0.3687  0.1818
  160SAPE  H10R17891   2.078   3.492   7.725 -0.5187  0.2664 -0.9299
  160SAPE  H10S17892   2.171   3.570   7.603 -1.2430  0.3811  0.0269
  160SAPE  C21117893   2.297   3.466   7.728 -0.1472 -0.2856 -0.6119
  160SAPE  H11R17894   2.383   3.488   7.662 -1.4754 -0.2986 -2.4089
  160SAPE  C21217895   2.324   3.420   7.852 -0.2436 -0.1423 -0.5537
  160SAPE  H12R17896   2.428   3.433   7.887  0.3975 -0.7841 -2.1027
  160SAPE  C21317897   2.220   3.382   7.955  0.0326  0.1734 -0.3143
  160SAPE  H13R17898   2.123   3.359   7.906  0.8169 -0.5162 -1.5920
  160SAPE  H13S17899   2.205   3.466   8.026  2.8390 -0.0411  0.6695
  160SAPE  C21417900   2.252   3.246   8.019  0.5399 -0.6012  0.2506
  160SAPE  H14R17901   2.268   3.166   7.946 -0.6558 -2.2798  1.7241
  160SAPE  C21517902   2.237   3.205   8.144  0.0534 -0.2036 -0.5000
  160SAPE  H15R17903   2.253   3.099   8.169  1.8216 -0.0391 -0.8627
  160SAPE  C21617904   2.197   3.286   8.264 -0.3414 -0.5605  0.0416
  160SAPE  H16R17905   2.092   3.278   8.300 -0.0696 -0.7703  0.8103
  160SAPE  H16S17906   2.216   3.394   8.252 -3.0344  0.1564  1.3432
  160SAPE  C21717907   2.293   3.243   8.389  0.4982  0.6182  0.2830
  160SAPE  H17R17908   2.398   3.273   8.368  0.7190  1.3565  2.2405
  160SAPE  H17S17909   2.294   3.132   8.395 -1.7582  0.5017 -0.6071
  160SAPE  C21817910   2.248   3.311   8.512  0.2750 -0.7134  0.8810
  160SAPE  H18R17911   2.183   3.241   8.567 -1.2941 -0.9096 -1.1394
  160SAPE  H18S17912   2.187   3.397   8.477  1.8819  0.6371  1.2686
  160SAPE  C21917913   2.363   3.359   8.613 -0.5668  0.0790  0.0323
  160SAPE  H19R17914   2.429   3.434   8.565  0.6700  0.0209  1.5874
  160SAPE  H19S17915   2.427   3.269   8.626  2.5948  2.1938 -0.0204
  160SAPE  C22017916   2.298   3.419   8.736 -0.0471 -0.4755  0.3003
  160SAPE  H20R17917   2.358   3.503   8.776 -0.9762 -0.6885  2.2911
  160SAPE  H20S17918   2.286   3.335   8.809 -0.5448 -1.5391 -0.9587
  160SAPE  H20T17919   2.198   3.460   8.711 -0.1342 -0.8279  0.0611
  160SAPE   C3317920   2.666   3.219   6.939 -0.5471 -0.1495  0.0732
  160SAPE   H3X17921   2.642   3.112   6.953 -2.4933  0.1623 -0.4870
  160SAPE   H3Y17922   2.564   3.264   6.949 -0.5488 -0.2483  0.4904
  160SAPE   C3417923   2.775   3.268   7.036 -0.5236 -0.0590 -0.1931
  160SAPE   H4X17924   2.776   3.378   7.023 -0.1487 -0.3230 -2.9283
  160SAPE   H4Y17925   2.872   3.226   7.001 -0.3887  1.5236 -1.9025
  160SAPE   C3517926   2.761   3.233   7.183  0.0279  0.3518  0.0159
  160SAPE   H5X17927   2.747   3.124   7.196  2.5006  0.2242  2.9955
  160SAPE   H5Y17928   2.671   3.280   7.229 -0.2410  0.2172 -0.3747
  160SAPE   C3617929   2.885   3.261   7.278  0.0496 -0.1823  1.0706
  160SAPE   H6X17930   2.906   3.370   7.272  1.8482 -0.5856 -2.0042
  160SAPE   H6Y17931   2.977   3.210   7.242 -0.9764 -0.7973 -0.7826
  160SAPE   C3717932   2.867   3.215   7.421 -0.4440 -0.4691 -0.2033
  160SAPE   H7X17933   2.816   3.116   7.423 -0.2672 -0.5520  1.0391
  160SAPE   H7Y17934   2.786   3.279   7.463 -2.6854 -2.2868 -1.4675
  160SAPE   C3817935   2.992   3.216   7.506  0.3333 -0.6194 -0.5783
  160SAPE   H8X17936   3.039   3.316   7.495  0.4999 -0.7041 -0.6523
  160SAPE   H8Y17937   3.070   3.154   7.456  0.7682  0.7928 -1.6942
  160SAPE   C3917938   2.958   3.167   7.650 -0.3566  0.1625 -0.9678
  160SAPE   H9X17939   3.052   3.144   7.705  0.4157  2.3903 -1.2427
  160SAPE   H9Y17940   2.901   3.072   7.655 -0.4610  0.2690 -0.0145
  160SAPE  C31017941   2.893   3.284   7.728 -0.2317  0.2602  0.0141
  160SAPE  H10X17942   2.797   3.294   7.674 -0.0978  1.3759 -0.0329
  160SAPE  H10Y17943   2.944   3.382   7.716 -3.6132  2.6593  2.9727
  160SAPE  C31117944   2.875   3.244   7.871 -0.1464  0.0499  0.7886
  160SAPE  H11X17945   2.972   3.249   7.924  0.2245  1.7404 -0.0088
  160SAPE  H11Y17946   2.829   3.142   7.873 -1.3371  0.5657  0.4479
  160SAPE  C31217947   2.802   3.346   7.947  0.1216  0.0413 -0.3617
  160SAPE  H12X17948   2.700   3.365   7.906  0.7306  1.2699 -1.3622
  160SAPE  H12Y17949   2.849   3.440   7.913  1.1149  0.1096  1.0778
  160SAPE  C31317950   2.806   3.332   8.095 -0.0911  0.3542 -0.0725
  160SAPE  H13X17951   2.786   3.429   8.145  2.4852  0.4791  0.8655
  160SAPE  H13Y17952   2.907   3.301   8.131  0.1674 -1.4120 -2.0728
  160SAPE  C31417953   2.698   3.232   8.146  0.2706  0.1211  0.1083
  160SAPE  H14X17954   2.723   3.128   8.115  1.7495  0.2859  0.6483
  160SAPE  H14Y17955   2.601   3.254   8.097 -0.2260 -1.3242  0.4170
  160SAPE  C31517956   2.677   3.229   8.295  0.1421  0.0101  0.4360
  160SAPE  H15X17957   2.598   3.155   8.320 -3.4559  3.0429 -1.0442
  160SAPE  H15Y17958   2.628   3.325   8.322 -0.6499 -1.2172  3.7343
  160SAPE  C31617959   2.788   3.198   8.395  0.3240 -0.1079  0.6591
  160SAPE  H16X17960   2.855   3.285   8.382 -0.1475  0.4550  1.8630
  160SAPE  H16Y17961   2.839   3.103   8.369 -0.4483 -0.3834  0.0932
  160SAPE  C31717962   2.734   3.195   8.547  0.0758  0.1348  0.1020
  160SAPE  H17X17963   2.674   3.102   8.559  1.5466 -0.7729  0.6467
  160SAPE  H17Y17964   2.661   3.277   8.568 -0.4096 -0.5724  1.2740
  160SAPE  C31817965   2.824   3.208   8.667  0.0302 -0.4990  0.2910
  160SAPE  H18X17966   2.898   3.125   8.662  0.2206 -0.3163  0.0413
  160SAPE  H18Y17967   2.764   3.213   8.760  0.7793 -1.5777  0.8546
  160SAPE  H18Z17968   2.889   3.297   8.658  0.0860 -0.5533  0.1520
  161SOPE     N17969   5.534   6.517  10.996  0.1489 -0.3562  0.3625
  161SOPE   HN117970   5.629   6.499  10.959 -0.2908  0.9069 -1.6092
  161SOPE   HN217971   5.531   6.535  11.098 -2.4720  0.0304  0.3028
  161SOPE   HN317972   5.492   6.425  10.975 -2.6282  1.0798 -1.0586
  161SOPE   C1217973   5.469   6.626  10.913  0.5422 -0.2643  0.2664
  161SOPE  H12A17974   5.495   6.721  10.965  2.3236 -1.1487  1.0737
  161SOPE  H12B17975   5.360   6.620  10.932  0.2938  1.8535 -0.2902
  161SOPE   C1117976   5.494   6.613  10.767  0.1234 -0.0801  0.0321
  161SOPE  H11A17977   5.429   6.681  10.708 -0.3714 -0.4748  0.1200
  161SOPE  H11B17978   5.470   6.508  10.739 -0.5054 -0.1128  0.6760
  161SOPE     P17979   5.688   6.703  10.612  0.2155  0.2155  0.3585
  161SOPE   O1317980   5.822   6.637  10.591 -0.1866  0.0847  0.8679
  161SOPE   O1417981   5.685   6.850  10.632 -0.0307 -0.5401  0.7845
  161SOPE   O1217982   5.630   6.639  10.740 -0.0169 -0.2045  0.2696
  161SOPE   O1117983   5.573   6.660  10.503 -0.3658 -0.3667  0.2676
  161SOPE    C117984   5.602   6.604  10.378 -0.3511  0.3936  0.2828
  161SOPE    HA17985   5.654   6.505  10.383  1.1930  1.2277  2.3619
  161SOPE    HB17986   5.669   6.667  10.315  0.0404 -2.1990 -2.1211
  161SOPE    C217987   5.474   6.581  10.297 -0.0580 -0.4866 -0.1951
  161SOPE    HS17988   5.414   6.503  10.349 -3.3841  0.1311 -2.7446
  161SOPE   O2117989   5.504   6.542  10.166 -0.3653 -0.2104  0.0056
  161SOPE   C2117990   5.435   6.452  10.110  0.2542  0.4550 -0.2146
  161SOPE   O2217991   5.342   6.388  10.159  0.5470  0.6629  0.6848
  161SOPE   C2217992   5.495   6.420   9.969 -0.3620 -0.7055 -0.1236
  161SOPE   H2R17993   5.538   6.319   9.977 -1.1292 -0.9539  1.1570
  161SOPE   H2S17994   5.572   6.495   9.940 -0.7228 -0.5397 -0.6792
  161SOPE    C317995   5.386   6.714  10.297  0.0091 -0.9430 -0.3378
  161SOPE    HX17996   5.454   6.801  10.291 -0.0503 -1.0009 -2.6742
  161SOPE    HY17997   5.333   6.721  10.395  1.6101  0.3279  0.4874
  161SOPE   O3117998   5.291   6.720  10.182  0.2450 -0.1827  0.3617
  161SOPE   C3117999   5.210   6.820  10.199 -0.1682  0.3792  0.0679
  161SOPE   O3218000   5.189   6.882  10.300 -0.1766 -0.0283 -0.1429
  161SOPE   C3218001   5.132   6.842  10.072 -0.3167 -0.0027  0.0389
  161SOPE   H2X18002   5.065   6.929  10.090 -2.3710 -1.4364 -0.3539
  161SOPE   H2Y18003   5.067   6.752  10.064 -0.9518  0.5514 -1.5246
  161SOPE   C2318004   5.386   6.429   9.853  0.4857 -0.5755 -0.0040
  161SOPE   H3R18005   5.359   6.537   9.845  0.0088 -0.8234 -3.5032
  161SOPE   H3S18006   5.295   6.369   9.874  0.7227 -0.3839  1.7486
  161SOPE   C2418007   5.427   6.386   9.718  0.3257  0.0062 -0.6284
  161SOPE   H4R18008   5.518   6.443   9.689  0.8898  0.6556  2.1629
  161SOPE   H4S18009   5.449   6.277   9.708 -2.8120 -0.6678 -1.1638
  161SOPE   C2518010   5.319   6.412   9.608 -0.9489  0.3069 -0.5907
  161SOPE   H5R18011   5.235   6.353   9.651  0.1951  0.7464  2.5059
  161SOPE   H5S18012   5.295   6.519   9.592  0.9475  1.3152  2.3996
  161SOPE   C2618013   5.365   6.363   9.473 -0.1869  0.4743 -0.2477
  161SOPE   H6R18014   5.465   6.404   9.449  0.7282 -1.4704 -0.0045
  161SOPE   H6S18015   5.383   6.255   9.494  0.0206  0.7038  0.7980
  161SOPE   C2718016   5.262   6.369   9.365 -0.3100 -0.4897  0.5183
  161SOPE   H7R18017   5.170   6.318   9.400  0.0313 -1.0481  0.6256
  161SOPE   H7S18018   5.247   6.475   9.337  1.9970 -0.7620 -2.2670
  161SOPE   C2818019   5.321   6.304   9.231 -0.4737 -0.1811  0.2964
  161SOPE   H8R18020   5.275   6.351   9.142  1.6016  1.5098  0.0373
  161SOPE   H8S18021   5.431   6.320   9.231  0.2098 -3.8219 -2.1253
  161SOPE   C2918022   5.299   6.153   9.245 -0.0963  0.2162  0.1847
  161SOPE   H9118023   5.194   6.126   9.265  0.0261 -1.2710 -1.0361
  161SOPE  C21018024   5.394   6.058   9.231  0.0156  0.2757  0.0027
  161SOPE  H10118025   5.361   5.954   9.217 -0.3044  0.2502  0.8772
  161SOPE  C21118026   5.542   6.070   9.208 -0.5101 -0.1402  0.2424
  161SOPE  H11R18027   5.593   5.977   9.240  1.0215  0.8291  0.7652
  161SOPE  H11S18028   5.581   6.158   9.265 -1.4444 -0.6462  1.6969
  161SOPE  C21218029   5.569   6.083   9.060 -0.9486  0.2143 -0.2046
  161SOPE  H12R18030   5.535   6.187   9.040  0.8315  1.0378  0.8342
  161SOPE  H12S18031   5.517   6.015   8.989 -1.3667  0.7704 -0.4429
  161SOPE  C21318032   5.716   6.056   9.016  0.5099  0.1116 -0.6385
  161SOPE  H13R18033   5.745   5.951   9.042  0.4664  0.1108 -0.5931
  161SOPE  H13S18034   5.776   6.120   9.084 -2.4357  2.2833  0.0985
  161SOPE  C21418035   5.748   6.080   8.871  0.3238  0.3876  0.2736
  161SOPE  H14R18036   5.729   6.008   8.788 -0.2998  1.7423 -0.8029
  161SOPE  H14S18037   5.858   6.094   8.866  0.4327 -0.0942  1.2323
  161SOPE  C21518038   5.693   6.212   8.823 -0.0240 -0.2876 -0.5438
  161SOPE  H15R18039   5.720   6.270   8.914 -0.6443 -0.2146 -0.3967
  161SOPE  H15S18040   5.583   6.213   8.806  0.0801 -0.6076 -1.2341
  161SOPE  C21618041   5.775   6.264   8.701 -0.3873  0.1656  0.0079
  161SOPE  H16R18042   5.774   6.187   8.621  1.3318 -0.8688  0.9175
  161SOPE  H16S18043   5.879   6.283   8.734 -0.0760  1.0306 -1.3927
  161SOPE  C21718044   5.716   6.388   8.641  0.2120  0.8358  0.0297
  161SOPE  H17R18045   5.686   6.450   8.728  1.3214  0.8502  0.4199
  161SOPE  H17S18046   5.620   6.366   8.589  0.6934  0.1807 -0.6088
  161SOPE  C21818047   5.798   6.468   8.548  0.8850 -0.7276  0.5331
  161SOPE  H18R18048   5.887   6.515   8.596  0.2792  0.7252  0.2778
  161SOPE  H18S18049   5.739   6.550   8.504 -1.1345 -1.0396  2.4918
  161SOPE  H18T18050   5.858   6.409   8.475  1.4751  0.0651  0.3609
  161SOPE   C3318051   5.219   6.869   9.949 -0.0235  0.6055  0.3190
  161SOPE   H3X18052   5.305   6.800   9.953 -0.4201  0.1419  0.8202
  161SOPE   H3Y18053   5.259   6.973   9.948  0.1461  0.5733 -1.8076
  161SOPE   C3418054   5.149   6.840   9.816  0.0303  0.5813  0.1830
  161SOPE   H4X18055   5.065   6.912   9.819 -3.3329 -3.0087  1.1768
  161SOPE   H4Y18056   5.080   6.753   9.818 -0.8281  1.1587 -1.8769
  161SOPE   C3518057   5.233   6.831   9.690 -0.2607 -0.0947 -0.0289
  161SOPE   H5X18058   5.315   6.763   9.720  0.0087  0.5091  0.6336
  161SOPE   H5Y18059   5.284   6.929   9.680 -0.9188  0.3202  0.6081
  161SOPE   C3618060   5.163   6.788   9.568  0.1895  0.0687  0.8378
  161SOPE   H6X18061   5.067   6.840   9.547 -0.3484 -1.2292  0.0131
  161SOPE   H6Y18062   5.140   6.681   9.582  0.5908 -0.1360 -0.0323
  161SOPE   C3718063   5.246   6.801   9.438  0.8106 -0.6388  0.0677
  161SOPE   H7X18064   5.346   6.753   9.449  1.5732  0.8148 -0.3251
  161SOPE   H7Y18065   5.260   6.911   9.439 -0.9500 -0.3742 -0.1705
  161SOPE   C3818066   5.172   6.760   9.305  0.4589  0.1790 -0.4998
  161SOPE   H8X18067   5.087   6.830   9.294  0.2688 -0.2011 -1.5983
  161SOPE   H8Y18068   5.125   6.663   9.334  0.9154 -0.0469 -0.4941
  161SOPE   C3918069   5.266   6.729   9.186  0.4251 -0.1410 -0.0508
  161SOPE   H9X18070   5.343   6.665   9.235  0.3991  1.5608  2.3493
  161SOPE   H9Y18071   5.306   6.823   9.142 -2.1770 -0.3199 -3.2063
  161SOPE  C31018072   5.189   6.648   9.073  0.6344 -0.1041  1.1964
  161SOPE  H10X18073   5.109   6.709   9.025  0.8296 -0.1018  0.8687
  161SOPE  H10Y18074   5.151   6.554   9.118  0.8908 -0.4766  0.6447
  161SOPE  C31118075   5.274   6.596   8.958 -0.3145 -0.4321 -0.3899
  161SOPE  H11X18076   5.376   6.554   8.974  0.7009  0.9693 -2.6847
  161SOPE  H11Y18077   5.294   6.678   8.886  1.5578  0.0827  0.6613
  161SOPE  C31218078   5.194   6.489   8.885  0.0023  0.0211 -0.2245
  161SOPE  H12X18079   5.085   6.508   8.884 -0.0337 -0.1444  0.4120
  161SOPE  H12Y18080   5.187   6.396   8.945 -0.4253  0.5665  0.5884
  161SOPE  C31318081   5.241   6.471   8.738 -0.9015  0.2022  1.0357
  161SOPE  H13X18082   5.351   6.456   8.734 -1.1377 -1.4708 -1.1830
  161SOPE  H13Y18083   5.218   6.557   8.672  0.1945 -1.4804 -1.7235
  161SOPE  C31418084   5.183   6.352   8.667  0.3565  0.4845  0.8171
  161SOPE  H14X18085   5.072   6.358   8.669  0.3369  0.0601  2.3945
  161SOPE  H14Y18086   5.212   6.254   8.710 -3.2116 -1.8142 -1.4798
  161SOPE  C31518087   5.230   6.337   8.519  0.1076 -0.0619 -0.2368
  161SOPE  H15X18088   5.337   6.310   8.513  0.1367  0.1483 -0.6757
  161SOPE  H15Y18089   5.220   6.425   8.452 -1.7139 -0.5021 -0.6022
  161SOPE  C31618090   5.148   6.229   8.432 -0.0698  0.1183  0.3758
  161SOPE  H16X18091   5.045   6.270   8.443  0.8230  2.0914  1.9579
  161SOPE  H16Y18092   5.150   6.126   8.474 -3.3217 -0.5047 -0.6437
  161SOPE  C31718093   5.198   6.239   8.288  0.0419  0.5503 -0.2595
  161SOPE  H17X18094   5.306   6.216   8.298 -0.2583 -0.7840  0.1850
  161SOPE  H17Y18095   5.181   6.343   8.254 -1.7488  1.6192  3.3707
  161SOPE  C31818096   5.141   6.138   8.188 -0.1409  0.4187 -0.0045
  161SOPE  H18X18097   5.162   6.034   8.222  1.7287 -0.0136 -2.2555
  161SOPE  H18Y18098   5.177   6.160   8.086  0.9037 -2.2039 -0.2760
  161SOPE  H18Z18099   5.032   6.157   8.196 -0.3047  0.4099 -1.9145
  162SOPE     N18100   3.468   6.608  11.194  0.6047  0.4824  0.0954
  162SOPE   HN118101   3.529   6.631  11.113 -2.2769  2.1007 -1.8016
  162SOPE   HN218102   3.526   6.614  11.280  0.4713 -0.3305  0.2496
  162SOPE   HN318103   3.431   6.510  11.194 -1.5632  1.2515  0.5659
  162SOPE   C1218104   3.361   6.715  11.200 -0.7456  0.0969 -1.1242
  162SOPE  H12A18105   3.411   6.805  11.241 -0.6645 -0.7467  0.7191
  162SOPE  H12B18106   3.295   6.688  11.285  2.0263 -1.1136  0.7913
  162SOPE   C1118107   3.297   6.745  11.070 -0.3258  0.1384  0.0049
  162SOPE  H11A18108   3.371   6.780  10.994  0.6639 -0.1409  0.8144
  162SOPE  H11B18109   3.216   6.815  11.100 -0.4831 -0.7280  1.7495
  162SOPE     P18110   3.112   6.605  10.946 -0.2114  0.1564 -0.4420
  162SOPE   O1318111   3.014   6.688  11.020  0.7308 -0.4489 -0.5163
  162SOPE   O1418112   3.082   6.458  10.930 -0.4985 -0.2635 -0.2219
  162SOPE   O1218113   3.253   6.614  11.013  0.1597 -0.0955 -0.2993
  162SOPE   O1118114   3.138   6.676  10.806  0.3149  0.2822  0.1618
  162SOPE    C118115   3.265   6.677  10.740  0.1761  0.5482 -0.6875
  162SOPE    HA18116   3.327   6.589  10.769  0.0230  0.9649  0.9600
  162SOPE    HB18117   3.324   6.767  10.765 -0.1825  0.8391 -0.8821
  162SOPE    C218118   3.239   6.673  10.593 -0.2554 -0.2805 -0.2601
  162SOPE    HS18119   3.331   6.681  10.531 -1.9444  1.3732 -2.7654
  162SOPE   O2118120   3.142   6.765  10.555 -0.7286  0.1691  0.0117
  162SOPE   C2118121   3.165   6.891  10.554  0.4903 -0.6684  0.3808
  162SOPE   O2218122   3.271   6.941  10.592  0.0571  0.0365 -0.5602
  162SOPE   C2218123   3.037   6.972  10.517 -0.2016  0.6956 -0.1452
  162SOPE   H2R18124   3.013   7.034  10.606 -0.6120 -1.5182  1.3669
  162SOPE   H2S18125   2.952   6.905  10.492  0.4924  0.2120 -1.3115
  162SOPE    C318126   3.174   6.534  10.554 -0.0313 -0.1394 -0.4281
  162SOPE    HX18127   3.086   6.534  10.622  0.0284 -0.2590 -0.3500
  162SOPE    HY18128   3.247   6.456  10.588  0.0861 -0.1053 -0.6046
  162SOPE   O3118129   3.137   6.514  10.418  0.6012  0.1789  0.2900
  162SOPE   C3118130   3.223   6.493  10.326  0.2274 -0.5589  0.0826
  162SOPE   O3218131   3.343   6.494  10.344 -0.3089 -0.3457 -0.6580
  162SOPE   C3218132   3.152   6.459  10.195  0.2499 -0.5547 -0.8805
  162SOPE   H2X18133   3.041   6.460  10.204  0.2369 -0.7085 -1.0324
  162SOPE   H2Y18134   3.182   6.356  10.166 -2.4431 -1.7518  0.2256
  162SOPE   C2318135   3.046   7.075  10.401  0.1566  0.2241 -0.2460
  162SOPE   H3R18136   3.119   7.155  10.426 -0.1455  0.0251  1.3559
  162SOPE   H3S18137   2.947   7.126  10.392  0.3401  0.5304 -0.5678
  162SOPE   C2418138   3.071   7.016  10.269 -0.1624 -0.0998 -0.3925
  162SOPE   H4R18139   2.990   6.942  10.253 -1.6066  1.8166 -2.4298
  162SOPE   H4S18140   3.050   7.095  10.195 -0.0547  0.3687  0.0714
  162SOPE   C2518141   3.206   6.959  10.235  0.1587 -0.4294  0.4749
  162SOPE   H5R18142   3.294   7.021  10.264  2.7658 -2.8419 -1.7015
  162SOPE   H5S18143   3.223   6.858  10.277  1.6086  0.0816  1.1818
  162SOPE   C2618144   3.234   6.950  10.075 -0.9228  0.0429  0.8180
  162SOPE   H6R18145   3.318   6.877  10.067 -1.0243  0.1215 -1.4105
  162SOPE   H6S18146   3.141   6.915  10.026 -1.1307  0.3195  1.0141
  162SOPE   C2718147   3.270   7.080  10.006 -0.1875  0.1182  0.4409
  162SOPE   H7R18148   3.192   7.154  10.036  0.2378  0.0278  1.8564
  162SOPE   H7S18149   3.365   7.109  10.056 -0.8518 -1.2848  2.7080
  162SOPE   C2818150   3.259   7.074   9.854  0.4816  0.6525 -0.0946
  162SOPE   H8R18151   3.312   6.983   9.820 -0.7122  0.9323 -2.9901
  162SOPE   H8S18152   3.152   7.054   9.828  1.1794 -2.4565 -1.0259
  162SOPE   C2918153   3.303   7.198   9.785 -0.0809  0.2493  0.0941
  162SOPE   H9118154   3.380   7.257   9.835 -1.6135  2.3579  0.0959
  162SOPE  C21018155   3.257   7.240   9.669  0.3945 -0.2054  0.4452
  162SOPE  H10118156   3.298   7.336   9.632 -2.0914  2.4165  3.7994
  162SOPE  C21118157   3.140   7.184   9.583  0.5344 -0.8354 -0.1132
  162SOPE  H11R18158   3.045   7.181   9.641  0.1283  0.1618 -0.7007
  162SOPE  H11S18159   3.173   7.079   9.572  0.3519 -1.0832  1.4766
  162SOPE  C21218160   3.110   7.238   9.438  0.2376  0.7947  0.0863
  162SOPE  H12R18161   3.084   7.344   9.454  0.4326  0.9289 -0.4892
  162SOPE  H12S18162   3.016   7.189   9.407  0.6006  1.1406 -1.6329
  162SOPE  C21318163   3.223   7.217   9.337  0.3213 -0.7946 -1.0270
  162SOPE  H13R18164   3.243   7.108   9.329 -3.0438 -1.4338 -2.2910
  162SOPE  H13S18165   3.317   7.272   9.359 -0.0819  0.0712 -1.3933
  162SOPE  C21418166   3.181   7.254   9.198  0.0899  0.2864 -0.4612
  162SOPE  H14R18167   3.129   7.352   9.191  2.1635  1.3740 -1.7986
  162SOPE  H14S18168   3.115   7.172   9.163 -1.6848  0.5447  2.0441
  162SOPE  C21518169   3.309   7.271   9.109 -0.0083 -0.7991 -0.4779
  162SOPE  H15R18170   3.376   7.184   9.122  0.3896 -0.3656  0.4133
  162SOPE  H15S18171   3.370   7.355   9.147 -3.1882 -0.0881  3.7668
  162SOPE  C21618172   3.279   7.272   8.956 -0.9554 -0.1200  0.6866
  162SOPE  H16R18173   3.330   7.358   8.908 -2.0929 -0.8398 -1.9555
  162SOPE  H16S18174   3.172   7.301   8.940 -0.8192 -0.4036 -0.8941
  162SOPE  C21718175   3.309   7.138   8.879 -0.1125  0.0805 -0.3322
  162SOPE  H17R18176   3.250   7.054   8.923 -0.5505 -0.2079 -1.4480
  162SOPE  H17S18177   3.418   7.119   8.879 -0.2043 -0.4659 -1.0768
  162SOPE  C21818178   3.271   7.154   8.731 -0.2903  0.3132 -0.9730
  162SOPE  H18R18179   3.307   7.060   8.684  1.6201 -0.0762  1.0799
  162SOPE  H18S18180   3.317   7.237   8.674 -0.8613  1.9192  0.7983
  162SOPE  H18T18181   3.161   7.164   8.740 -0.2962 -0.9850  1.5858
  162SOPE   C3318182   3.192   6.557  10.085  0.1847  0.1573  0.3495
  162SOPE   H3X18183   3.301   6.580  10.087  0.5191 -1.3204  1.2133
  162SOPE   H3Y18184   3.130   6.648  10.097  1.2709  1.1680 -1.3687
  162SOPE   C3418185   3.169   6.497   9.945 -0.0030  0.2438 -0.3466
  162SOPE   H4X18186   3.060   6.484   9.933 -0.3289  0.5334  1.9723
  162SOPE   H4Y18187   3.229   6.403   9.943 -0.7765 -0.2667 -0.1256
  162SOPE   C3518188   3.202   6.602   9.838 -0.0070  0.4513  0.3513
  162SOPE   H5X18189   3.307   6.636   9.853  0.6886 -1.4250  0.1452
  162SOPE   H5Y18190   3.137   6.690   9.855 -1.2981 -0.6530  1.3042
  162SOPE   C3618191   3.198   6.557   9.690 -0.2514 -0.0945  0.3915
  162SOPE   H6X18192   3.090   6.540   9.672  0.1997 -2.7712 -0.1055
  162SOPE   H6Y18193   3.257   6.464   9.677 -0.0638  0.0421  0.2628
  162SOPE   C3718194   3.239   6.653   9.572  0.1906  0.2594  0.1779
  162SOPE   H7X18195   3.346   6.680   9.590  0.6730 -2.2278  1.4438
  162SOPE   H7Y18196   3.177   6.745   9.581  0.1979  0.0666  2.7568
  162SOPE   C3818197   3.214   6.609   9.428  0.3636  0.1688 -0.2042
  162SOPE   H8X18198   3.271   6.515   9.412 -1.3702 -0.6720 -1.8764
  162SOPE   H8Y18199   3.248   6.688   9.358 -2.0308  1.8620  0.4071
  162SOPE   C3918200   3.070   6.582   9.390 -0.4619  0.8496 -0.8099
  162SOPE   H9X18201   2.998   6.638   9.453 -0.1365 -2.1786  2.5626
  162SOPE   H9Y18202   3.054   6.473   9.402  2.4639  0.4626  0.4573
  162SOPE  C31018203   3.034   6.608   9.244  0.0491 -0.4931  0.1693
  162SOPE  H10X18204   3.038   6.719   9.233 -3.0024 -0.4414 -1.8313
  162SOPE  H10Y18205   2.925   6.595   9.229 -0.7675  2.5566  2.5208
  162SOPE  C31118206   3.126   6.555   9.137 -0.3618 -0.2794 -0.3193
  162SOPE  H11X18207   3.103   6.450   9.108  1.5390 -0.3627 -1.7012
  162SOPE  H11Y18208   3.225   6.537   9.185  0.3446  1.2278 -1.1512
  162SOPE  C31218209   3.128   6.641   9.008  0.1029 -0.6408  0.1929
  162SOPE  H12X18210   3.138   6.746   9.043 -1.7342  0.0530 -1.2385
  162SOPE  H12Y18211   3.029   6.644   8.960  0.2511 -1.0610 -0.1453
  162SOPE  C31318212   3.242   6.601   8.910 -0.0223  0.4559 -0.9337
  162SOPE  H13X18213   3.254   6.491   8.918 -1.4603  0.2973 -0.6956
  162SOPE  H13Y18214   3.339   6.649   8.935  0.2631  0.1209 -1.3965
  162SOPE  C31418215   3.195   6.642   8.771 -0.0251  0.0389  0.4599
  162SOPE  H14X18216   3.113   6.568   8.762  0.4540 -0.6459  1.6148
  162SOPE  H14Y18217   3.279   6.611   8.705  1.5625  0.9814  1.9418
  162SOPE  C31518218   3.158   6.785   8.755 -0.1203  0.3126 -0.8367
  162SOPE  H15X18219   3.242   6.853   8.781  0.0899  0.4423 -1.8309
  162SOPE  H15Y18220   3.074   6.802   8.826 -0.5663  0.6304 -1.4266
  162SOPE  C31618221   3.106   6.828   8.612  0.1721 -0.2921  0.3416
  162SOPE  H16X18222   3.076   6.934   8.622 -0.3191 -0.5898  2.4239
  162SOPE  H16Y18223   3.013   6.770   8.593 -1.3907  2.0392  0.5868
  162SOPE  C31718224   3.206   6.794   8.495  0.4845  0.4122 -0.4122
  162SOPE  H17X18225   3.212   6.684   8.480 -0.1834  0.2596  0.3645
  162SOPE  H17Y18226   3.309   6.820   8.527  0.0025 -0.3210  1.9428
  162SOPE  C31818227   3.183   6.882   8.375 -0.6748 -0.7897  0.6142
  162SOPE  H18X18228   3.086   6.859   8.325 -2.3485  1.7494  2.4267
  162SOPE  H18Y18229   3.265   6.874   8.301 -1.6341 -1.1614 -0.4414
  162SOPE  H18Z18230   3.184   6.989   8.405 -0.0799 -0.4216 -0.6337
  163SOPE     N18231   5.544   4.965  10.546  0.4621 -0.7351 -0.1484
  163SOPE   HN118232   5.520   5.010  10.456 -1.1426  3.3741  2.0463
  163SOPE   HN218233   5.646   4.955  10.564  0.6336  0.2543 -0.4982
  163SOPE   HN318234   5.499   4.871  10.551  1.8888 -1.5149 -1.2486
  163SOPE   C1218235   5.485   5.054  10.649  0.7985 -0.3238  0.6088
  163SOPE  H12A18236   5.515   5.158  10.621  0.6652 -0.9877 -2.3676
  163SOPE  H12B18237   5.516   5.026  10.752 -1.1850  0.4074  1.4588
  163SOPE   C1118238   5.333   5.049  10.649 -0.3294  0.1844  1.2701
  163SOPE  H11A18239   5.284   5.070  10.551  1.6018 -2.4042 -0.3854
  163SOPE  H11B18240   5.298   5.127  10.720 -0.8721  1.4962 -0.3707
  163SOPE     P18241   5.134   4.905  10.734 -0.5720  0.0137  0.3465
  163SOPE   O1318242   5.045   4.908  10.616  0.5148 -0.2092  0.4420
  163SOPE   O1418243   5.101   4.996  10.845  0.1664  0.4171 -0.2497
  163SOPE   O1218244   5.286   4.918  10.693 -0.6108  0.2631  0.7742
  163SOPE   O1118245   5.137   4.751  10.785  0.1307  0.0881 -0.0985
  163SOPE    C118246   5.221   4.657  10.729 -0.3193  0.9004 -0.7352
  163SOPE    HA18247   5.220   4.569  10.796 -0.5609 -0.4958 -2.4965
  163SOPE    HB18248   5.326   4.691  10.715  0.1874  0.1429  0.9996
  163SOPE    C218249   5.187   4.605  10.588  0.4081  0.3245 -0.2566
  163SOPE    HS18250   5.230   4.665  10.504 -0.8050  1.1424 -0.3187
  163SOPE   O2118251   5.044   4.596  10.578 -0.1337  0.5805  0.0617
  163SOPE   C2118252   4.989   4.600  10.459 -0.3226  0.3662  0.6566
  163SOPE   O2218253   5.036   4.635  10.352  0.1868 -0.0686 -0.2855
  163SOPE   C2218254   4.837   4.566  10.468  1.0995 -0.2234 -0.5622
  163SOPE   H2R18255   4.763   4.642  10.434  2.1513  0.6717 -0.9255
  163SOPE   H2S18256   4.823   4.550  10.577  0.2231  0.8998 -0.4839
  163SOPE    C318257   5.244   4.465  10.554  0.3042  0.2527 -0.4667
  163SOPE    HX18258   5.201   4.390  10.624 -0.1904 -0.8493 -1.8941
  163SOPE    HY18259   5.351   4.457  10.580  0.9233 -0.6037 -2.9953
  163SOPE   O3118260   5.217   4.416  10.423  0.1788 -0.0271  0.0748
  163SOPE   C3118261   5.302   4.458  10.326  0.7473  0.1475  0.7213
  163SOPE   O3218262   5.401   4.523  10.346  0.3115 -0.9150  0.0205
  163SOPE   C3218263   5.242   4.417  10.190 -0.4671 -0.4754  0.9323
  163SOPE   H2X18264   5.140   4.377  10.208 -1.5488  1.4567 -0.4964
  163SOPE   H2Y18265   5.311   4.337  10.156  1.5233  1.1413  0.9242
  163SOPE   C2318266   4.805   4.426  10.406 -0.8343  0.0711  0.3700
  163SOPE   H3R18267   4.701   4.391  10.429 -0.9073 -2.0904 -2.5811
  163SOPE   H3S18268   4.872   4.347  10.446 -1.0413 -0.1076  0.3669
  163SOPE   C2418269   4.817   4.426  10.255 -0.1529  0.0396  0.8593
  163SOPE   H4R18270   4.738   4.488  10.208  0.8629  0.0757 -0.9030
  163SOPE   H4S18271   4.913   4.460  10.211 -0.1708 -0.0730  0.7314
  163SOPE   C2518272   4.796   4.285  10.200 -0.7774 -0.2391  0.2302
  163SOPE   H5R18273   4.881   4.224  10.237  0.6523  2.4138  1.6075
  163SOPE   H5S18274   4.699   4.243  10.234 -1.5303  2.0938  1.1990
  163SOPE   C2618275   4.793   4.280  10.045 -0.1253 -0.1218  0.2792
  163SOPE   H6R18276   4.707   4.337  10.003 -0.0608 -3.2472 -4.9904
  163SOPE   H6S18277   4.887   4.300   9.990  0.0983  3.3331  1.6580
  163SOPE   C2718278   4.753   4.134   9.998 -0.2914  0.3363  0.3391
  163SOPE   H7R18279   4.838   4.063  10.004 -0.1534  0.5855  1.5416
  163SOPE   H7S18280   4.680   4.080  10.063  0.1821 -2.0359 -0.9618
  163SOPE   C2818281   4.708   4.136   9.849  0.3724 -0.4262 -0.7840
  163SOPE   H8R18282   4.689   4.030   9.821  0.1938 -0.9869  1.2849
  163SOPE   H8S18283   4.620   4.203   9.848  0.8401  0.1921 -1.0907
  163SOPE   C2918284   4.821   4.191   9.766  0.7433  0.5828 -0.7336
  163SOPE   H9118285   4.859   4.293   9.786  2.6531 -0.3412  0.6252
  163SOPE  C21018286   4.879   4.135   9.661  0.5314  0.5822 -0.5135
  163SOPE  H10118287   4.943   4.198   9.597 -0.7282  1.0176 -1.4028
  163SOPE  C21118288   4.841   4.005   9.596 -0.1266 -0.0995 -0.6341
  163SOPE  H11R18289   4.797   3.936   9.672  1.6214 -1.6423 -0.9365
  163SOPE  H11S18290   4.937   3.960   9.561  1.4775  1.8669  0.9972
  163SOPE  C21218291   4.744   4.014   9.475 -0.6145 -0.3135 -0.4378
  163SOPE  H12R18292   4.648   4.053   9.518 -1.3874 -0.3162 -2.0661
  163SOPE  H12S18293   4.726   3.912   9.436  2.2604 -1.3488  0.7175
  163SOPE  C21318294   4.777   4.117   9.355 -0.3081 -0.3021 -0.4652
  163SOPE  H13R18295   4.874   4.088   9.310  0.0054  0.3714 -0.2450
  163SOPE  H13S18296   4.799   4.219   9.393  0.1056 -0.1912 -0.9842
  163SOPE  C21418297   4.677   4.123   9.239  0.6973 -0.1427 -0.8538
  163SOPE  H14R18298   4.591   4.186   9.269  0.9666 -1.2078  2.7365
  163SOPE  H14S18299   4.633   4.023   9.220 -1.3854  0.8032 -1.2550
  163SOPE  C21518300   4.710   4.204   9.116  0.5820 -0.4201 -0.6832
  163SOPE  H15R18301   4.794   4.177   9.049 -0.7552 -2.1378 -1.7496
  163SOPE  H15S18302   4.727   4.305   9.159 -0.5553 -1.0324  1.3190
  163SOPE  C21618303   4.596   4.225   9.020 -0.2904  0.7828  0.1616
  163SOPE  H16R18304   4.498   4.226   9.073 -0.1034 -4.1338  1.0313
  163SOPE  H16S18305   4.583   4.138   8.951 -0.3715  0.5518  0.4643
  163SOPE  C21718306   4.617   4.344   8.931  0.2277 -0.8474  0.1107
  163SOPE  H17R18307   4.716   4.336   8.881  0.8608 -0.5968  1.2889
  163SOPE  H17S18308   4.634   4.436   8.991  0.6922  0.6688 -2.2187
  163SOPE  C21818309   4.501   4.365   8.834  0.8690 -0.0281 -0.5648
  163SOPE  H18R18310   4.503   4.466   8.787 -2.1140  0.6577  0.5364
  163SOPE  H18S18311   4.401   4.368   8.883  0.8930 -0.7413 -0.4571
  163SOPE  H18T18312   4.504   4.284   8.757 -0.2030 -0.7771  0.1591
  163SOPE   C3318313   5.239   4.534  10.085  0.8927 -0.5294 -0.6091
  163SOPE   H3X18314   5.339   4.581  10.074 -0.0781  1.3212 -1.9989
  163SOPE   H3Y18315   5.175   4.614  10.128 -1.2409 -2.3730 -0.1195
  163SOPE   C3418316   5.190   4.495   9.953 -1.1270  0.3322  0.4393
  163SOPE   H4X18317   5.181   4.582   9.884 -0.8940 -0.5297 -0.7061
  163SOPE   H4Y18318   5.089   4.449   9.961 -1.3736  1.1047  2.5233
  163SOPE   C3518319   5.279   4.390   9.880 -0.0943  0.0627  0.1669
  163SOPE   H5X18320   5.248   4.291   9.919 -0.0842 -0.4521 -1.0857
  163SOPE   H5Y18321   5.387   4.401   9.901 -0.2741  0.9216  0.6980
  163SOPE   C3618322   5.255   4.385   9.724  0.0382  0.2377  0.0644
  163SOPE   H6X18323   5.144   4.388   9.712 -0.1315 -1.7118  0.8838
  163SOPE   H6Y18324   5.290   4.289   9.681  1.6203  0.2995  1.1392
  163SOPE   C3718325   5.327   4.497   9.657 -0.0707  0.0723  0.0151
  163SOPE   H7X18326   5.432   4.473   9.685 -0.5820  1.0363  3.1372
  163SOPE   H7Y18327   5.316   4.599   9.701  0.6579 -0.1803  0.8294
  163SOPE   C3818328   5.292   4.513   9.508 -0.6131 -0.1582 -0.2839
  163SOPE   H8X18329   5.328   4.613   9.475 -0.7671  0.2998  0.8847
  163SOPE   H8Y18330   5.182   4.510   9.491 -0.5244 -0.1367 -0.8794
  163SOPE   C3918331   5.342   4.404   9.412 -0.0980 -0.4704 -0.6110
  163SOPE   H9X18332   5.300   4.308   9.451 -0.6332  1.0098  2.8013
  163SOPE   H9Y18333   5.452   4.418   9.403 -0.5866  2.3066 -4.7332
  163SOPE  C31018334   5.286   4.415   9.266 -0.0763 -0.1740  0.4521
  163SOPE  H10X18335   5.301   4.520   9.234  3.3807 -1.0517 -1.3277
  163SOPE  H10Y18336   5.175   4.403   9.264 -0.2440  1.2748 -1.4967
  163SOPE  C31118337   5.373   4.331   9.170  0.6436 -0.1075 -0.1971
  163SOPE  H11X18338   5.370   4.227   9.209  0.3819  0.7511  2.2686
  163SOPE  H11Y18339   5.481   4.356   9.165  0.0964  2.3006 -1.2154
  163SOPE  C31218340   5.324   4.316   9.025 -0.3041  0.2713 -0.0892
  163SOPE  H12X18341   5.239   4.246   9.009 -0.1279  0.2876 -1.2122
  163SOPE  H12Y18342   5.410   4.260   8.981  0.5493  0.0496  1.7521
  163SOPE  C31318343   5.304   4.448   8.950  1.0309  0.0982 -0.4216
  163SOPE  H13X18344   5.387   4.517   8.976  0.6587 -0.1866  1.7506
  163SOPE  H13Y18345   5.215   4.507   8.982 -0.0110 -1.0276 -1.1672
  163SOPE  C31418346   5.291   4.436   8.798  0.0843 -0.0579 -0.3401
  163SOPE  H14X18347   5.262   4.538   8.765 -0.0798  0.6546  1.8719
  163SOPE  H14Y18348   5.216   4.357   8.776  1.5516 -1.5291 -0.2609
  163SOPE  C31518349   5.417   4.390   8.726 -0.0837 -0.1370 -0.1581
  163SOPE  H15X18350   5.454   4.300   8.780  1.1499 -0.6705 -1.8271
  163SOPE  H15Y18351   5.503   4.460   8.736  0.3042 -0.5983 -0.2745
  163SOPE  C31618352   5.400   4.361   8.582 -0.2536 -0.3282  0.2737
  163SOPE  H16X18353   5.352   4.440   8.521  1.6491 -0.6767 -1.8016
  163SOPE  H16Y18354   5.337   4.270   8.573 -0.6931 -0.0653  0.6376
  163SOPE  C31718355   5.541   4.328   8.521  0.0346 -0.2107 -0.1213
  163SOPE  H17X18356   5.576   4.232   8.565 -1.5857 -1.5468 -1.6125
  163SOPE  H17Y18357   5.619   4.402   8.548  0.8671 -1.2741  0.4923
  163SOPE  C31818358   5.536   4.320   8.366  0.3266 -0.8029  0.5526
  163SOPE  H18X18359   5.476   4.231   8.335 -0.8291 -0.3798  1.5102
  163SOPE  H18Y18360   5.640   4.312   8.326  0.8120 -0.2747  1.6889
  163SOPE  H18Z18361   5.479   4.405   8.322 -2.6248 -3.1231 -0.4629
  164SOPE     N18362   5.081   1.561  10.558 -0.2403  0.6727 -0.4708
  164SOPE   HN118363   5.114   1.475  10.606  2.0877  1.3878 -0.6820
  164SOPE   HN218364   4.983   1.535  10.533 -0.4698 -1.3695  2.0985
  164SOPE   HN318365   5.149   1.573  10.480  1.0378  1.4537  0.7305
  164SOPE   C1218366   5.093   1.680  10.641  0.2474  0.4795 -0.6001
  164SOPE  H12A18367   5.054   1.650  10.741  1.2829  1.8662  0.2606
  164SOPE  H12B18368   5.025   1.757  10.597 -0.2328 -0.1325 -0.9404
  164SOPE   C1118369   5.241   1.728  10.644  0.1772  0.1396 -0.1868
  164SOPE  H11A18370   5.246   1.810  10.719 -2.0313  0.0353  0.1460
  164SOPE  H11B18371   5.274   1.756  10.542 -0.6487 -0.9603 -0.7741
  164SOPE     P18372   5.474   1.656  10.741  0.0101 -0.2043 -0.2414
  164SOPE   O1318373   5.520   1.531  10.806 -0.4552 -0.0553  0.7076
  164SOPE   O1418374   5.480   1.784  10.813 -0.3156  0.1792 -0.5619
  164SOPE   O1218375   5.328   1.623  10.692  0.1759 -0.0136  0.6084
  164SOPE   O1118376   5.546   1.671  10.600  0.0933 -0.0654 -0.1561
  164SOPE    C118377   5.517   1.580  10.489  0.1165  0.3216  0.5558
  164SOPE    HA18378   5.408   1.563  10.476  0.6881 -2.2001 -2.0231
  164SOPE    HB18379   5.567   1.481  10.497  0.6189  0.3689 -1.4763
  164SOPE    C218380   5.560   1.643  10.356  1.0526 -0.0234  0.0557
  164SOPE    HS18381   5.495   1.586  10.286 -0.7315 -0.9320  2.3097
  164SOPE   O2118382   5.690   1.602  10.337 -0.5661  0.6825 -0.3938
  164SOPE   C2118383   5.731   1.592  10.214 -1.0775 -0.5471  0.5787
  164SOPE   O2218384   5.664   1.613  10.119 -0.0097  0.2511  0.1079
  164SOPE   C2218385   5.877   1.542  10.221  0.0954 -0.1688  0.3127
  164SOPE   H2R18386   5.881   1.439  10.263  0.0971  0.0020  0.7395
  164SOPE   H2S18387   5.928   1.601  10.299  0.4472 -1.5330  1.1505
  164SOPE    C318388   5.546   1.803  10.350 -0.2926  0.7239  0.0679
  164SOPE    HX18389   5.636   1.831  10.408 -0.0571 -0.6692  0.4032
  164SOPE    HY18390   5.457   1.833  10.410  1.9299  1.4357  3.2695
  164SOPE   O3118391   5.549   1.864  10.220  0.0355 -0.0142  0.3410
  164SOPE   C3118392   5.448   1.837  10.133  0.0392 -0.0129 -0.1331
  164SOPE   O3218393   5.346   1.785  10.166  0.8473 -0.0400 -0.4307
  164SOPE   C3218394   5.504   1.858   9.996  0.5776 -0.8805 -0.4235
  164SOPE   H2X18395   5.599   1.801   9.995  0.5031 -1.0057 -0.9970
  164SOPE   H2Y18396   5.525   1.965   9.973 -1.0794 -0.2705  0.6979
  164SOPE   C2318397   5.947   1.559  10.085  0.0934  0.2778  0.1947
  164SOPE   H3R18398   6.051   1.541  10.119 -0.3895 -0.1784  1.4924
  164SOPE   H3S18399   5.942   1.665  10.052 -0.7754 -0.4272 -2.1972
  164SOPE   C2418400   5.894   1.466   9.983  0.0796 -0.4553  0.1475
  164SOPE   H4R18401   5.876   1.363  10.019 -0.6288  0.0300  1.2518
  164SOPE   H4S18402   5.795   1.501   9.948  0.1315 -0.7618 -0.3128
  164SOPE   C2518403   5.985   1.469   9.859  0.3159  0.7908  0.0819
  164SOPE   H5R18404   5.967   1.564   9.803  0.2249 -0.0544 -1.3893
  164SOPE   H5S18405   6.090   1.462   9.894  0.7652 -2.6993 -1.5503
  164SOPE   C2618406   5.967   1.339   9.772 -0.1528 -0.2439 -0.5072
  164SOPE   H6R18407   5.984   1.253   9.840  0.5328 -0.3856 -0.8452
  164SOPE   H6S18408   5.860   1.333   9.745 -0.3387  1.2607 -0.1666
  164SOPE   C2718409   6.056   1.335   9.646  0.0300  0.1137 -0.1811
  164SOPE   H7R18410   6.041   1.427   9.586  1.3327 -1.8050 -3.7531
  164SOPE   H7S18411   6.167   1.335   9.660  0.6706  2.2105 -3.9827
  164SOPE   C2818412   6.030   1.216   9.551 -0.4837  0.5164  0.5000
  164SOPE   H8R18413   6.109   1.203   9.474 -2.3951  0.8925 -1.6438
  164SOPE   H8S18414   6.037   1.125   9.614  2.2182  0.1385 -0.2471
  164SOPE   C2918415   5.895   1.231   9.475 -0.7211 -0.0791  0.3653
  164SOPE   H9118416   5.893   1.312   9.400 -2.8497 -0.3105  0.1042
  164SOPE  C21018417   5.786   1.162   9.498  0.3566  0.3252 -0.2370
  164SOPE  H10118418   5.692   1.179   9.443  0.6603  0.3747 -0.7350
  164SOPE  C21118419   5.774   1.044   9.589  0.5472  0.6194  0.5039
  164SOPE  H11R18420   5.867   1.017   9.644 -0.8841 -1.1536  2.2084
  164SOPE  H11S18421   5.764   0.948   9.535  3.5036 -0.8255  2.2768
  164SOPE  C21218422   5.653   1.045   9.691 -0.5899  0.6821  0.1011
  164SOPE  H12R18423   5.625   0.938   9.697 -0.9418  0.6176 -1.9187
  164SOPE  H12S18424   5.572   1.096   9.635  0.1466  1.5033 -0.2397
  164SOPE  C21318425   5.676   1.114   9.829 -0.0620  0.0844  0.3808
  164SOPE  H13R18426   5.684   1.225   9.818 -0.5340  0.1662  0.8326
  164SOPE  H13S18427   5.776   1.084   9.865  0.1830  0.3976 -0.0227
  164SOPE  C21418428   5.565   1.073   9.929 -0.0455 -0.1462 -0.0441
  164SOPE  H14R18429   5.574   0.962   9.937  0.9549 -0.1164 -0.5580
  164SOPE  H14S18430   5.464   1.089   9.886  0.4389 -0.6082 -1.4082
  164SOPE  C21518431   5.578   1.138  10.065 -0.5230  0.3627 -0.1162
  164SOPE  H15R18432   5.479   1.127  10.115 -0.8653  0.6847 -0.7186
  164SOPE  H15S18433   5.602   1.243  10.039  0.5017  0.0847 -0.3294
  164SOPE  C21618434   5.690   1.077  10.156 -0.4716 -0.5386  0.1918
  164SOPE  H16R18435   5.790   1.083  10.107  0.5838 -0.3647  2.2571
  164SOPE  H16S18436   5.675   0.970  10.179 -0.1554 -0.9812 -1.4747
  164SOPE  C21718437   5.704   1.141  10.294 -0.3400  0.6062  0.0880
  164SOPE  H17R18438   5.610   1.138  10.353  0.1380 -0.1632  0.8260
  164SOPE  H17S18439   5.716   1.245  10.256 -0.7788 -0.0072 -1.8557
  164SOPE  C21818440   5.834   1.103  10.363 -0.5339 -0.2962  0.6083
  164SOPE  H18R18441   5.838   1.173  10.449  0.1723  1.9507 -1.1810
  164SOPE  H18S18442   5.921   1.119  10.297  0.9004 -1.4395  2.1197
  164SOPE  H18T18443   5.848   1.001  10.407  0.9997  0.0952  1.0951
  164SOPE   C3318444   5.406   1.797   9.893 -0.9109  0.1823  0.2299
  164SOPE   H3X18445   5.319   1.865   9.883  0.7425  2.5671  1.2764
  164SOPE   H3Y18446   5.383   1.698   9.939 -1.1690  0.6147  1.0484
  164SOPE   C3418447   5.485   1.753   9.770  0.1954  0.3673 -0.2359
  164SOPE   H4X18448   5.517   1.831   9.697  1.0108 -1.1638 -1.5807
  164SOPE   H4Y18449   5.423   1.686   9.706  2.2924 -1.8601 -0.0939
  164SOPE   C3518450   5.612   1.669   9.794 -0.3284  0.2338  0.7599
  164SOPE   H5X18451   5.592   1.578   9.855 -0.3651 -0.4167 -0.1900
  164SOPE   H5Y18452   5.695   1.726   9.840  0.7630 -0.0694 -0.7617
  164SOPE   C3618453   5.679   1.621   9.664  0.0339 -0.0668 -0.4576
  164SOPE   H6X18454   5.592   1.577   9.610 -1.9999 -0.4522  2.8383
  164SOPE   H6Y18455   5.744   1.538   9.700  2.1772  1.9140  0.4111
  164SOPE   C3718456   5.761   1.729   9.590  0.6618  0.5035  0.0410
  164SOPE   H7X18457   5.819   1.793   9.660 -0.4469  1.0059  0.5313
  164SOPE   H7Y18458   5.688   1.802   9.547 -0.0572  0.4075  1.0547
  164SOPE   C3818459   5.853   1.663   9.488 -0.3739 -0.3718  0.0813
  164SOPE   H8X18460   5.798   1.590   9.425 -1.0316  1.3288 -1.4048
  164SOPE   H8Y18461   5.942   1.625   9.543 -0.8209 -0.7439  0.5571
  164SOPE   C3918462   5.903   1.766   9.392  0.0465 -0.6524 -0.7365
  164SOPE   H9X18463   5.958   1.848   9.445  0.3649 -0.7662 -0.8892
  164SOPE   H9Y18464   5.816   1.823   9.352  0.3551  0.1467 -0.2995
  164SOPE  C31018465   5.979   1.712   9.273 -0.6117  0.3741 -0.3459
  164SOPE  H10X18466   5.959   1.763   9.177 -0.3554  0.1036 -0.5475
  164SOPE  H10Y18467   5.944   1.607   9.263 -1.1645  0.6445 -1.3618
  164SOPE  C31118468   6.136   1.718   9.287 -0.3056  0.1905 -0.0175
  164SOPE  H11X18469   6.159   1.702   9.395 -0.8049  0.2301  0.1005
  164SOPE  H11Y18470   6.177   1.812   9.245 -2.0659 -0.0501 -2.4584
  164SOPE  C31218471   6.214   1.604   9.206  0.3351 -0.7680 -0.5803
  164SOPE  H12X18472   6.180   1.508   9.251 -0.6078  0.2290  0.9449
  164SOPE  H12Y18473   6.320   1.635   9.212  1.6926 -4.7219 -1.2012
  164SOPE  C31318474   6.171   1.586   9.059  0.3556  0.3539 -0.0885
  164SOPE  H13X18475   6.061   1.575   9.051  0.3875  0.7571 -1.3009
  164SOPE  H13Y18476   6.231   1.497   9.030 -1.4624 -1.0823  0.3698
  164SOPE  C31418477   6.235   1.700   8.971 -0.1718  0.5439  0.2083
  164SOPE  H14X18478   6.337   1.714   9.013 -0.7271  0.5653  1.5986
  164SOPE  H14Y18479   6.185   1.796   8.995  0.1517  0.8265 -0.2423
  164SOPE  C31518480   6.247   1.672   8.824  0.1745 -0.5398  0.0704
  164SOPE  H15X18481   6.292   1.754   8.763 -0.7654 -0.5810 -0.6967
  164SOPE  H15Y18482   6.140   1.664   8.795 -1.0890  0.7790  3.8210
  164SOPE  C31618483   6.304   1.537   8.781  0.0798  0.0106  0.4423
  164SOPE  H16X18484   6.233   1.456   8.809 -0.9784 -0.6003 -3.4185
  164SOPE  H16Y18485   6.399   1.520   8.836 -1.0309  0.8567  2.7982
  164SOPE  C31718486   6.331   1.537   8.629 -0.2615 -0.3872 -0.5795
  164SOPE  H17X18487   6.398   1.624   8.610  2.3964 -2.2474 -0.2640
  164SOPE  H17Y18488   6.232   1.555   8.582 -0.3375  1.8032  0.2949
  164SOPE  C31818489   6.397   1.408   8.577  0.3741 -0.2704  0.0547
  164SOPE  H18X18490   6.345   1.315   8.608  1.2604 -0.1037  2.1423
  164SOPE  H18Y18491   6.506   1.403   8.599  0.6302 -0.6156 -1.2034
  164SOPE  H18Z18492   6.402   1.404   8.466 -3.1785  0.4309 -0.2465
  165SOPE     N18493   5.800   3.701  11.363 -0.1049 -0.4203  0.3691
  165SOPE   HN118494   5.747   3.756  11.293  1.4916  1.3648  0.4831
  165SOPE   HN218495   5.727   3.649  11.415 -2.0544  0.3993 -1.4211
  165SOPE   HN318496   5.842   3.768  11.430 -0.8584 -0.3654  0.7888
  165SOPE   C1218497   5.890   3.607  11.297 -1.0914  0.2918  0.8267
  165SOPE  H12A18498   5.898   3.523  11.369 -1.1834 -0.0632  0.4275
  165SOPE  H12B18499   5.991   3.649  11.278 -0.8225 -1.8174 -3.5814
  165SOPE   C1118500   5.845   3.569  11.152 -0.3823 -0.3774 -0.4112
  165SOPE  H11A18501   5.743   3.524  11.149 -0.4900 -0.2362  0.8184
  165SOPE  H11B18502   5.904   3.486  11.108 -1.3381 -0.1589 -2.2038
  165SOPE     P18503   5.721   3.766  11.030 -0.1925 -0.2290 -0.3161
  165SOPE   O1318504   5.759   3.885  10.957 -0.4260 -0.1766 -0.5480
  165SOPE   O1418505   5.644   3.787  11.155 -0.4774 -0.1951 -0.4055
  165SOPE   O1218506   5.854   3.681  11.069  0.8720 -0.4184 -0.7773
  165SOPE   O1118507   5.642   3.670  10.934  0.8568 -0.1585 -0.2046
  165SOPE    C118508   5.718   3.599  10.839 -0.5808 -0.1746 -0.2464
  165SOPE    HA18509   5.732   3.494  10.875  0.4800 -0.7284 -2.1449
  165SOPE    HB18510   5.813   3.652  10.820 -0.9208 -0.1169 -1.9644
  165SOPE    C218511   5.633   3.604  10.703 -0.2923 -0.2148  0.2700
  165SOPE    HS18512   5.690   3.550  10.625 -1.2292 -0.6811 -0.1059
  165SOPE   O2118513   5.589   3.731  10.668  0.2442  0.1499 -0.1062
  165SOPE   C2118514   5.691   3.811  10.623  0.1049  0.2601  0.0682
  165SOPE   O2218515   5.807   3.775  10.613 -0.1088 -0.7460 -0.6041
  165SOPE   C2218516   5.635   3.944  10.578 -0.9517 -0.4804  0.3955
  165SOPE   H2R18517   5.718   4.017  10.580 -0.8910 -0.5595  0.9125
  165SOPE   H2S18518   5.556   3.984  10.645 -0.1162  0.0774  1.0802
  165SOPE    C318519   5.510   3.515  10.713 -0.2171 -0.0774  0.6809
  165SOPE    HX18520   5.443   3.560  10.788 -0.7989  1.7032 -0.8514
  165SOPE    HY18521   5.548   3.414  10.743  0.6968  0.1962  0.4690
  165SOPE   O3118522   5.446   3.493  10.589  0.0323  0.2175  1.2562
  165SOPE   C3118523   5.320   3.458  10.597 -0.5125 -0.1637  0.0132
  165SOPE   O3218524   5.255   3.440  10.698 -0.6543 -0.3403  0.5421
  165SOPE   C3218525   5.267   3.414  10.459  0.6096  1.0230  0.8751
  165SOPE   H2X18526   5.323   3.324  10.428 -1.9165 -0.6384  0.8047
  165SOPE   H2Y18527   5.283   3.500  10.392  1.7022 -1.2609 -1.9914
  165SOPE   C2318528   5.570   3.956  10.430 -0.2191 -0.2460 -0.0179
  165SOPE   H3R18529   5.511   4.050  10.432 -1.6033 -1.0657 -1.0545
  165SOPE   H3S18530   5.495   3.877  10.409  1.3975 -1.4117 -1.7371
  165SOPE   C2418531   5.679   3.951  10.317 -0.2133 -0.0795  0.0928
  165SOPE   H4R18532   5.745   4.039  10.336 -2.0592  1.6054 -0.9525
  165SOPE   H4S18533   5.740   3.859  10.330 -0.2867 -0.0768  0.4829
  165SOPE   C2518534   5.621   3.951  10.175 -0.0686 -0.4962  0.3685
  165SOPE   H5R18535   5.626   3.849  10.132 -1.1836  0.0672 -1.2093
  165SOPE   H5S18536   5.513   3.978  10.180 -0.0369 -0.1121 -0.7524
  165SOPE   C2618537   5.684   4.059  10.091 -0.0361 -0.0163 -0.0970
  165SOPE   H6R18538   5.694   4.155  10.145  1.3126  0.7472 -1.6293
  165SOPE   H6S18539   5.785   4.041  10.048 -0.7176  0.3864 -1.9607
  165SOPE   C2718540   5.607   4.083   9.959 -0.8408 -0.2281  0.1476
  165SOPE   H7R18541   5.498   4.097   9.979 -1.6734 -2.5734 -2.2013
  165SOPE   H7S18542   5.630   4.181   9.912 -2.7744  0.7458  1.0879
  165SOPE   C2818543   5.610   3.955   9.873  0.8346 -0.3860 -0.2730
  165SOPE   H8R18544   5.570   3.868   9.931 -3.5804 -0.9782 -3.6351
  165SOPE   H8S18545   5.533   3.971   9.795  0.4822 -1.0955 -0.0820
  165SOPE   C2918546   5.737   3.919   9.803  0.8846  0.1985 -0.0967
  165SOPE   H9118547   5.803   3.839   9.840  1.4365  1.4684  1.8351
  165SOPE  C21018548   5.773   3.990   9.696  0.5071 -0.5166  0.4961
  165SOPE  H10118549   5.875   3.976   9.659  0.6900 -0.0326  0.8182
  165SOPE  C21118550   5.705   4.108   9.628  0.6350  0.7645  1.0380
  165SOPE  H11R18551   5.776   4.188   9.598  0.0984  0.7770 -0.2982
  165SOPE  H11S18552   5.636   4.156   9.700 -0.7218 -0.0096  0.3153
  165SOPE  C21218553   5.630   4.068   9.497  0.1402 -0.1986  0.2347
  165SOPE  H12R18554   5.557   4.150   9.478  1.4567  0.9079 -0.3062
  165SOPE  H12S18555   5.558   3.986   9.513 -1.3979  0.6220 -1.9814
  165SOPE  C21318556   5.706   4.056   9.363  0.3542  0.4322  0.2286
  165SOPE  H13R18557   5.785   3.979   9.371  0.5911  0.3460 -2.1962
  165SOPE  H13S18558   5.748   4.159   9.360 -0.0855  0.6980  1.8472
  165SOPE  C21418559   5.620   4.010   9.250  0.2818  0.2316 -0.1372
  165SOPE  H14R18560   5.517   4.051   9.262  0.0391 -0.7892  1.5689
  165SOPE  H14S18561   5.614   3.899   9.254  0.7162  0.1844 -0.5962
  165SOPE  C21518562   5.676   4.033   9.106 -0.6638  0.1349  0.0861
  165SOPE  H15R18563   5.779   3.995   9.086 -0.9764 -1.3528  1.1393
  165SOPE  H15S18564   5.684   4.143   9.093  0.1679  0.0750  0.0191
  165SOPE  C21618565   5.584   3.983   8.993 -0.3017 -0.4596 -0.3444
  165SOPE  H16R18566   5.484   4.026   9.017 -1.2276 -2.2520 -0.7912
  165SOPE  H16S18567   5.562   3.874   8.999 -1.5905 -0.2408 -0.6631
  165SOPE  C21718568   5.623   4.002   8.849 -0.1271  0.2918 -0.2343
  165SOPE  H17R18569   5.728   3.977   8.824 -0.5469 -0.4770 -1.3264
  165SOPE  H17S18570   5.632   4.110   8.825 -0.6892  1.0641  2.6868
  165SOPE  C21818571   5.520   3.936   8.750 -0.0657  0.0211 -0.1562
  165SOPE  H18R18572   5.555   3.955   8.646 -0.1228  1.2458  0.0286
  165SOPE  H18S18573   5.427   3.996   8.753  0.1383  0.3340 -0.0376
  165SOPE  H18T18574   5.501   3.828   8.764 -0.1823  0.2391  1.5612
  165SOPE   C3318575   5.115   3.360  10.450  0.4517  0.0036 -0.3867
  165SOPE   H3X18576   5.056   3.419  10.524  3.1385  1.1459  0.9986
  165SOPE   H3Y18577   5.121   3.253  10.481  3.0471  0.6163  1.6368
  165SOPE   C3418578   5.061   3.355  10.304 -0.8865  0.3764 -0.7340
  165SOPE   H4X18579   5.044   3.460  10.272 -1.0913  0.0775 -1.6148
  165SOPE   H4Y18580   4.962   3.304  10.302  0.0450 -1.5803  0.2220
  165SOPE   C3518581   5.153   3.282  10.196  0.1913 -0.8338 -0.1673
  165SOPE   H5X18582   5.183   3.187  10.245  1.4323 -0.4871 -0.2110
  165SOPE   H5Y18583   5.249   3.337  10.185  0.1712 -0.9149 -0.7982
  165SOPE   C3618584   5.073   3.264  10.065 -0.5191 -0.2378 -0.2689
  165SOPE   H6X18585   5.062   3.365  10.019 -0.2309  0.2612  0.7264
  165SOPE   H6Y18586   4.976   3.216  10.085  0.8497 -3.8328 -1.5082
  165SOPE   C3718587   5.151   3.175   9.969 -0.0963 -0.1863  0.3099
  165SOPE   H7X18588   5.132   3.066   9.970  0.1613 -0.3444 -2.6970
  165SOPE   H7Y18589   5.258   3.168   9.996 -0.5511 -0.9683  2.0086
  165SOPE   C3818590   5.133   3.219   9.825 -0.0231  0.3772  0.4376
  165SOPE   H8X18591   5.189   3.315   9.819  0.5629 -0.0391 -3.0792
  165SOPE   H8Y18592   5.026   3.242   9.801 -0.2039 -0.5045  0.3639
  165SOPE   C3918593   5.200   3.124   9.718 -0.2640  0.1453 -0.9708
  165SOPE   H9X18594   5.134   3.036   9.705 -0.2564  0.2266 -1.5529
  165SOPE   H9Y18595   5.298   3.083   9.750 -1.0140 -0.6613  0.4067
  165SOPE  C31018596   5.197   3.183   9.581 -0.1642  0.1420 -0.0423
  165SOPE  H10X18597   5.260   3.273   9.565  0.0582  0.4402  2.1759
  165SOPE  H10Y18598   5.097   3.220   9.550  0.0732  1.7582  1.0184
  165SOPE  C31118599   5.237   3.069   9.478 -0.4193 -0.4573  0.2255
  165SOPE  H11X18600   5.201   2.971   9.512  1.4853 -0.8641  1.2272
  165SOPE  H11Y18601   5.347   3.057   9.488 -0.6314 -2.6470  0.2963
  165SOPE  C31218602   5.191   3.103   9.333 -0.7240  0.1061 -0.6134
  165SOPE  H12X18603   5.220   3.208   9.314 -2.8144  0.8915  0.2013
  165SOPE  H12Y18604   5.081   3.088   9.335 -0.7953  0.1503  3.6317
  165SOPE  C31318605   5.255   3.008   9.234 -0.4111  0.2111 -0.5182
  165SOPE  H13X18606   5.207   2.909   9.245 -1.9531  0.9503 -0.4004
  165SOPE  H13Y18607   5.364   3.004   9.255 -0.9529 -1.4745  2.4786
  165SOPE  C31418608   5.229   3.049   9.086  0.7017  0.3491  0.1092
  165SOPE  H14X18609   5.297   3.129   9.049  0.3756  0.3048 -0.5999
  165SOPE  H14Y18610   5.132   3.104   9.083 -0.4031 -1.4992 -3.9510
  165SOPE  C31518611   5.244   2.929   8.989  0.2713  0.5666  0.2232
  165SOPE  H15X18612   5.248   2.980   8.890  2.1451 -0.2568 -0.1734
  165SOPE  H15Y18613   5.164   2.853   8.984  3.3590 -2.8199 -3.4867
  165SOPE  C31618614   5.380   2.852   9.007  0.4635 -0.3547 -0.0821
  165SOPE  H16X18615   5.381   2.774   9.085  1.3094  0.5916  0.8825
  165SOPE  H16Y18616   5.456   2.929   9.032 -0.1814  0.3953 -0.4064
  165SOPE  C31718617   5.421   2.781   8.873  0.5733 -0.6945 -0.6453
  165SOPE  H17X18618   5.432   2.863   8.799 -2.9126  1.6764  1.1398
  165SOPE  H17Y18619   5.334   2.719   8.844  1.2500 -2.2646  0.5452
  165SOPE  C31818620   5.551   2.704   8.884  0.3418  0.3819 -0.0951
  165SOPE  H18X18621   5.638   2.758   8.927  1.7444 -2.0040  0.2611
  165SOPE  H18Y18622   5.574   2.658   8.785  0.0178 -0.0221  0.0136
  165SOPE  H18Z18623   5.541   2.612   8.946  1.1923 -0.0752 -0.6173
  166SOPE     N18624   0.475   4.116  11.106  0.2007  0.0375 -0.2057
  166SOPE   HN118625   0.406   4.038  11.098  3.6214 -3.2528 -0.6409
  166SOPE   HN218626   0.489   4.154  11.202 -0.3131 -0.7012  0.1681
  166SOPE   HN318627   0.438   4.188  11.041  1.5764 -2.1370 -3.7294
  166SOPE   C1218628   0.607   4.059  11.058 -0.9701 -0.1832  0.1004
  166SOPE  H12A18629   0.636   4.006  11.152 -2.2667 -1.9881 -0.4643
  166SOPE  H12B18630   0.680   4.139  11.031 -0.5462 -0.8066 -0.6470
  166SOPE   C1118631   0.598   3.970  10.944 -0.2335  0.7945  0.0285
  166SOPE  H11A18632   0.695   3.939  10.900  0.3075  0.6634  1.2725
  166SOPE  H11B18633   0.555   4.024  10.857  1.6488 -0.8265 -2.0401
  166SOPE     P18634   0.552   3.710  10.971 -0.0529 -0.2351  0.2415
  166SOPE   O1318635   0.510   3.655  11.102  0.0485 -0.4383 -0.0213
  166SOPE   O1418636   0.695   3.698  10.940 -0.4960 -0.1581  0.4855
  166SOPE   O1218637   0.515   3.862  10.986 -0.0170 -0.1447  0.2527
  166SOPE   O1118638   0.470   3.636  10.858  0.2240 -0.5565 -0.6392
  166SOPE    C118639   0.395   3.693  10.758  0.1603 -0.1816  0.1779
  166SOPE    HA18640   0.443   3.780  10.709  0.3541 -0.1207  0.4785
  166SOPE    HB18641   0.303   3.738  10.801  0.6858  1.3579 -0.2550
  166SOPE    C218642   0.360   3.599  10.634  0.3992 -0.9065  0.2719
  166SOPE    HS18643   0.330   3.502  10.679  0.5920 -1.3378 -0.5135
  166SOPE   O2118644   0.481   3.590  10.556  0.0718  0.3506 -0.2351
  166SOPE   C2118645   0.511   3.462  10.517  0.0492 -0.0467  0.3036
  166SOPE   O2218646   0.445   3.362  10.535 -0.5422  0.2433  0.0225
  166SOPE   C2218647   0.644   3.464  10.440 -0.3519  0.0453 -0.0575
  166SOPE   H2R18648   0.695   3.371  10.472 -3.9605 -1.2752  2.4202
  166SOPE   H2S18649   0.711   3.542  10.483 -1.1671 -0.3376  1.9865
  166SOPE    C318650   0.238   3.654  10.552 -0.2863  0.4782 -0.1190
  166SOPE    HX18651   0.236   3.765  10.544 -1.5919  0.5647  1.1393
  166SOPE    HY18652   0.150   3.629  10.614 -0.0799  0.2219  0.0745
  166SOPE   O3118653   0.232   3.587  10.422  0.0163  0.1392  0.0057
  166SOPE   C3118654   0.247   3.660  10.313 -0.3922  1.2185 -0.4258
  166SOPE   O3218655   0.267   3.780  10.308 -0.4570 -0.7262  0.4607
  166SOPE   C3218656   0.239   3.562  10.197 -0.0282  0.4126 -0.3797
  166SOPE   H2X18657   0.132   3.557  10.169 -0.2549  0.8108  0.4135
  166SOPE   H2Y18658   0.276   3.458  10.213  2.9116  1.3893 -0.2345
  166SOPE   C2318659   0.621   3.477  10.292  0.4150 -0.2067  0.1204
  166SOPE   H3R18660   0.580   3.578  10.271 -2.1860 -1.0197  0.9033
  166SOPE   H3S18661   0.556   3.395  10.254  1.5919 -0.4409 -1.5165
  166SOPE   C2418662   0.749   3.464  10.194  0.4151  0.6780  0.0115
  166SOPE   H4R18663   0.815   3.540  10.242  1.0961 -0.6002  1.1586
  166SOPE   H4S18664   0.789   3.361  10.201 -1.0027  0.0299 -1.0074
  166SOPE   C2518665   0.715   3.496  10.040 -0.0073  0.2150 -0.4363
  166SOPE   H5R18666   0.651   3.415  10.000 -0.1742  0.8245 -1.4120
  166SOPE   H5S18667   0.669   3.597  10.032 -0.3480  0.0561 -0.5042
  166SOPE   C2618668   0.845   3.496   9.957 -0.4440  0.3135  0.0777
  166SOPE   H6R18669   0.917   3.568  10.000  0.6392 -0.5979 -0.1616
  166SOPE   H6S18670   0.885   3.392   9.966 -2.7365 -0.5105  1.8588
  166SOPE   C2718671   0.824   3.527   9.808  0.5617 -0.1292  0.4443
  166SOPE   H7R18672   0.774   3.439   9.763 -1.6607  0.6303  1.3153
  166SOPE   H7S18673   0.737   3.596   9.800  1.7183  1.3094 -0.2878
  166SOPE   C2818674   0.945   3.580   9.721 -0.3484 -0.0937 -0.3368
  166SOPE   H8R18675   0.903   3.603   9.621  1.4574  0.1439 -1.0799
  166SOPE   H8S18676   0.967   3.676   9.773 -0.3444 -0.5591  0.5557
  166SOPE   C2918677   1.060   3.490   9.694  0.2692 -0.7844  0.1893
  166SOPE   H9118678   1.142   3.486   9.766  0.5381 -0.4124 -0.0924
  166SOPE  C21018679   1.082   3.421   9.580 -0.5561  0.2500 -1.0356
  166SOPE  H10118680   1.174   3.362   9.574 -0.1155  0.4078  2.1677
  166SOPE  C21118681   1.010   3.423   9.452  0.1518  0.2017  0.1389
  166SOPE  H11R18682   0.903   3.440   9.476  0.0131  1.1525 -1.0581
  166SOPE  H11S18683   1.019   3.322   9.406  0.1385 -0.0689  0.7213
  166SOPE  C21218684   1.044   3.539   9.357  0.3595 -0.1236  0.0630
  166SOPE  H12R18685   1.028   3.634   9.412 -1.3493 -1.1029  1.3693
  166SOPE  H12S18686   0.965   3.527   9.280 -0.1442 -0.3964  0.6159
  166SOPE  C21318687   1.180   3.533   9.287 -0.2991  0.4508 -0.1884
  166SOPE  H13R18688   1.222   3.433   9.260 -0.5570  0.5171 -0.8377
  166SOPE  H13S18689   1.253   3.565   9.365  0.2818 -0.6762 -0.2344
  166SOPE  C21418690   1.190   3.630   9.165  0.1751 -0.0188  0.2657
  166SOPE  H14R18691   1.179   3.735   9.201 -0.3212 -0.4214  1.3213
  166SOPE  H14S18692   1.096   3.617   9.107 -0.3047  1.1539  0.7442
  166SOPE  C21518693   1.323   3.622   9.085  0.1425 -0.1118 -0.1495
  166SOPE  H15R18694   1.341   3.519   9.048 -0.6714 -2.4494  5.0363
  166SOPE  H15S18695   1.388   3.654   9.170  0.8220 -1.8380  0.0147
  166SOPE  C21618696   1.335   3.727   8.968  0.2380 -0.2556 -0.3431
  166SOPE  H16R18697   1.445   3.727   8.954  0.1693 -0.4071 -0.9213
  166SOPE  H16S18698   1.314   3.829   9.007 -2.1406 -0.6457 -0.4392
  166SOPE  C21718699   1.262   3.687   8.842 -1.1024  0.1597  0.4528
  166SOPE  H17R18700   1.249   3.577   8.848  1.5591 -0.2110  0.9220
  166SOPE  H17S18701   1.324   3.701   8.751  0.5322 -0.7385  1.3762
  166SOPE  C21818702   1.131   3.749   8.811  0.1557 -0.4633 -0.0271
  166SOPE  H18R18703   1.145   3.856   8.785  2.3448 -1.0510 -1.5041
  166SOPE  H18S18704   1.052   3.721   8.885  0.3749 -1.3970 -0.1317
  166SOPE  H18T18705   1.098   3.696   8.719 -1.0842 -0.1558  0.2189
  166SOPE   C3318706   0.315   3.608  10.066  0.6272 -0.6317 -0.5640
  166SOPE   H3X18707   0.422   3.629  10.086 -0.4991  2.2829  4.0275
  166SOPE   H3Y18708   0.264   3.702  10.037 -0.1289 -1.9239 -3.8077
  166SOPE   C3418709   0.302   3.514   9.950  0.1084  0.1341 -0.3636
  166SOPE   H4X18710   0.195   3.488   9.933  0.8836 -3.5388 -0.3955
  166SOPE   H4Y18711   0.347   3.420   9.988 -2.4643  0.1205  3.0844
  166SOPE   C3518712   0.359   3.571   9.821 -0.1856  0.0902 -0.0414
  166SOPE   H5X18713   0.448   3.626   9.858  0.2844 -1.1434  0.7147
  166SOPE   H5Y18714   0.291   3.644   9.772  0.0707  2.0715  2.3254
  166SOPE   C3618715   0.405   3.456   9.737  0.0555  0.3183  0.0502
  166SOPE   H6X18716   0.339   3.371   9.711  1.7427 -1.4756  1.2865
  166SOPE   H6Y18717   0.484   3.405   9.796  1.0788 -1.3164 -2.5429
  166SOPE   C3718718   0.486   3.499   9.611  0.2498 -0.1119 -0.5057
  166SOPE   H7X18719   0.545   3.410   9.580  1.4544 -0.5573  2.6743
  166SOPE   H7Y18720   0.553   3.586   9.629  0.1783  0.0227 -0.8875
  166SOPE   C3818721   0.389   3.534   9.493 -0.9917  0.1539  0.0227
  166SOPE   H8X18722   0.332   3.626   9.517 -1.2021  0.0140  0.0572
  166SOPE   H8Y18723   0.314   3.453   9.494  0.0548 -0.9556  3.4576
  166SOPE   C3918724   0.448   3.554   9.354 -0.7226  0.4681 -0.0419
  166SOPE   H9X18725   0.513   3.640   9.380  0.5102 -0.0208 -1.3611
  166SOPE   H9Y18726   0.376   3.591   9.279 -0.1546  1.5854 -0.0438
  166SOPE  C31018727   0.531   3.435   9.298 -0.4198  0.0333 -0.1093
  166SOPE  H10X18728   0.467   3.345   9.305 -0.2491  0.0005  1.5037
  166SOPE  H10Y18729   0.619   3.404   9.358 -0.8367  1.2356  1.1847
  166SOPE  C31118730   0.589   3.465   9.157  0.1436  0.1498  0.0006
  166SOPE  H11X18731   0.597   3.572   9.129 -0.1874  0.3895  0.8012
  166SOPE  H11Y18732   0.509   3.422   9.093  0.6583 -0.4194 -0.2733
  166SOPE  C31218733   0.709   3.375   9.125  0.4493 -0.1328 -0.4521
  166SOPE  H12X18734   0.667   3.273   9.133 -1.5269  0.7007  0.7399
  166SOPE  H12Y18735   0.791   3.395   9.197  1.2465  1.0975 -1.6452
  166SOPE  C31318736   0.759   3.397   8.983 -0.5032  0.5218 -0.2109
  166SOPE  H13X18737   0.776   3.505   8.967  0.7323  0.2011 -1.2295
  166SOPE  H13Y18738   0.692   3.344   8.911 -2.1767  2.3401 -0.0616
  166SOPE  C31418739   0.900   3.326   8.965  0.2329 -0.1475  0.2892
  166SOPE  H14X18740   0.890   3.215   8.975  2.1435 -0.3230  0.6415
  166SOPE  H14Y18741   0.965   3.362   9.048  0.3219 -2.0136  1.0908
  166SOPE  C31518742   0.956   3.367   8.831 -0.2013  0.0622 -1.0686
  166SOPE  H15X18743   0.957   3.478   8.825  2.1976  0.4301  2.7093
  166SOPE  H15Y18744   0.893   3.317   8.754 -1.8936 -2.3812  1.7434
  166SOPE  C31618745   1.102   3.315   8.811  0.2253  0.5018 -0.1522
  166SOPE  H16X18746   1.095   3.204   8.822  0.2733  0.5402  0.2903
  166SOPE  H16Y18747   1.172   3.343   8.893  2.3024 -1.8239 -0.9865
  166SOPE  C31718748   1.168   3.369   8.680 -0.3104  0.0477 -0.1246
  166SOPE  H17X18749   1.172   3.480   8.673 -0.5998  0.0039 -1.1290
  166SOPE  H17Y18750   1.121   3.323   8.591  2.9293 -0.1694 -1.8657
  166SOPE  C31818751   1.322   3.317   8.662  0.3485  0.3140 -0.0157
  166SOPE  H18X18752   1.364   3.342   8.562 -2.5390 -0.8301 -1.6263
  166SOPE  H18Y18753   1.312   3.208   8.679 -1.6183  0.0618 -2.2957
  166SOPE  H18Z18754   1.393   3.360   8.736 -0.7673  1.3408  0.4821
  167SOPE     N18755   2.313   6.434   6.217  0.0772  0.1102  0.7865
  167SOPE   HN118756   2.375   6.353   6.239 -0.0803 -0.3666 -0.4088
  167SOPE   HN218757   2.245   6.440   6.295  1.1042  1.6820  1.5917
  167SOPE   HN318758   2.258   6.399   6.136  0.5842  0.8700  0.1018
  167SOPE   C1218759   2.398   6.555   6.201 -0.0395  0.3161  0.4992
  167SOPE  H12A18760   2.468   6.527   6.118  3.6420  1.5110  2.9516
  167SOPE  H12B18761   2.459   6.567   6.293  0.1353 -2.8754  0.9096
  167SOPE   C1118762   2.317   6.675   6.158  0.6882 -0.5427 -0.6172
  167SOPE  H11A18763   2.256   6.641   6.072  1.8090 -1.7164 -0.9931
  167SOPE  H11B18764   2.388   6.751   6.120  1.3158 -0.4789  0.6117
  167SOPE     P18765   2.252   6.867   6.334 -0.1358  0.0916 -0.2857
  167SOPE   O1318766   2.135   6.883   6.427 -0.0291 -0.3035  0.2246
  167SOPE   O1418767   2.272   6.968   6.224 -1.0919 -0.4238 -0.1240
  167SOPE   O1218768   2.228   6.727   6.264 -0.6429 -0.5646 -0.5232
  167SOPE   O1118769   2.386   6.859   6.417  0.5164 -0.0809 -0.4949
  167SOPE    C118770   2.410   6.747   6.506  0.4098  0.3358  0.7994
  167SOPE    HA18771   2.520   6.735   6.516  0.7946  1.5133 -1.3788
  167SOPE    HB18772   2.363   6.655   6.465  1.0903  0.3380 -0.0231
  167SOPE    C218773   2.364   6.781   6.651 -0.0687  0.5149 -0.5725
  167SOPE    HS18774   2.261   6.821   6.651  0.7224  2.7335  0.4261
  167SOPE   O2118775   2.455   6.872   6.711 -0.1413 -0.2606  0.5379
  167SOPE   C2118776   2.416   6.927   6.826 -0.4628  0.8153 -0.0325
  167SOPE   O2218777   2.307   6.931   6.869  0.4183 -0.0324 -0.1501
  167SOPE   C2218778   2.543   6.989   6.888  0.3318 -0.2943 -0.1569
  167SOPE   H2R18779   2.517   7.096   6.901 -0.8075 -0.5461 -0.3225
  167SOPE   H2S18780   2.622   6.997   6.810  0.3205  1.6125 -0.0269
  167SOPE    C318781   2.332   6.647   6.738 -1.5035  0.1272  0.4778
  167SOPE    HX18782   2.431   6.611   6.773 -0.8421  0.5722 -0.8555
  167SOPE    HY18783   2.293   6.573   6.665 -0.6616 -0.9179  1.0715
  167SOPE   O3118784   2.249   6.660   6.854  0.1102  0.3274  0.0971
  167SOPE   C3118785   2.122   6.686   6.815 -1.4376 -0.6166  0.2082
  167SOPE   O3218786   2.085   6.665   6.701  0.4073 -0.5176 -0.1842
  167SOPE   C3218787   2.028   6.713   6.933  0.2179  0.2852 -0.3449
  167SOPE   H2X18788   1.949   6.784   6.900 -0.6379  0.1307  1.2789
  167SOPE   H2Y18789   2.092   6.759   7.011  0.9346 -0.8371 -0.2453
  167SOPE   C2318790   2.594   6.922   7.016 -0.0577  0.3444 -0.0070
  167SOPE   H3R18791   2.683   6.981   7.043 -0.3489  0.0649  1.6620
  167SOPE   H3S18792   2.611   6.812   7.005  0.5492  0.3371  0.9464
  167SOPE   C2418793   2.495   6.952   7.123 -0.3486  0.1582 -0.1293
  167SOPE   H4R18794   2.499   7.061   7.145 -0.9869 -0.3104  2.5838
  167SOPE   H4S18795   2.389   6.932   7.096 -0.2099 -3.9357  1.5364
  167SOPE   C2518796   2.524   6.881   7.257 -0.4145  0.3810 -0.2670
  167SOPE   H5R18797   2.514   6.772   7.273 -0.7176  0.3630 -0.5720
  167SOPE   H5S18798   2.629   6.916   7.270 -1.4053  2.6045  3.2335
  167SOPE   C2618799   2.453   6.951   7.378 -0.4829 -0.0767  0.3163
  167SOPE   H6R18800   2.510   6.920   7.469 -0.9367  0.7808  0.9074
  167SOPE   H6S18801   2.455   7.061   7.363  0.0776 -0.1516 -0.1964
  167SOPE   C2718802   2.316   6.893   7.379  0.0451  0.2391 -0.5269
  167SOPE   H7R18803   2.258   6.926   7.290  1.5647 -0.0754 -1.6733
  167SOPE   H7S18804   2.331   6.783   7.376 -2.2077 -0.1332 -0.1119
  167SOPE   C2818805   2.237   6.952   7.504 -0.7170 -0.9473 -0.0885
  167SOPE   H8R18806   2.291   6.917   7.594 -1.1764  1.0208  1.0007
  167SOPE   H8S18807   2.248   7.062   7.514 -1.4669 -0.8753 -0.0250
  167SOPE   C2918808   2.089   6.917   7.515 -0.3716  0.5465  0.0040
  167SOPE   H9118809   2.040   6.944   7.421 -1.0846  1.1515  0.5423
  167SOPE  C21018810   2.015   6.862   7.614 -0.5890  0.1623  0.0096
  167SOPE  H10118811   1.909   6.848   7.588  0.3952 -1.6918 -3.7622
  167SOPE  C21118812   2.073   6.819   7.746  0.2720 -0.3053 -0.0907
  167SOPE  H11R18813   2.106   6.908   7.804 -0.9844  0.8104 -1.0115
  167SOPE  H11S18814   2.164   6.757   7.735 -0.3522 -1.3980  0.6816
  167SOPE  C21218815   1.964   6.751   7.837 -0.4284  0.4461  0.4636
  167SOPE  H12R18816   1.919   6.672   7.772 -3.7864  2.1315  0.5246
  167SOPE  H12S18817   1.876   6.818   7.849 -1.1009  0.2458 -2.4331
  167SOPE  C21318818   2.024   6.687   7.962 -0.3549 -0.1101 -0.6274
  167SOPE  H13R18819   2.079   6.763   8.021 -0.5493  0.1565 -0.7866
  167SOPE  H13S18820   2.099   6.616   7.921 -1.9753 -1.9743 -0.5223
  167SOPE  C21418821   1.920   6.621   8.056 -0.5405 -0.3868  0.0659
  167SOPE  H14R18822   1.959   6.532   8.110 -1.4228 -1.4380 -0.9702
  167SOPE  H14S18823   1.833   6.584   7.998 -0.8963 -1.0229  0.9816
  167SOPE  C21518824   1.877   6.717   8.167  0.0258  0.8396 -0.1692
  167SOPE  H15R18825   1.796   6.781   8.125 -0.6886 -0.6023 -1.0723
  167SOPE  H15S18826   1.962   6.783   8.195  2.3753 -1.6404 -0.9446
  167SOPE  C21618827   1.824   6.638   8.293  0.3675 -0.2504  0.8680
  167SOPE  H16R18828   1.894   6.553   8.302 -2.4571 -2.9778 -0.8365
  167SOPE  H16S18829   1.727   6.590   8.267  1.6716 -1.4888 -2.0547
  167SOPE  C21718830   1.802   6.726   8.421  0.3853  0.2758 -0.7330
  167SOPE  H17R18831   1.735   6.664   8.484  1.3304  0.5913  0.6339
  167SOPE  H17S18832   1.748   6.811   8.373  1.1118  0.7321 -0.7715
  167SOPE  C21818833   1.922   6.788   8.489 -0.0610 -0.6650  0.3703
  167SOPE  H18R18834   1.891   6.877   8.548  2.0235  0.2930  0.1026
  167SOPE  H18S18835   2.006   6.817   8.423 -0.0861 -0.1263  0.5748
  167SOPE  H18T18836   1.962   6.725   8.571  0.9138 -0.0257  0.3897
  167SOPE   C3318837   1.959   6.592   7.007 -0.8781 -0.1345 -0.1097
  167SOPE   H3X18838   1.907   6.527   6.934  0.6985  0.1299 -1.5498
  167SOPE   H3Y18839   1.881   6.633   7.074 -0.0657  1.3235 -0.0144
  167SOPE   C3418840   2.049   6.501   7.083 -0.3767  0.5208 -0.0594
  167SOPE   H4X18841   2.107   6.573   7.143 -0.4265  0.5036  0.0091
  167SOPE   H4Y18842   2.127   6.459   7.015  2.4436  0.9429  2.7053
  167SOPE   C3518843   1.982   6.395   7.177 -0.0111 -0.3539  0.0557
  167SOPE   H5X18844   1.969   6.301   7.120 -3.0910  0.2418 -0.3732
  167SOPE   H5Y18845   1.881   6.436   7.197  0.4344  0.2693  1.0990
  167SOPE   C3618846   2.064   6.378   7.304 -0.0820  0.1551  0.3770
  167SOPE   H6X18847   2.087   6.484   7.330 -4.2739  1.1722  0.5546
  167SOPE   H6Y18848   2.150   6.307   7.295 -0.7202 -0.7997  1.5085
  167SOPE   C3718849   1.985   6.310   7.420 -0.5804 -0.1646 -0.5175
  167SOPE   H7X18850   1.948   6.207   7.398 -1.3631 -0.3125  1.3024
  167SOPE   H7Y18851   1.909   6.387   7.444  2.0333  1.7774  2.2659
  167SOPE   C3818852   2.074   6.310   7.548 -0.1647  0.5217 -0.5786
  167SOPE   H8X18853   2.112   6.414   7.559  1.7845 -0.2171  0.1398
  167SOPE   H8Y18854   2.169   6.253   7.539  0.3207  1.2109  0.0773
  167SOPE   C3918855   1.989   6.264   7.672 -0.7171 -0.0990 -0.5212
  167SOPE   H9X18856   2.003   6.154   7.677  2.0081  0.1605 -1.1999
  167SOPE   H9Y18857   1.882   6.287   7.648 -1.3806 -2.5248 -0.1513
  167SOPE  C31018858   2.040   6.318   7.807  0.8077  0.0846  0.3933
  167SOPE  H10X18859   1.978   6.277   7.890 -1.4897 -0.1605 -1.3269
  167SOPE  H10Y18860   2.035   6.428   7.813 -2.1960  0.0057  1.3140
  167SOPE  C31118861   2.184   6.268   7.834 -0.3275 -0.0509  0.2751
  167SOPE  H11X18862   2.264   6.288   7.759  1.1614  0.0177  1.8325
  167SOPE  H11Y18863   2.171   6.159   7.818 -3.3216  0.1236  0.8339
  167SOPE  C31218864   2.238   6.292   7.980 -0.3570 -0.5592  0.1703
  167SOPE  H12X18865   2.162   6.256   8.053 -0.9068  0.7817  0.2946
  167SOPE  H12Y18866   2.248   6.401   8.001 -0.9975 -0.1222 -1.6057
  167SOPE  C31318867   2.375   6.232   8.000  0.1273 -0.2495  0.0316
  167SOPE  H13X18868   2.453   6.276   7.934  0.7206 -3.2014 -1.3962
  167SOPE  H13Y18869   2.378   6.124   7.975 -2.3714 -0.2608 -0.4087
  167SOPE  C31418870   2.417   6.232   8.147 -0.1007 -0.4326  0.1272
  167SOPE  H14X18871   2.334   6.218   8.219 -0.3211 -2.1882 -0.4183
  167SOPE  H14Y18872   2.434   6.340   8.166 -0.4171 -0.4990  0.7999
  167SOPE  C31518873   2.542   6.154   8.181 -0.0871  0.2023 -0.4774
  167SOPE  H15X18874   2.628   6.199   8.128  1.0159  0.3479  1.3219
  167SOPE  H15Y18875   2.532   6.045   8.160  1.3142  0.3367 -2.0575
  167SOPE  C31618876   2.571   6.158   8.341 -0.5125 -0.2294 -0.1443
  167SOPE  H16X18877   2.490   6.097   8.387  1.0894 -3.2782 -1.1372
  167SOPE  H16Y18878   2.547   6.264   8.364 -0.5322 -0.5492  1.3956
  167SOPE  C31718879   2.702   6.111   8.403 -0.0221 -0.1406  0.5328
  167SOPE  H17X18880   2.708   6.155   8.505  0.4109  0.1336  0.3887
  167SOPE  H17Y18881   2.789   6.153   8.348  1.0659 -1.5112  1.1370
  167SOPE  C31818882   2.707   5.965   8.409  0.5982  0.6651  0.4011
  167SOPE  H18X18883   2.705   5.923   8.307  1.0009  2.5509 -0.4253
  167SOPE  H18Y18884   2.626   5.926   8.475  1.3447 -2.9105 -0.5916
  167SOPE  H18Z18885   2.804   5.936   8.454  1.7150  4.9245  1.1496
  168SOPE     N18886   5.800   6.063   6.399  0.1162 -0.0706 -0.1445
  168SOPE   HN118887   5.747   6.005   6.467 -0.2778  0.1358 -0.2697
  168SOPE   HN218888   5.896   6.029   6.379  0.4962  0.8832 -0.0337
  168SOPE   HN318889   5.810   6.161   6.433 -0.1656 -0.6924  1.8957
  168SOPE   C1218890   5.710   6.058   6.273  0.7129 -1.3655  0.7552
  168SOPE  H12A18891   5.705   5.951   6.242 -0.2920 -1.9497  2.7805
  168SOPE  H12B18892   5.762   6.121   6.197  0.0971 -1.2731  0.4046
  168SOPE   C1118893   5.565   6.103   6.303  0.4894 -0.1570  0.3103
  168SOPE  H11A18894   5.504   6.101   6.210  1.2239  1.2679 -0.2360
  168SOPE  H11B18895   5.572   6.210   6.332  1.2114  0.4627 -1.9743
  168SOPE     P18896   5.365   5.983   6.441  0.1242  0.1656 -0.2241
  168SOPE   O1318897   5.358   5.931   6.578 -0.0175 -0.2543  0.3162
  168SOPE   O1418898   5.329   5.901   6.322  0.0549 -0.1428  0.5239
  168SOPE   O1218899   5.512   6.026   6.416 -0.1859 -0.4129  0.2418
  168SOPE   O1118900   5.280   6.116   6.428 -0.8497 -0.3312 -0.2625
  168SOPE    C118901   5.324   6.244   6.484  0.0219  0.1465  0.2928
  168SOPE    HA18902   5.316   6.316   6.400 -1.4465  1.5225  1.5466
  168SOPE    HB18903   5.424   6.236   6.532 -0.6999 -1.1891  1.6270
  168SOPE    C218904   5.221   6.303   6.582 -0.5178  0.5669  0.1889
  168SOPE    HS18905   5.257   6.407   6.597 -0.7787  0.5926  0.6407
  168SOPE   O2118906   5.234   6.226   6.702  0.2530  0.0640 -0.5980
  168SOPE   C2118907   5.317   6.271   6.793  0.0472 -0.2884  0.4254
  168SOPE   O2218908   5.385   6.372   6.783  0.3976 -0.3906 -0.5198
  168SOPE   C2218909   5.302   6.189   6.921 -0.4804  0.5826  0.5921
  168SOPE   H2R18910   5.373   6.105   6.931 -1.4492 -0.2029  1.0987
  168SOPE   H2S18911   5.197   6.153   6.925  0.1022 -1.0766  2.1806
  168SOPE    C318912   5.080   6.306   6.535 -0.1542 -0.5984  0.2330
  168SOPE    HX18913   5.059   6.210   6.482 -1.1244  0.1740 -0.8472
  168SOPE    HY18914   5.073   6.391   6.464 -0.2967 -0.4391  0.4365
  168SOPE   O3118915   4.998   6.328   6.643  0.1015 -0.4052  0.3888
  168SOPE   C3118916   4.866   6.313   6.632 -0.0377  0.7071 -0.0946
  168SOPE   O3218917   4.815   6.253   6.537 -0.1967 -0.2795 -0.0135
  168SOPE   C3218918   4.796   6.359   6.749 -0.3816 -0.1061 -0.3595
  168SOPE   H2X18919   4.740   6.278   6.800  0.7425  0.3960  1.8149
  168SOPE   H2Y18920   4.729   6.440   6.713  2.6796  2.5929 -0.4313
  168SOPE   C2318921   5.325   6.279   7.047 -0.0679 -0.0316 -0.1189
  168SOPE   H3R18922   5.304   6.387   7.031  2.0011  0.2292 -1.4720
  168SOPE   H3S18923   5.431   6.275   7.079 -0.9838  0.5143  3.3999
  168SOPE   C2418924   5.227   6.227   7.154 -0.2152 -0.2085 -0.0622
  168SOPE   H4R18925   5.119   6.232   7.126 -0.6973 -0.4359  1.6602
  168SOPE   H4S18926   5.256   6.120   7.161  2.1933  0.1593 -2.5520
  168SOPE   C2518927   5.230   6.302   7.283 -0.8991 -0.3776 -0.8539
  168SOPE   H5R18928   5.334   6.311   7.321 -1.8321  0.2321  1.7759
  168SOPE   H5S18929   5.182   6.401   7.271 -1.0477 -0.3824 -0.3474
  168SOPE   C2618930   5.163   6.217   7.387 -0.1157  0.0384  0.1824
  168SOPE   H6R18931   5.142   6.290   7.468  0.8225 -0.4176  0.8535
  168SOPE   H6S18932   5.067   6.180   7.345 -0.5104  1.8054 -0.5514
  168SOPE   C2718933   5.242   6.103   7.454 -0.1142  0.6298 -0.2859
  168SOPE   H7R18934   5.287   6.028   7.386 -2.7893 -2.8363  1.3926
  168SOPE   H7S18935   5.320   6.149   7.517  0.0985 -3.0615  2.4765
  168SOPE   C2818936   5.172   6.012   7.559 -0.1298 -0.2598  0.1461
  168SOPE   H8R18937   5.106   5.940   7.505  0.6942 -0.7836 -0.1801
  168SOPE   H8S18938   5.241   5.948   7.616 -1.9872  0.4600  3.4885
  168SOPE   C2918939   5.092   6.085   7.665  0.1777 -0.3965  0.2766
  168SOPE   H9118940   5.068   6.187   7.631  3.0421  0.7754  1.4770
  168SOPE  C21018941   5.063   6.048   7.787 -0.2087  0.4019 -0.1401
  168SOPE  H10118942   4.999   6.122   7.837  1.6781  3.0801 -1.4130
  168SOPE  C21118943   5.112   5.921   7.847  0.3074  0.2176 -0.0504
  168SOPE  H11R18944   5.111   5.950   7.955  0.6798 -0.0591  0.0277
  168SOPE  H11S18945   5.217   5.901   7.818 -1.0245 -2.1498 -3.8637
  168SOPE  C21218946   5.033   5.791   7.822  0.2400  0.0919 -0.2379
  168SOPE  H12R18947   5.031   5.768   7.714  1.5038  3.3281 -1.0535
  168SOPE  H12S18948   4.926   5.800   7.850  0.5102  0.5546  0.7045
  168SOPE  C21318949   5.096   5.679   7.911 -0.5805 -0.1247  0.5988
  168SOPE  H13R18950   5.197   5.651   7.874 -1.5395 -2.6023 -0.3572
  168SOPE  H13S18951   5.031   5.591   7.894  0.4828 -0.7794 -0.2445
  168SOPE  C21418952   5.110   5.711   8.059  0.1912 -0.4219 -0.4231
  168SOPE  H14R18953   5.008   5.745   8.087  0.6066 -0.5017  1.2625
  168SOPE  H14S18954   5.180   5.797   8.069 -1.2263  0.8226 -0.8871
  168SOPE  C21518955   5.141   5.592   8.140 -0.2709 -0.1456  0.0974
  168SOPE  H15R18956   5.249   5.598   8.167 -0.2319  1.1824 -0.2732
  168SOPE  H15S18957   5.126   5.496   8.086  1.4919 -0.1098 -0.5142
  168SOPE  C21618958   5.071   5.583   8.279 -0.1180 -0.5951 -0.2794
  168SOPE  H16R18959   5.116   5.500   8.338  0.4262 -2.3035 -2.9548
  168SOPE  H16S18960   4.965   5.552   8.269  0.8889 -4.4001 -0.6101
  168SOPE  C21718961   5.085   5.716   8.360  0.2323  0.3209 -0.6152
  168SOPE  H17R18962   5.019   5.793   8.316 -0.1336 -0.0596 -0.7457
  168SOPE  H17S18963   5.191   5.751   8.361  0.5574 -0.6138  0.2887
  168SOPE  C21818964   5.041   5.705   8.508 -0.0050 -0.2235 -0.2978
  168SOPE  H18R18965   5.091   5.785   8.566 -1.8069  0.0843  0.9233
  168SOPE  H18S18966   5.072   5.610   8.556 -1.1631 -1.3530 -1.6719
  168SOPE  H18T18967   4.931   5.716   8.523  0.4468  4.5803  0.8263
  168SOPE   C3318968   4.888   6.412   6.863 -0.1657 -0.6031  0.0941
  168SOPE   H3X18969   4.959   6.490   6.827  0.4734 -0.9290  0.6126
  168SOPE   H3Y18970   4.954   6.333   6.906 -2.8964 -1.7437  2.4862
  168SOPE   C3418971   4.809   6.450   6.983  0.8859 -0.1618 -0.2706
  168SOPE   H4X18972   4.724   6.381   7.002 -0.2451  1.2793  0.1545
  168SOPE   H4Y18973   4.763   6.551   6.977 -0.1770 -0.6924 -1.6158
  168SOPE   C3518974   4.882   6.454   7.120  0.0098 -0.6475  0.1441
  168SOPE   H5X18975   4.958   6.535   7.116 -1.4580  0.9029  1.8326
  168SOPE   H5Y18976   4.940   6.361   7.140  0.7573 -0.5084 -1.2646
  168SOPE   C3618977   4.791   6.473   7.236 -0.0634 -0.2353 -0.4049
  168SOPE   H6X18978   4.707   6.402   7.219 -1.8326  1.5350  0.5766
  168SOPE   H6Y18979   4.748   6.575   7.240  1.5394  0.4615  2.2542
  168SOPE   C3718980   4.872   6.469   7.377  1.1755 -0.3013 -0.1675
  168SOPE   H7X18981   4.956   6.542   7.370  1.8505 -1.1210 -0.8078
  168SOPE   H7Y18982   4.920   6.370   7.391  1.2688 -0.5503 -2.0278
  168SOPE   C3818983   4.773   6.486   7.486  0.1539 -0.2242  0.3132
  168SOPE   H8X18984   4.692   6.410   7.486 -1.2753  1.2133 -0.0585
  168SOPE   H8Y18985   4.718   6.583   7.480 -0.9235 -0.8668 -0.7828
  168SOPE   C3918986   4.843   6.477   7.621  0.2407  0.3303  1.3775
  168SOPE   H9X18987   4.906   6.569   7.622  2.3048 -0.8781 -2.2196
  168SOPE   H9Y18988   4.902   6.385   7.604  1.5466  1.5232 -1.0227
  168SOPE  C31018989   4.752   6.477   7.746  0.2913  0.3743  0.8363
  168SOPE  H10X18990   4.666   6.410   7.724 -0.7496  1.4691  1.4624
  168SOPE  H10Y18991   4.711   6.580   7.750 -1.3385 -0.1241 -1.2195
  168SOPE  C31118992   4.817   6.427   7.880 -0.2055  0.0130 -0.7729
  168SOPE  H11X18993   4.871   6.335   7.847 -0.9720  0.1404 -2.5238
  168SOPE  H11Y18994   4.739   6.407   7.957  1.7857  2.0231  1.9849
  168SOPE  C31218995   4.924   6.524   7.935  0.1280 -0.1024  0.1593
  168SOPE  H12X18996   4.865   6.600   7.991  1.9361  1.2820  0.2961
  168SOPE  H12Y18997   4.971   6.578   7.850  2.1276 -1.2506  0.4714
  168SOPE  C31318998   5.025   6.471   8.030  0.0062  0.7471 -0.1465
  168SOPE  H13X18999   5.008   6.361   8.028  2.0480  0.3939 -1.7576
  168SOPE  H13Y19000   5.011   6.495   8.138 -0.1224 -0.7539  0.1990
  168SOPE  C31419001   5.172   6.483   7.982  0.1921  0.2307 -0.2901
  168SOPE  H14X19002   5.236   6.451   8.067 -2.4970 -1.7462  1.1821
  168SOPE  H14Y19003   5.197   6.591   7.978 -0.7930  0.4567 -0.6460
  168SOPE  C31519004   5.227   6.394   7.870 -0.1744 -0.2759 -1.1218
  168SOPE  H15X19005   5.177   6.419   7.774  0.7154 -1.3491 -1.8889
  168SOPE  H15Y19006   5.198   6.287   7.886 -1.6888  0.3517  0.8893
  168SOPE  C31619007   5.376   6.408   7.864  0.7695 -0.5956 -0.2785
  168SOPE  H16X19008   5.439   6.373   7.948 -0.9546 -0.4805  1.1187
  168SOPE  H16Y19009   5.389   6.517   7.847 -2.0059 -0.4705 -2.3074
  168SOPE  C31719010   5.437   6.330   7.738  0.1401 -0.9731  0.2640
  168SOPE  H17X19011   5.538   6.369   7.714 -0.7379  0.8552 -0.6908
  168SOPE  H17Y19012   5.370   6.350   7.651 -0.1096  0.5768  0.7704
  168SOPE  C31819013   5.461   6.179   7.746 -0.4281  0.1340  0.0863
  168SOPE  H18X19014   5.514   6.148   7.839  1.6859 -1.0373 -1.4349
  168SOPE  H18Y19015   5.504   6.126   7.659  0.7113  1.6395 -0.3093
  168SOPE  H18Z19016   5.359   6.138   7.759 -1.0577  2.0127  1.6077
  169SOPE     N19017   5.952   4.853   6.425  0.1324  0.0483  0.1967
  169SOPE   HN119018   5.850   4.874   6.425  0.2905  0.8662  1.2661
  169SOPE   HN219019   5.987   4.830   6.329 -2.9820 -3.1160 -0.4021
  169SOPE   HN319020   5.979   4.770   6.483  1.8154  0.8983  0.6815
  169SOPE   C1219021   6.022   4.978   6.472 -0.0694 -0.2488  0.0909
  169SOPE  H12A19022   6.111   4.938   6.526  0.5706  0.6910 -0.2394
  169SOPE  H12B19023   5.960   5.036   6.544  3.0594  1.7661  1.4290
  169SOPE   C1119024   6.064   5.073   6.352 -0.0679 -0.8977 -0.3983
  169SOPE  H11A19025   6.114   5.161   6.398  0.4970 -2.1851  1.5559
  169SOPE  H11B19026   5.967   5.110   6.312 -0.2244 -1.0456 -0.1613
  169SOPE     P19027   6.294   4.986   6.255 -0.0275 -0.7019 -0.4139
  169SOPE   O1319028   6.338   5.112   6.189  0.0858  0.7788 -0.2199
  169SOPE   O1419029   6.327   4.855   6.183  0.2998  0.4106 -0.0840
  169SOPE   O1219030   6.136   4.995   6.262  0.2778 -0.1433 -0.1507
  169SOPE   O1119031   6.346   4.982   6.405  0.6214 -0.0723 -0.0968
  169SOPE    C119032   6.422   4.876   6.454 -0.0077  1.2972 -0.9072
  169SOPE    HA19033   6.527   4.893   6.421  0.0091 -0.6904 -2.0015
  169SOPE    HB19034   6.388   4.777   6.419 -2.5069  2.4519 -2.0210
  169SOPE    C219035   6.418   4.861   6.606 -0.2409 -0.4829 -0.2669
  169SOPE    HS19036   6.313   4.865   6.643 -0.5686 -1.6514 -1.0130
  169SOPE   O2119037   6.514   4.954   6.671  0.8910 -0.1401 -0.3414
  169SOPE   C2119038   6.460   5.013   6.775 -0.2020  0.1926  0.7763
  169SOPE   O2219039   6.352   4.983   6.818  0.0947  0.2842 -0.0410
  169SOPE   C2219040   6.535   5.131   6.813  0.6720  0.1402  0.1921
  169SOPE   H2R19041   6.526   5.212   6.738 -2.3643  0.1312  0.4311
  169SOPE   H2S19042   6.643   5.102   6.816  1.1086  1.7403  2.1630
  169SOPE    C319043   6.466   4.719   6.652 -0.1237 -0.0308  0.4172
  169SOPE    HX19044   6.573   4.707   6.627  0.1614  0.5414  1.2933
  169SOPE    HY19045   6.406   4.641   6.600  0.1838  1.0432 -1.6239
  169SOPE   O3119046   6.449   4.695   6.794  0.0641  0.4553 -0.2319
  169SOPE   C3119047   6.323   4.658   6.838 -0.2053  0.2373  0.0384
  169SOPE   O3219048   6.228   4.642   6.764 -0.1774 -0.1259  0.3347
  169SOPE   C3219049   6.315   4.648   6.986 -0.7186 -0.3729  0.0424
  169SOPE   H2X19050   6.395   4.714   7.025 -1.8018  1.0625 -0.0500
  169SOPE   H2Y19051   6.337   4.544   7.019 -1.9585 -0.5747  0.3038
  169SOPE   C2319052   6.505   5.177   6.957 -0.0929  0.2709 -0.2149
  169SOPE   H3R19053   6.400   5.211   6.970  0.0086  0.4630  0.1148
  169SOPE   H3S19054   6.575   5.259   6.985  0.9144  0.1429 -2.1946
  169SOPE   C2419055   6.536   5.062   7.060  0.1667  0.0579 -0.2077
  169SOPE   H4R19056   6.455   4.986   7.053 -0.8318  1.1350 -0.6710
  169SOPE   H4S19057   6.627   5.002   7.036 -0.0445  0.0839 -1.1291
  169SOPE   C2519058   6.529   5.100   7.211 -0.5835 -0.1677 -0.2933
  169SOPE   H5R19059   6.604   5.180   7.228 -1.1184  0.1549  0.6675
  169SOPE   H5S19060   6.429   5.148   7.224 -0.7642 -0.9484  1.6657
  169SOPE   C2619061   6.547   4.977   7.305  0.3963 -0.5743  0.1320
  169SOPE   H6R19062   6.455   4.916   7.316  1.6362 -2.2098  2.1796
  169SOPE   H6S19063   6.628   4.910   7.266  0.7375  0.1895 -0.4884
  169SOPE   C2719064   6.570   5.035   7.449  0.4072 -0.5093  1.0242
  169SOPE   H7R19065   6.655   5.106   7.451  1.4536 -1.6096 -0.7286
  169SOPE   H7S19066   6.481   5.101   7.458  1.1854  0.9319 -1.0371
  169SOPE   C2819067   6.594   4.930   7.561 -0.1017 -0.1474  0.5963
  169SOPE   H8R19068   6.695   4.886   7.546 -0.3939 -0.6480  0.0114
  169SOPE   H8S19069   6.589   4.994   7.651 -0.7176  1.8560 -0.8002
  169SOPE   C2919070   6.489   4.827   7.562  0.2371  0.0854  0.3570
  169SOPE   H9119071   6.520   4.738   7.504 -0.2309  0.0720  0.1139
  169SOPE  C21019072   6.374   4.834   7.629  0.0229  0.6722 -0.1409
  169SOPE  H10119073   6.297   4.756   7.616  1.0387 -0.4068  0.1748
  169SOPE  C21119074   6.329   4.954   7.709 -0.2015 -0.4090  0.5918
  169SOPE  H11R19075   6.235   4.995   7.666  0.4906  0.2966 -0.3005
  169SOPE  H11S19076   6.389   5.047   7.700 -2.4847  1.1911  1.1319
  169SOPE  C21219077   6.299   4.921   7.857  0.7108  0.3737  0.1095
  169SOPE  H12R19078   6.397   4.896   7.905  0.4313 -1.4472 -0.2065
  169SOPE  H12S19079   6.222   4.841   7.863  1.8141 -0.9161 -1.8101
  169SOPE  C21319080   6.228   5.036   7.930  0.7706 -0.5137 -0.2577
  169SOPE  H13R19081   6.129   5.045   7.881  1.8673  0.8153 -2.4068
  169SOPE  H13S19082   6.277   5.136   7.928  0.4246 -0.3162  0.8246
  169SOPE  C21419083   6.208   5.010   8.081  0.1758  0.4064 -0.4106
  169SOPE  H14R19084   6.156   4.914   8.103 -2.8715  1.8915 -0.6951
  169SOPE  H14S19085   6.156   5.095   8.130 -1.9000 -2.1561  2.2052
  169SOPE  C21519086   6.335   5.007   8.160 -0.1575 -0.0486  0.0053
  169SOPE  H15R19087   6.393   5.100   8.141  0.0390 -0.2729 -0.5096
  169SOPE  H15S19088   6.392   4.925   8.112 -2.4717 -1.2685 -0.8206
  169SOPE  C21619089   6.318   4.984   8.311  0.7537  0.2530  0.2944
  169SOPE  H16R19090   6.274   4.881   8.310 -0.0233  0.5681 -1.1265
  169SOPE  H16S19091   6.252   5.061   8.355  1.6475  2.6323 -2.2274
  169SOPE  C21719092   6.451   4.968   8.383 -0.1292 -0.2280  0.0631
  169SOPE  H17R19093   6.511   5.056   8.351 -1.2557  0.7273  0.5057
  169SOPE  H17S19094   6.507   4.878   8.348  1.5769 -0.6566  3.5172
  169SOPE  C21819095   6.441   4.955   8.536 -0.3159 -0.0153 -0.2998
  169SOPE  H18R19096   6.539   4.939   8.587 -1.2073 -2.5761  0.7218
  169SOPE  H18S19097   6.376   4.871   8.567 -0.6637  0.0256 -0.9059
  169SOPE  H18T19098   6.388   5.045   8.575  3.4371  1.8724  1.0390
  169SOPE   C3319099   6.182   4.692   7.056  0.2819 -0.1951  0.0092
  169SOPE   H3X19100   6.118   4.603   7.073  0.4544  0.0237  2.0762
  169SOPE   H3Y19101   6.120   4.755   6.988 -2.0107 -1.7107  0.5839
  169SOPE   C3419102   6.193   4.741   7.193 -0.8038  0.2457  0.6946
  169SOPE   H4X19103   6.251   4.836   7.188  0.4657 -0.5580 -0.8335
  169SOPE   H4Y19104   6.257   4.662   7.238 -0.6432 -1.6870 -2.5951
  169SOPE   C3519105   6.060   4.752   7.265  0.1026 -0.1981 -0.2276
  169SOPE   H5X19106   6.003   4.660   7.238  0.8862 -0.1193 -2.2937
  169SOPE   H5Y19107   6.006   4.839   7.222 -0.0585 -0.1799  0.0064
  169SOPE   C3619108   6.080   4.753   7.420  0.4146 -0.0613  0.7996
  169SOPE   H6X19109   6.153   4.832   7.448  0.1311  0.5144 -0.0340
  169SOPE   H6Y19110   6.117   4.655   7.457 -2.0208 -0.1115  3.5050
  169SOPE   C3719111   5.950   4.771   7.505  0.5150  0.2197  0.0708
  169SOPE   H7X19112   5.873   4.696   7.476 -1.2013  1.6599  0.6634
  169SOPE   H7Y19113   5.904   4.872   7.502 -1.1541 -0.5359 -1.8332
  169SOPE   C3819114   5.975   4.744   7.654  0.4413 -0.2175  0.3416
  169SOPE   H8X19115   6.027   4.645   7.649  0.4287 -0.1660 -1.5315
  169SOPE   H8Y19116   6.041   4.820   7.701  0.3526  1.5010 -2.1156
  169SOPE   C3919117   5.844   4.759   7.737  0.8322  1.0029 -0.8014
  169SOPE   H9X19118   5.763   4.709   7.679  0.2638 -1.1335  1.6744
  169SOPE   H9Y19119   5.826   4.868   7.747  0.6306  0.8892  0.1753
  169SOPE  C31019120   5.852   4.705   7.885  0.0403 -0.0760 -0.1922
  169SOPE  H10X19121   5.912   4.612   7.872  1.4520  0.4025  2.3844
  169SOPE  H10Y19122   5.753   4.692   7.934  0.5507 -3.2346  0.2128
  169SOPE  C31119123   5.924   4.799   7.990  0.3786  0.6939  0.5484
  169SOPE  H11X19124   5.866   4.893   7.983 -1.9100 -0.7240 -1.1620
  169SOPE  H11Y19125   6.030   4.813   7.961  0.0911  0.6306 -0.6074
  169SOPE  C31219126   5.929   4.739   8.131 -0.5244 -0.1199 -0.4026
  169SOPE  H12X19127   5.829   4.745   8.178  0.7775  2.7417  2.4434
  169SOPE  H12Y19128   5.994   4.805   8.193  0.9180 -1.2873 -0.5984
  169SOPE  C31319129   5.992   4.601   8.139  0.6201  0.0641  0.4940
  169SOPE  H13X19130   6.070   4.598   8.060  1.2898 -2.6016  1.1456
  169SOPE  H13Y19131   5.910   4.529   8.119 -0.9921  1.4457  1.8845
  169SOPE  C31419132   6.049   4.580   8.277  1.0306  0.5167  0.4039
  169SOPE  H14X19133   5.976   4.622   8.349 -0.8132 -2.5059  0.4382
  169SOPE  H14Y19134   6.141   4.642   8.283  0.7434  0.9899  0.0297
  169SOPE  C31519135   6.064   4.432   8.313  0.4707 -0.4907  0.4429
  169SOPE  H15X19136   6.133   4.386   8.239  1.4154  1.7772 -0.1573
  169SOPE  H15Y19137   5.963   4.387   8.306 -0.7701  2.2925 -0.8093
  169SOPE  C31619138   6.116   4.421   8.458  0.1596  0.5231  0.0975
  169SOPE  H16X19139   6.048   4.482   8.522 -1.7177 -1.0229 -0.3068
  169SOPE  H16Y19140   6.215   4.467   8.472  0.3188  0.5915 -1.1220
  169SOPE  C31719141   6.112   4.276   8.510 -0.7165  0.2290 -0.3075
  169SOPE  H17X19142   6.013   4.236   8.476 -0.6854 -0.1107  0.0028
  169SOPE  H17Y19143   6.101   4.275   8.620 -1.6596  1.3957 -0.3579
  169SOPE  C31819144   6.216   4.169   8.467  0.3083 -0.2658  0.3142
  169SOPE  H18X19145   6.315   4.195   8.510  0.9628 -0.3182 -1.1035
  169SOPE  H18Y19146   6.219   4.160   8.356 -0.6144  3.3911 -0.1400
  169SOPE  H18Z19147   6.184   4.077   8.519 -0.8034 -0.2047 -0.2317
  170SOPE     N19148   0.806   5.877   6.098 -0.2512 -0.2685 -0.0149
  170SOPE   HN119149   0.736   5.948   6.068 -0.1313 -0.2705 -0.2997
  170SOPE   HN219150   0.883   5.937   6.135 -1.9659  1.9060  0.2935
  170SOPE   HN319151   0.848   5.832   6.014  2.3372 -0.0821  1.0922
  170SOPE   C1219152   0.759   5.793   6.212 -0.6603  0.3435  0.8825
  170SOPE  H12A19153   0.850   5.740   6.246 -0.8166 -0.9108 -0.5582
  170SOPE  H12B19154   0.684   5.719   6.175 -0.5493  0.9252 -0.5994
  170SOPE   C1119155   0.693   5.887   6.309 -0.5429 -0.0123 -1.4024
  170SOPE  H11A19156   0.769   5.958   6.347 -1.6150  0.4937 -0.1287
  170SOPE  H11B19157   0.672   5.826   6.399 -0.4539 -2.4038 -2.9092
  170SOPE     P19158   0.449   5.891   6.226  0.2117 -0.0310 -0.2329
  170SOPE   O1319159   0.465   5.788   6.126 -0.3365 -0.0321  0.5335
  170SOPE   O1419160   0.340   5.990   6.199  0.4300 -0.5147 -0.1599
  170SOPE   O1219161   0.585   5.961   6.259 -0.3067 -0.4376  0.3021
  170SOPE   O1119162   0.415   5.826   6.362  0.4645  0.1422  0.4279
  170SOPE    C119163   0.371   5.918   6.464  0.2303 -0.2080 -0.3744
  170SOPE    HA19164   0.265   5.902   6.493  1.1058 -1.7780  2.3081
  170SOPE    HB19165   0.388   6.026   6.441  3.6397 -0.1580  1.6048
  170SOPE    C219166   0.447   5.890   6.600  0.0167 -0.2299  0.1051
  170SOPE    HS19167   0.549   5.926   6.575 -0.5188 -0.1309 -2.1025
  170SOPE   O2119168   0.439   5.748   6.622  0.7037  0.4321 -0.4615
  170SOPE   C2119169   0.558   5.692   6.636 -0.4406 -0.5583 -0.2335
  170SOPE   O2219170   0.663   5.757   6.635 -0.2904 -0.3292  0.8313
  170SOPE   C2219171   0.549   5.532   6.644 -0.2366 -1.1296 -0.2034
  170SOPE   H2R19172   0.579   5.492   6.545  0.8720  0.3182 -0.4872
  170SOPE   H2S19173   0.443   5.506   6.660 -1.1117  1.8456 -0.4458
  170SOPE    C319174   0.382   5.964   6.724  0.5996 -0.4137  0.0320
  170SOPE    HX19175   0.276   5.933   6.729  0.2249  0.8106  0.0188
  170SOPE    HY19176   0.390   6.074   6.706  1.2269 -0.6891 -1.4895
  170SOPE   O3119177   0.444   5.938   6.855  0.1582  0.0371 -0.1655
  170SOPE   C3119178   0.560   5.996   6.873 -0.6815  0.5159  0.1205
  170SOPE   O3219179   0.630   6.047   6.788 -0.2636 -0.1027 -0.4016
  170SOPE   C3219180   0.613   5.982   7.017  0.1174  0.6276  1.1455
  170SOPE   H2X19181   0.628   6.082   7.065  0.0113  1.8147 -1.1541
  170SOPE   H2Y19182   0.710   5.928   7.011 -1.4234 -2.5312  2.7549
  170SOPE   C2319183   0.640   5.471   6.753 -0.4560 -0.0365 -0.2452
  170SOPE   H3R19184   0.746   5.500   6.742 -0.1643 -1.3212 -1.1349
  170SOPE   H3S19185   0.645   5.360   6.745  1.8508 -0.1856  2.0183
  170SOPE   C2419186   0.575   5.481   6.891 -0.2509 -0.4400  0.0597
  170SOPE   H4R19187   0.576   5.589   6.918 -2.8381 -0.3888  0.2904
  170SOPE   H4S19188   0.467   5.453   6.883  0.0954 -1.8360  0.1043
  170SOPE   C2519189   0.630   5.379   6.995 -0.1343 -0.1987  0.1068
  170SOPE   H5R19190   0.608   5.275   6.963  1.2072 -0.0632 -1.4111
  170SOPE   H5S19191   0.740   5.395   7.004  0.0628 -1.0399 -0.5957
  170SOPE   C2619192   0.572   5.390   7.133 -0.5417  0.9857 -0.2764
  170SOPE   H6R19193   0.560   5.499   7.153  1.0353  0.9553  1.0468
  170SOPE   H6S19194   0.477   5.334   7.148 -0.1476  0.5350  0.6658
  170SOPE   C2719195   0.656   5.322   7.243  0.1329 -0.8327 -0.4838
  170SOPE   H7R19196   0.662   5.214   7.219  0.6996 -1.2955  1.5889
  170SOPE   H7S19197   0.758   5.365   7.238 -0.1334  0.4083  2.6779
  170SOPE   C2819198   0.596   5.339   7.388 -0.5218  0.6897  0.0288
  170SOPE   H8R19199   0.514   5.266   7.403  0.7789 -0.7993  0.1196
  170SOPE   H8S19200   0.672   5.305   7.461  2.4542  1.9349 -2.2664
  170SOPE   C2919201   0.539   5.473   7.422  0.6230  0.3919  0.2141
  170SOPE   H9119202   0.432   5.488   7.400 -0.0953 -0.0174  3.0316
  170SOPE  C21019203   0.600   5.566   7.498  0.5295 -0.6385  0.7001
  170SOPE  H10119204   0.549   5.658   7.529  1.8366  0.6111 -0.6887
  170SOPE  C21119205   0.734   5.546   7.564 -0.7349  0.0450  0.4504
  170SOPE  H11R19206   0.790   5.638   7.539 -2.4173  0.2581 -3.1865
  170SOPE  H11S19207   0.791   5.473   7.502 -1.1959 -0.0986  0.1883
  170SOPE  C21219208   0.743   5.516   7.713 -0.2335  0.1952 -0.2031
  170SOPE  H12R19209   0.853   5.505   7.727  0.5318  2.2500 -3.3987
  170SOPE  H12S19210   0.691   5.421   7.734  0.7314 -0.5739 -1.1722
  170SOPE  C21319211   0.697   5.631   7.803 -0.0284 -0.2122  0.3459
  170SOPE  H13R19212   0.595   5.668   7.778 -0.0496 -0.8172 -0.4830
  170SOPE  H13S19213   0.765   5.719   7.799 -0.0142 -0.2596 -0.9060
  170SOPE  C21419214   0.686   5.588   7.943  0.2908 -0.1442 -0.2928
  170SOPE  H14R19215   0.783   5.542   7.971  2.0651  1.7235 -2.8354
  170SOPE  H14S19216   0.611   5.510   7.966 -1.1558  1.3404  0.3068
  170SOPE  C21519217   0.656   5.712   8.029  0.3069 -0.3720 -0.1923
  170SOPE  H15R19218   0.570   5.770   7.988 -0.4873 -2.0962 -1.1018
  170SOPE  H15S19219   0.750   5.771   8.028  2.0170 -2.8634  1.2644
  170SOPE  C21619220   0.630   5.675   8.174  0.4916  0.3251 -0.2809
  170SOPE  H16R19221   0.705   5.602   8.210  1.6404  1.4208 -0.3910
  170SOPE  H16S19222   0.528   5.631   8.179 -0.1845  1.4230 -2.8120
  170SOPE  C21719223   0.613   5.799   8.266 -0.0848  0.1220 -0.1554
  170SOPE  H17R19224   0.539   5.860   8.210  0.2868  1.0265  0.3102
  170SOPE  H17S19225   0.705   5.861   8.280  0.2365 -0.0924 -1.1915
  170SOPE  C21819226   0.569   5.762   8.411  0.2100  0.8402 -0.6921
  170SOPE  H18R19227   0.547   5.859   8.460 -0.9167  0.2155  0.0661
  170SOPE  H18S19228   0.643   5.709   8.474 -1.3278  0.0019  0.4599
  170SOPE  H18T19229   0.471   5.710   8.409 -0.5228  2.1858 -1.1657
  170SOPE   C3319230   0.538   5.891   7.113 -0.0588  0.1707  0.3271
  170SOPE   H3X19231   0.509   5.796   7.063  1.7609 -0.1311 -0.2391
  170SOPE   H3Y19232   0.452   5.952   7.149  0.4573  0.1741  1.5711
  170SOPE   C3419233   0.626   5.846   7.234  0.1985  0.1031  0.2101
  170SOPE   H4X19234   0.719   5.795   7.200 -0.8834 -0.7864 -1.5285
  170SOPE   H4Y19235   0.582   5.768   7.300  3.0095  0.7308  3.0909
  170SOPE   C3519236   0.672   5.956   7.332 -0.3546  0.3413 -0.2714
  170SOPE   H5X19237   0.709   6.037   7.265  0.9778 -0.0716 -0.0580
  170SOPE   H5Y19238   0.749   5.917   7.401 -1.3008  1.1013  1.2676
  170SOPE   C3619239   0.568   6.025   7.421 -0.6687  0.0983 -0.2895
  170SOPE   H6X19240   0.516   5.946   7.480 -0.0277  0.5227  0.8651
  170SOPE   H6Y19241   0.493   6.066   7.349  0.0354  0.6059 -0.7451
  170SOPE   C3719242   0.628   6.138   7.501  0.1266  0.2281  0.9682
  170SOPE   H7X19243   0.553   6.204   7.549  0.7336  1.7328 -0.1065
  170SOPE   H7Y19244   0.683   6.195   7.424  2.0781  0.4204  2.4305
  170SOPE   C3819245   0.727   6.102   7.613 -0.1523 -0.7319 -0.4450
  170SOPE   H8X19246   0.775   6.198   7.644 -0.9605 -0.5424  0.2400
  170SOPE   H8Y19247   0.805   6.027   7.589  0.1631 -0.6503  0.2799
  170SOPE   C3919248   0.654   6.052   7.738  0.0581  0.4020 -0.3028
  170SOPE   H9X19249   0.647   5.941   7.744  1.4050  0.2621 -0.9107
  170SOPE   H9Y19250   0.547   6.082   7.732 -0.1987 -0.7513 -2.0678
  170SOPE  C31019251   0.734   6.086   7.868  0.5831 -0.3471 -0.0946
  170SOPE  H10X19252   0.814   6.162   7.855  0.9595 -0.6100  0.6456
  170SOPE  H10Y19253   0.777   5.992   7.910  0.6696 -0.4322 -0.3678
  170SOPE  C31119254   0.639   6.139   7.974  0.0240 -0.0335 -0.4035
  170SOPE  H11X19255   0.557   6.065   7.989 -0.1449  0.4859  1.4237
  170SOPE  H11Y19256   0.587   6.230   7.937 -0.4802 -0.3196 -0.4081
  170SOPE  C31219257   0.708   6.148   8.115 -0.0548 -0.6815  0.5074
  170SOPE  H12X19258   0.793   6.217   8.099  1.6354 -2.9685 -1.2139
  170SOPE  H12Y19259   0.740   6.042   8.126 -0.4861 -0.8389  0.2798
  170SOPE  C31319260   0.616   6.183   8.238 -0.3812  0.0461  0.2727
  170SOPE  H13X19261   0.673   6.162   8.331  1.1513  0.1717 -0.6068
  170SOPE  H13Y19262   0.534   6.110   8.223 -0.9028  0.9577 -1.6251
  170SOPE  C31419263   0.572   6.333   8.229  0.0404 -0.3948 -1.5774
  170SOPE  H14X19264   0.532   6.342   8.125 -2.0482  1.0818 -0.7141
  170SOPE  H14Y19265   0.667   6.387   8.245  1.3676 -2.6547 -1.4126
  170SOPE  C31519266   0.471   6.383   8.336 -0.4917  0.6216  0.4741
  170SOPE  H15X19267   0.518   6.381   8.437 -0.9289  1.2492  0.6936
  170SOPE  H15Y19268   0.389   6.309   8.342  0.7960 -0.9994 -1.0415
  170SOPE  C31619269   0.424   6.527   8.306  0.0002  0.7890  0.8760
  170SOPE  H16X19270   0.513   6.589   8.281  0.7690 -1.1857 -1.7117
  170SOPE  H16Y19271   0.377   6.577   8.394 -0.8988  0.8724  0.3582
  170SOPE  C31719272   0.334   6.540   8.184  0.8474 -0.0560 -0.1990
  170SOPE  H17X19273   0.251   6.466   8.180  0.2185  0.5853  0.6253
  170SOPE  H17Y19274   0.403   6.519   8.100  0.8628 -2.4014  0.3342
  170SOPE  C31819275   0.268   6.679   8.164  0.4270  0.5005  0.3234
  170SOPE  H18X19276   0.337   6.758   8.128  3.8241 -1.3906  2.1479
  170SOPE  H18Y19277   0.218   6.714   8.257 -0.2718  2.5398 -0.7600
  170SOPE  H18Z19278   0.194   6.666   8.082  0.1574 -3.0646  0.9343
  171SOPE     N19279   0.216   1.202   6.347 -0.1134 -0.7204 -0.2140
  171SOPE   HN119280   0.257   1.244   6.433  2.8494  2.0785 -2.6988
  171SOPE   HN219281   0.115   1.183   6.361  0.1951 -1.0672  1.8788
  171SOPE   HN319282   0.264   1.110   6.339  2.7825  0.6614 -0.1704
  171SOPE   C1219283   0.247   1.308   6.243  0.0111  0.5267 -0.5843
  171SOPE  H12A19284   0.247   1.256   6.145 -0.4635 -0.1343 -0.2361
  171SOPE  H12B19285   0.353   1.343   6.251 -0.1165  0.7016  0.4782
  171SOPE   C1119286   0.157   1.432   6.256 -0.1723  0.5512  0.5567
  171SOPE  H11A19287   0.055   1.420   6.214 -0.2850  2.3871  0.2345
  171SOPE  H11B19288   0.202   1.505   6.185  0.8504  0.4034  1.0266
  171SOPE     P19289   0.196   1.622   6.413 -0.7470 -0.3320 -0.0475
  171SOPE   O1319290   0.080   1.701   6.363 -0.2728  0.1913 -0.3804
  171SOPE   O1419291   0.330   1.638   6.356  0.0613  0.0824 -0.0725
  171SOPE   O1219292   0.155   1.473   6.389  0.1183 -0.5372 -0.2480
  171SOPE   O1119293   0.205   1.638   6.566 -0.1665  0.5180 -0.5490
  171SOPE    C119294   0.176   1.527   6.650 -0.5741  0.7707  0.0090
  171SOPE    HA19295   0.219   1.547   6.751  1.0282  1.5105 -0.7837
  171SOPE    HB19296   0.238   1.439   6.622 -0.3136  0.5025  1.3231
  171SOPE    C219297   0.023   1.505   6.674  0.6684  0.0639  0.1421
  171SOPE    HS19298  -0.024   1.515   6.574 -3.1436  0.5583  1.8432
  171SOPE   O2119299  -0.025   1.616   6.749  0.5908  0.1073 -0.3366
  171SOPE   C2119300  -0.155   1.619   6.773  0.2897  0.3838 -0.0311
  171SOPE   O2219301  -0.233   1.533   6.740  0.0664 -0.2630 -0.3589
  171SOPE   C2219302  -0.198   1.753   6.825  0.3233  0.1797 -0.7480
  171SOPE   H2R19303  -0.153   1.827   6.755 -0.4462 -0.0314 -1.4934
  171SOPE   H2S19304  -0.158   1.769   6.927 -0.4260 -2.1871 -0.0173
  171SOPE    C319305   0.002   1.361   6.734  0.1610 -0.0534 -0.1410
  171SOPE    HX19306   0.068   1.298   6.671  3.6738  2.1663  1.0597
  171SOPE    HY19307  -0.106   1.335   6.726  0.0133 -0.2347  1.9204
  171SOPE   O3119308   0.049   1.351   6.871 -0.4285 -0.4196 -0.2045
  171SOPE   C3119309  -0.022   1.284   6.958  0.0448  0.6820 -0.4926
  171SOPE   O3219310  -0.113   1.212   6.933  0.1822 -0.2347 -0.4974
  171SOPE   C3219311   0.020   1.323   7.092  0.1111  0.0640 -0.0585
  171SOPE   H2X19312   0.029   1.433   7.092  0.7896  0.0164 -0.5400
  171SOPE   H2Y19313   0.126   1.295   7.108  0.0653  1.5549  3.6682
  171SOPE   C2319314  -0.354   1.780   6.828  0.0512  0.2502  0.6711
  171SOPE   H3R19315  -0.396   1.738   6.734 -2.4669 -1.0077  2.2707
  171SOPE   H3S19316  -0.375   1.889   6.829  0.3806  0.3167  0.7290
  171SOPE   C2419317  -0.433   1.701   6.934 -0.1294 -0.1426  0.0056
  171SOPE   H4R19318  -0.530   1.755   6.936 -0.7019 -1.0895 -1.3125
  171SOPE   H4S19319  -0.449   1.593   6.913  2.6311 -0.8334  1.0653
  171SOPE   C2519320  -0.373   1.712   7.076 -0.5191 -0.2677 -0.0239
  171SOPE   H5R19321  -0.290   1.640   7.093 -0.1011 -0.1198 -1.3000
  171SOPE   H5S19322  -0.338   1.817   7.080 -1.3921  0.1080 -1.5263
  171SOPE   C2619323  -0.470   1.693   7.190 -0.3962 -0.2421 -0.1500
  171SOPE   H6R19324  -0.568   1.740   7.167 -0.6045 -0.5087  0.1851
  171SOPE   H6S19325  -0.487   1.584   7.196  0.6801 -0.3467  1.9884
  171SOPE   C2719326  -0.407   1.750   7.323  0.3443 -0.6750 -0.2434
  171SOPE   H7R19327  -0.389   1.857   7.302 -1.3296  0.2180  2.3827
  171SOPE   H7S19328  -0.481   1.748   7.406  2.2006  0.6357  1.5747
  171SOPE   C2819329  -0.291   1.677   7.387  0.0033  0.2687 -0.0084
  171SOPE   H8R19330  -0.217   1.659   7.306 -2.2460 -2.0089 -1.7191
  171SOPE   H8S19331  -0.234   1.742   7.457  1.0296  0.8226 -1.3032
  171SOPE   C2919332  -0.326   1.540   7.445  0.3634  0.1898 -1.0397
  171SOPE   H9119333  -0.325   1.454   7.377  0.0625  0.6541 -1.6390
  171SOPE  C21019334  -0.372   1.518   7.567  0.2170 -0.4530 -0.9493
  171SOPE  H10119335  -0.402   1.418   7.602 -3.0830  0.9183  0.5345
  171SOPE  C21119336  -0.395   1.625   7.675 -0.7047 -0.4332  0.0207
  171SOPE  H11R19337  -0.506   1.635   7.681 -1.0471 -2.6671 -1.5311
  171SOPE  H11S19338  -0.340   1.716   7.643  0.4895 -1.1983 -0.1495
  171SOPE  C21219339  -0.357   1.599   7.822  0.6279  0.2828  1.2276
  171SOPE  H12R19340  -0.377   1.699   7.867  0.4409  0.5591  0.5507
  171SOPE  H12S19341  -0.248   1.577   7.822  0.8220  1.1066 -0.0959
  171SOPE  C21319342  -0.431   1.489   7.886 -0.2465  0.0059  0.0591
  171SOPE  H13R19343  -0.431   1.393   7.829 -0.1965  0.2790 -0.4080
  171SOPE  H13S19344  -0.541   1.505   7.889 -0.5343 -1.4482 -1.3085
  171SOPE  C21419345  -0.377   1.476   8.024  0.6336  0.1071  0.3288
  171SOPE  H14R19346  -0.267   1.488   8.025  0.4722  2.1728 -1.0271
  171SOPE  H14S19347  -0.406   1.377   8.066 -2.4930  0.4078 -0.8237
  171SOPE  C21519348  -0.433   1.588   8.114  0.4755 -0.0409  0.2214
  171SOPE  H15R19349  -0.405   1.690   8.081 -0.5807  1.0379  2.4620
  171SOPE  H15S19350  -0.381   1.576   8.212  0.6537  3.2726  0.6285
  171SOPE  C21619351  -0.580   1.582   8.152  0.2938  0.1467 -0.1098
  171SOPE  H16R19352  -0.600   1.477   8.183 -0.5026  0.0583 -0.8833
  171SOPE  H16S19353  -0.640   1.604   8.061 -0.9986  0.9315  0.9119
  171SOPE  C21719354  -0.639   1.674   8.260 -0.5015  0.1237 -0.7498
  171SOPE  H17R19355  -0.607   1.777   8.233 -0.3652  0.0989 -0.6831
  171SOPE  H17S19356  -0.593   1.648   8.358 -3.0991 -1.3019  0.2181
  171SOPE  C21819357  -0.795   1.674   8.264 -0.1125 -0.5256 -0.4021
  171SOPE  H18R19358  -0.839   1.592   8.325 -1.3047  0.5572  0.2471
  171SOPE  H18S19359  -0.834   1.651   8.163  0.8623 -1.2441 -0.6289
  171SOPE  H18T19360  -0.838   1.768   8.305 -1.7279 -1.2397 -0.3713
  171SOPE   C3319361  -0.064   1.269   7.207 -0.3420 -0.9051  0.0163
  171SOPE   H3X19362  -0.082   1.161   7.191 -1.4795 -0.9001  1.1360
  171SOPE   H3Y19363  -0.162   1.319   7.194  0.1114  0.6706  2.0831
  171SOPE   C3419364   0.016   1.294   7.339 -1.0838 -0.1393 -0.0894
  171SOPE   H4X19365   0.018   1.404   7.359  0.6475 -0.0738 -0.4170
  171SOPE   H4Y19366   0.120   1.254   7.335 -1.9383 -2.3481 -1.8340
  171SOPE   C3519367  -0.057   1.229   7.452 -0.4828 -0.4759  0.4920
  171SOPE   H5X19368  -0.036   1.120   7.455 -0.2841 -0.5769 -2.1781
  171SOPE   H5Y19369  -0.167   1.241   7.441 -0.7563 -1.3584  1.9805
  171SOPE   C3619370  -0.017   1.290   7.583 -0.2010  0.0319  0.2699
  171SOPE   H6X19371  -0.073   1.385   7.594 -1.3081 -0.4998 -0.6017
  171SOPE   H6Y19372   0.092   1.308   7.592 -0.0858  0.5558 -1.7098
  171SOPE   C3719373  -0.040   1.193   7.703  0.4240 -0.1532 -0.3203
  171SOPE   H7X19374   0.017   1.100   7.681 -1.8756 -1.2351 -2.1804
  171SOPE   H7Y19375  -0.145   1.160   7.691 -0.2075  2.1306 -1.6954
  171SOPE   C3819376  -0.031   1.248   7.849 -0.0354 -0.3038  0.4231
  171SOPE   H8X19377  -0.115   1.315   7.874  0.9795 -0.3934  4.7486
  171SOPE   H8Y19378   0.062   1.307   7.864 -0.4180  0.4079  0.0747
  171SOPE   C3919379  -0.043   1.132   7.940 -0.1338  0.5403 -0.0054
  171SOPE   H9X19380   0.057   1.086   7.955 -0.8443 -0.3501  2.4292
  171SOPE   H9Y19381  -0.110   1.054   7.899 -0.6958  1.4910 -0.9310
  171SOPE  C31019382  -0.086   1.177   8.076 -0.0461 -0.0903 -0.4746
  171SOPE  H10X19383  -0.196   1.194   8.080 -0.1165 -0.6436  0.3209
  171SOPE  H10Y19384  -0.032   1.266   8.115 -4.6080  2.0838  1.6461
  171SOPE  C31119385  -0.072   1.070   8.184  0.1580 -0.0912 -0.6141
  171SOPE  H11X19386   0.031   1.031   8.196  0.0002  0.0449  1.6146
  171SOPE  H11Y19387  -0.138   0.984   8.159 -1.9797  1.0481  0.8376
  171SOPE  C31219388  -0.123   1.117   8.324 -0.1050 -0.4302  0.1992
  171SOPE  H12X19389  -0.227   1.155   8.317 -0.6962 -1.6328  1.8064
  171SOPE  H12Y19390  -0.055   1.192   8.370  1.1579 -3.0637  2.9414
  171SOPE  C31319391  -0.116   1.005   8.428  0.1345  0.1536 -0.8418
  171SOPE  H13X19392  -0.014   0.962   8.430 -0.6429 -1.8102  1.7749
  171SOPE  H13Y19393  -0.187   0.928   8.391  0.8585  0.4951 -3.0841
  171SOPE  C31419394  -0.147   1.058   8.571 -0.7136  0.3289  0.2708
  171SOPE  H14X19395  -0.242   1.115   8.577 -1.5286 -1.1293  2.8176
  171SOPE  H14Y19396  -0.060   1.125   8.593 -0.7034  0.1365  0.8532
  171SOPE  C31519397  -0.181   0.959   8.676 -0.1305  0.7513 -0.2709
  171SOPE  H15X19398  -0.123   0.865   8.688 -1.6976 -0.3248 -0.7272
  171SOPE  H15Y19399  -0.288   0.932   8.660 -0.4017  2.3466 -1.2957
  171SOPE  C31619400  -0.173   1.008   8.819  0.0373  0.1125 -0.4341
  171SOPE  H16X19401  -0.211   1.111   8.837 -0.4935 -0.2571  0.6373
  171SOPE  H16Y19402  -0.068   0.997   8.853 -0.5722 -0.7168  1.3203
  171SOPE  C31719403  -0.247   0.926   8.921 -0.5110  0.1980 -0.0407
  171SOPE  H17X19404  -0.209   0.822   8.908 -0.2592 -0.2526  3.3506
  171SOPE  H17Y19405  -0.353   0.934   8.890 -0.5042 -0.7396 -0.3422
  171SOPE  C31819406  -0.229   0.976   9.061  0.4223  0.0849  0.2576
  171SOPE  H18X19407  -0.122   0.978   9.092 -0.1181  0.5250  2.2828
  171SOPE  H18Y19408  -0.289   0.912   9.129  0.4491 -0.9637 -0.6732
  171SOPE  H18Z19409  -0.273   1.077   9.062  1.6180  0.6404 -0.5786
  172SOPE     N19410   1.633   3.832   6.335 -0.1274 -0.0610  0.4742
  172SOPE   HN119411   1.685   3.915   6.300 -2.9832  2.0892  0.9645
  172SOPE   HN219412   1.563   3.821   6.260  0.0330 -0.4027  0.3691
  172SOPE   HN319413   1.577   3.852   6.420 -0.5118 -0.2587  0.2652
  172SOPE   C1219414   1.717   3.704   6.345 -0.3266 -0.4934 -0.2931
  172SOPE  H12A19415   1.750   3.703   6.451 -1.1473  2.4732  0.1002
  172SOPE  H12B19416   1.800   3.710   6.272  0.1985 -0.3217  0.3083
  172SOPE   C1119417   1.642   3.579   6.303 -0.6648  0.1605  0.2495
  172SOPE  H11A19418   1.597   3.588   6.202 -3.5995  0.4349  1.4902
  172SOPE  H11B19419   1.557   3.554   6.369 -1.2070 -0.9542 -0.8209
  172SOPE     P19420   1.793   3.410   6.444 -0.4068 -0.2378 -0.2454
  172SOPE   O1319421   1.897   3.511   6.494 -0.0629  0.0100  0.4546
  172SOPE   O1419422   1.838   3.274   6.414  0.6528  0.8288 -0.0714
  172SOPE   O1219423   1.736   3.474   6.307  0.1499  0.5045  0.4584
  172SOPE   O1119424   1.659   3.389   6.533  0.4951 -0.8106  0.0060
  172SOPE    C119425   1.669   3.362   6.671  0.5389 -0.1677 -0.0078
  172SOPE    HA19426   1.639   3.451   6.730  0.4437 -1.2082  1.5741
  172SOPE    HB19427   1.771   3.332   6.704  1.5025  1.2226 -1.5769
  172SOPE    C219428   1.574   3.245   6.703 -0.8836 -0.0824  0.5289
  172SOPE    HS19429   1.478   3.267   6.652 -1.1467  0.7520  1.3501
  172SOPE   O2119430   1.565   3.226   6.843 -0.0330  0.1281 -0.1186
  172SOPE   C2119431   1.447   3.185   6.893 -0.2554  0.1102 -0.1359
  172SOPE   O2219432   1.343   3.166   6.833 -0.4366 -0.2418  0.6641
  172SOPE   C2219433   1.459   3.176   7.050  0.2052 -0.0791 -0.3653
  172SOPE   H2R19434   1.461   3.277   7.096 -0.8899 -0.6524  1.0129
  172SOPE   H2S19435   1.553   3.124   7.079  0.7092  0.6201 -0.7366
  172SOPE    C319436   1.628   3.112   6.642 -0.0781 -0.2353  0.3416
  172SOPE    HX19437   1.729   3.088   6.680 -0.6937 -2.3414  0.7650
  172SOPE    HY19438   1.641   3.132   6.533  1.0478 -2.1012  0.0912
  172SOPE   O3119439   1.527   3.006   6.663 -0.4469  0.0265  0.0724
  172SOPE   C3119440   1.565   2.908   6.748  0.2592  0.5622 -0.5256
  172SOPE   O3219441   1.669   2.905   6.815  0.2258 -0.2424 -0.3703
  172SOPE   C3219442   1.459   2.802   6.751 -0.0512  0.9432  0.6302
  172SOPE   H2X19443   1.508   2.703   6.759 -1.3453  0.2089 -0.2141
  172SOPE   H2Y19444   1.399   2.814   6.659 -0.0802 -1.8062  0.2225
  172SOPE   C2319445   1.331   3.104   7.104  0.5073 -0.8481  0.2943
  172SOPE   H3R19446   1.326   2.995   7.087 -2.1165 -0.7440 -0.0272
  172SOPE   H3S19447   1.243   3.143   7.049 -1.1352 -0.3037  3.1602
  172SOPE   C2419448   1.304   3.141   7.251 -0.3664  0.4792  0.2470
  172SOPE   H4R19449   1.380   3.094   7.317  0.6999  0.5319 -0.9168
  172SOPE   H4S19450   1.309   3.250   7.266  3.9586  0.6165 -0.9992
  172SOPE   C2519451   1.167   3.085   7.305  0.2829  0.0677 -0.2161
  172SOPE   H5R19452   1.096   3.092   7.220  1.3000 -1.0128 -1.2041
  172SOPE   H5S19453   1.192   2.979   7.330  2.1175  0.3461 -0.7100
  172SOPE   C2619454   1.109   3.152   7.431 -0.0883 -0.3242 -0.0550
  172SOPE   H6R19455   1.180   3.140   7.516  0.9820  1.4677 -0.6381
  172SOPE   H6S19456   1.095   3.261   7.415  1.2099 -0.3543 -1.6502
  172SOPE   C2719457   0.976   3.086   7.462 -0.4916 -0.5556 -0.5539
  172SOPE   H7R19458   0.897   3.139   7.405  0.6170  0.6166 -1.0544
  172SOPE   H7S19459   0.974   2.979   7.429  1.7140 -0.8722  0.2041
  172SOPE   C2819460   0.948   3.083   7.615  0.9802  1.0356 -0.6314
  172SOPE   H8R19461   0.942   3.193   7.635 -2.3923  0.6574  1.1700
  172SOPE   H8S19462   0.845   3.044   7.628  1.9845 -2.2773 -1.8159
  172SOPE   C2919463   1.038   3.005   7.706 -0.4044 -0.1702 -0.1349
  172SOPE   H9119464   1.101   2.927   7.661  0.4127  0.0363  0.6231
  172SOPE  C21019465   1.049   3.018   7.837 -0.3468 -0.8238  0.0912
  172SOPE  H10119466   1.112   2.950   7.897 -0.7697 -0.1203  1.3778
  172SOPE  C21119467   0.979   3.111   7.928 -0.5628  0.2594  0.1742
  172SOPE  H11R19468   0.963   3.059   8.025 -1.1761 -0.2548 -0.1941
  172SOPE  H11S19469   0.874   3.126   7.897 -0.3372  0.3029 -0.5879
  172SOPE  C21219470   1.054   3.239   7.952  0.0196 -0.7396  0.4693
  172SOPE  H12R19471   0.990   3.316   8.001 -0.4371  1.6285 -3.3661
  172SOPE  H12S19472   1.074   3.284   7.852 -2.5547 -0.3760  0.0474
  172SOPE  C21319473   1.196   3.221   8.016  0.5505  0.2046 -0.5122
  172SOPE  H13R19474   1.252   3.315   8.003  0.6733  0.3062  0.6663
  172SOPE  H13S19475   1.243   3.134   7.966 -1.7326  0.1243 -2.7517
  172SOPE  C21419476   1.193   3.208   8.169 -0.8040 -0.1792  0.3807
  172SOPE  H14R19477   1.121   3.129   8.199 -1.9004 -0.2132 -2.0954
  172SOPE  H14S19478   1.129   3.293   8.201 -2.5508 -0.2838 -2.4683
  172SOPE  C21519479   1.330   3.193   8.231  0.2923 -0.4125 -0.3845
  172SOPE  H15R19480   1.311   3.204   8.340  0.1144  1.3712 -0.5601
  172SOPE  H15S19481   1.401   3.269   8.191 -0.2026  1.5634  2.2168
  172SOPE  C21619482   1.392   3.056   8.201  0.1323 -0.0919 -0.2889
  172SOPE  H16R19483   1.363   3.014   8.102  0.4588 -1.8232  0.3091
  172SOPE  H16S19484   1.365   2.987   8.283 -2.7635 -0.5329 -1.5002
  172SOPE  C21719485   1.544   3.051   8.173 -0.2258 -0.4204  0.1563
  172SOPE  H17R19486   1.578   3.151   8.142 -0.2606 -0.8116 -1.1875
  172SOPE  H17S19487   1.573   2.980   8.093  0.5268  0.1675 -0.1045
  172SOPE  C21819488   1.628   3.008   8.298  0.5666  0.2752 -0.3161
  172SOPE  H18R19489   1.731   3.048   8.280  0.5376  0.2710 -0.4859
  172SOPE  H18S19490   1.613   2.899   8.314 -3.3963  0.9407  1.7793
  172SOPE  H18T19491   1.594   3.053   8.394 -2.6290  2.5302 -2.3189
  172SOPE   C3319492   1.356   2.817   6.870  0.0883  0.0039  0.6989
  172SOPE   H3X19493   1.316   2.920   6.873  0.1767  0.0682 -0.0597
  172SOPE   H3Y19494   1.412   2.789   6.961  0.6337 -1.9250 -0.1707
  172SOPE   C3419495   1.240   2.719   6.866  0.9880 -0.2626  0.6295
  172SOPE   H4X19496   1.268   2.614   6.846 -0.5949 -0.2559 -2.0147
  172SOPE   H4Y19497   1.168   2.747   6.786  1.0541 -4.3937 -1.1005
  172SOPE   C3519498   1.156   2.742   6.995  0.0770  0.5383  0.4015
  172SOPE   H5X19499   1.053   2.717   6.962  0.5408 -0.2353 -0.5041
  172SOPE   H5Y19500   1.165   2.850   7.022  0.7082  0.8682 -1.0014
  172SOPE   C3619501   1.203   2.661   7.108  0.3857 -0.0748 -0.1764
  172SOPE   H6X19502   1.302   2.685   7.153  1.3550 -1.7008 -1.2980
  172SOPE   H6Y19503   1.214   2.557   7.069  0.6256  0.0118 -0.3400
  172SOPE   C3719504   1.101   2.671   7.227  0.3684  0.6419  0.0616
  172SOPE   H7X19505   1.001   2.636   7.196  0.4136 -0.5719  1.2044
  172SOPE   H7Y19506   1.089   2.780   7.242 -2.2527  0.9980 -3.3892
  172SOPE   C3819507   1.140   2.597   7.354 -0.5196 -0.7009  0.7005
  172SOPE   H8X19508   1.249   2.618   7.363 -0.8022  1.9724 -0.9502
  172SOPE   H8Y19509   1.125   2.489   7.333  0.7773 -0.8440  0.4090
  172SOPE   C3919510   1.060   2.649   7.468  0.4321  0.4651 -0.2262
  172SOPE   H9X19511   0.956   2.662   7.432 -0.5779  0.8272  2.5715
  172SOPE   H9Y19512   1.103   2.747   7.496 -1.3050  0.5186  2.6234
  172SOPE  C31019513   1.045   2.547   7.587  0.2260 -0.2653  0.6925
  172SOPE  H10X19514   1.147   2.509   7.608  0.8459  2.0867  2.3158
  172SOPE  H10Y19515   0.987   2.456   7.557  0.1760 -0.2384  0.7078
  172SOPE  C31119516   0.990   2.612   7.710  0.3428  0.1581 -0.8336
  172SOPE  H11X19517   0.898   2.666   7.681 -0.3622 -0.4011  0.2960
  172SOPE  H11Y19518   1.071   2.679   7.746  3.0649 -2.8100 -0.9863
  172SOPE  C31219519   0.959   2.518   7.825 -0.0717 -1.0138 -1.0435
  172SOPE  H12X19520   1.042   2.448   7.846 -0.6702 -1.3812  0.1712
  172SOPE  H12Y19521   0.878   2.446   7.801  0.1351 -1.4708 -0.3965
  172SOPE  C31319522   0.923   2.607   7.955 -0.7171  0.0280  0.5915
  172SOPE  H13X19523   0.834   2.673   7.951 -0.7431 -0.0672 -1.9788
  172SOPE  H13Y19524   1.010   2.672   7.978 -1.1152  0.3907  1.0833
  172SOPE  C31419525   0.903   2.509   8.072  0.6066  0.4909  0.1247
  172SOPE  H14X19526   0.964   2.417   8.061 -0.9187 -0.5045 -0.3617
  172SOPE  H14Y19527   0.801   2.467   8.062 -0.3064  2.1120  1.9635
  172SOPE  C31519528   0.921   2.582   8.206 -0.2779  0.3261 -0.3247
  172SOPE  H15X19529   0.830   2.644   8.226 -0.9804 -1.1014  1.0891
  172SOPE  H15Y19530   1.009   2.648   8.192 -0.1279  0.6678  1.8116
  172SOPE  C31619531   0.953   2.493   8.329  0.0163 -0.3107 -0.5645
  172SOPE  H16X19532   0.931   2.556   8.418 -0.1727 -0.6967 -0.3373
  172SOPE  H16Y19533   1.063   2.478   8.323 -0.0676 -0.4626 -3.0204
  172SOPE  C31719534   0.866   2.365   8.353  0.4794 -0.8288  0.6907
  172SOPE  H17X19535   0.889   2.278   8.287 -3.3759 -2.4716  1.2338
  172SOPE  H17Y19536   0.766   2.399   8.320  1.9968  1.6502 -1.7615
  172SOPE  C31819537   0.888   2.307   8.495  0.1426  0.2062 -0.3397
  172SOPE  H18X19538   0.836   2.363   8.576  1.0731  0.3572  0.1686
  172SOPE  H18Y19539   0.994   2.282   8.520  1.1911  0.7316 -3.7251
  172SOPE  H18Z19540   0.842   2.207   8.507 -0.2009  0.5108  1.1799
  173SAPI   C1219541   1.981   6.074  11.261  0.3725 -0.8037  0.0694
  173SAPI    H219542   1.986   6.184  11.252  0.6637 -0.7109  1.2780
  173SAPI    O219543   2.114   6.038  11.285  0.2486 -0.2344  0.4110
  173SAPI   HO219544   2.158   6.118  11.313 -1.0135  1.8060 -2.8516
  173SAPI   C1319545   1.885   6.043  11.375  0.4994 -0.3827  0.1282
  173SAPI    H319546   1.784   6.073  11.340  0.3310 -1.5397 -0.4266
  173SAPI    O319547   1.922   6.120  11.490  0.3605 -0.2411  0.3384
  173SAPI   HO319548   1.849   6.160  11.538  2.7605  1.7768  2.5792
  173SAPI   C1419549   1.879   5.892  11.399 -0.2885 -0.4579  0.0189
  173SAPI    H419550   1.986   5.870  11.421  0.0805  0.7439 -0.4666
  173SAPI    O419551   1.799   5.865  11.507  0.0339  0.0482 -0.3196
  173SAPI   HO419552   1.837   5.792  11.557  1.8623  0.3637 -1.1823
  173SAPI   C1519553   1.828   5.827  11.267 -0.0437 -0.3934 -0.8806
  173SAPI    H519554   1.725   5.856  11.236 -0.3207 -0.9708 -0.5255
  173SAPI    O519555   1.832   5.684  11.286 -0.6224  0.5032 -0.4871
  173SAPI   HO519556   1.772   5.653  11.218  1.1296  0.8284 -2.2999
  173SAPI   C1619557   1.911   5.870  11.142  0.8032  0.5690 -0.0548
  173SAPI    H619558   2.011   5.822  11.149  0.5018 -0.0734 -0.1026
  173SAPI    O619559   1.843   5.824  11.026  0.1460 -0.3475 -0.4663
  173SAPI   HO619560   1.748   5.836  11.033  0.1344 -1.1592  1.4891
  173SAPI   C1119561   1.924   6.016  11.127 -0.4444 -0.4934 -0.1855
  173SAPI    H119562   1.820   6.056  11.127 -0.5154 -0.6791 -0.5541
  173SAPI     P19563   1.959   6.201  10.937  0.3668 -0.0451  0.1445
  173SAPI   O1319564   2.073   6.231  10.847 -0.2040 -0.2819  0.9181
  173SAPI   O1419565   1.933   6.301  11.042 -0.3131  0.1842  0.1065
  173SAPI   O1219566   2.003   6.061  11.012 -0.0966  0.1580  0.1457
  173SAPI   O1119567   1.824   6.172  10.858  0.2958  0.6132  0.4042
  173SAPI    C119568   1.831   6.071  10.752 -0.0003 -0.5884 -0.8762
  173SAPI    HA19569   1.886   5.980  10.786 -1.0872 -1.4241 -1.2777
  173SAPI    HB19570   1.726   6.041  10.728 -0.1978  0.3826 -1.2575
  173SAPI    C219571   1.889   6.119  10.621  0.0008  0.3276  0.1378
  173SAPI    HS19572   1.998   6.129  10.641  0.3305  0.4614 -1.6138
  173SAPI   O2119573   1.830   6.246  10.585 -0.0137  0.2139 -0.2527
  173SAPI   C2119574   1.915   6.337  10.537  0.1123 -0.5354  0.6223
  173SAPI   O2219575   2.025   6.302  10.502 -0.2710 -0.2333  0.1877
  173SAPI   C2219576   1.851   6.476  10.539  0.3864 -0.1757 -0.3545
  173SAPI   H2R19577   1.742   6.474  10.520  0.4460 -0.8590 -0.6677
  173SAPI   H2S19578   1.867   6.517  10.641 -1.9194 -0.9001  0.3596
  173SAPI    C319579   1.858   5.999  10.515 -1.2577 -0.1564  0.0207
  173SAPI    HX19580   1.749   5.981  10.514 -1.5364  1.1599  1.7989
  173SAPI    HY19581   1.913   5.911  10.554  0.3189 -0.3770 -2.4598
  173SAPI   O3119582   1.906   6.027  10.383  0.6570  0.6519  0.2534
  173SAPI   C3119583   2.039   6.040  10.371  0.0670 -0.1407 -0.2040
  173SAPI   O3219584   2.123   6.019  10.458  0.4489  0.0941 -0.1921
  173SAPI   C3219585   2.080   6.090  10.235 -0.3965 -0.1385 -0.3306
  173SAPI   H2X19586   2.180   6.136  10.247 -0.8511  0.7442  0.1764
  173SAPI   H2Y19587   2.003   6.168  10.214 -0.2922 -0.2655 -1.2262
  173SAPI   C2319588   1.919   6.565  10.440 -0.4453  0.3511  0.8064
  173SAPI   H3R19589   2.029   6.560  10.454 -0.2651  0.9803 -0.2603
  173SAPI   H3S19590   1.880   6.668  10.458 -2.6105 -0.5690  1.7609
  173SAPI   C2419591   1.890   6.533  10.291  0.4748  0.2092 -0.3829
  173SAPI   H4R19592   1.943   6.439  10.264 -2.6914 -2.5749  2.2957
  173SAPI   H4S19593   1.921   6.624  10.235  1.1512  0.0648 -0.2515
  173SAPI   C2519594   1.743   6.527  10.264 -0.3081 -0.0299 -0.0610
  173SAPI   H5R19595   1.673   6.560  10.342 -1.0878 -1.8136  0.0369
  173SAPI   C2619596   1.696   6.508  10.141 -0.4839 -0.2805 -0.0320
  173SAPI   H6R19597   1.588   6.486  10.130  0.0018 -1.9314 -2.2189
  173SAPI   C2719598   1.773   6.488  10.021  0.0231  0.3231  0.8972
  173SAPI   H7R19599   1.876   6.461  10.052  0.3467  2.0338  1.4131
  173SAPI   H7S19600   1.771   6.590   9.977 -0.7441 -0.3422 -0.7160
  173SAPI   C2819601   1.715   6.385   9.934  0.2207 -0.1769 -0.7603
  173SAPI   H8R19602   1.664   6.305   9.988  0.7440 -0.5400 -0.8019
  173SAPI   C2919603   1.732   6.372   9.807 -0.4561  0.4344 -0.4386
  173SAPI   H9R19604   1.706   6.278   9.757 -0.5569 -0.2987  0.9501
  173SAPI  C21019605   1.804   6.470   9.714 -0.6797 -0.4647 -0.1082
  173SAPI  H10R19606   1.872   6.409   9.651  1.5247  0.2043  1.4628
  173SAPI  H10S19607   1.872   6.530   9.779 -0.1099  0.9035 -1.8685
  173SAPI  C21119608   1.709   6.570   9.648 -0.6548  0.5190  0.2800
  173SAPI  H11R19609   1.636   6.616   9.717 -1.1499  0.4708 -0.2106
  173SAPI  C21219610   1.702   6.597   9.516 -0.2197  0.3391 -0.3378
  173SAPI  H12R19611   1.640   6.683   9.489 -0.0092  1.2817  1.9646
  173SAPI  C21319612   1.784   6.543   9.399  0.6622 -1.6617  0.3710
  173SAPI  H13R19613   1.854   6.468   9.442  1.0454 -1.5785 -0.0966
  173SAPI  H13S19614   1.848   6.620   9.350 -0.5863 -0.4529  0.5482
  173SAPI  C21419615   1.710   6.483   9.287  0.1220  0.0195  0.2360
  173SAPI  H14R19616   1.653   6.557   9.228 -0.2347 -0.2480  0.2408
  173SAPI  C21519617   1.707   6.359   9.235  1.1211 -0.0715  0.0526
  173SAPI  H15R19618   1.640   6.334   9.150  0.0808  4.8989 -0.8989
  173SAPI  C21619619   1.769   6.239   9.303 -0.2241  0.1671 -0.1369
  173SAPI  H16R19620   1.737   6.144   9.255  2.1938  0.3231 -2.2931
  173SAPI  H16S19621   1.737   6.240   9.409 -1.9458  0.1437 -0.6202
  173SAPI  C21719622   1.923   6.237   9.288 -0.2583  0.0634 -1.1073
  173SAPI  H17R19623   1.949   6.162   9.365 -1.7688  1.3780  0.7929
  173SAPI  H17S19624   1.977   6.326   9.326 -0.5357 -0.3481  0.2795
  173SAPI  C21819625   1.964   6.196   9.144 -0.6150 -0.2547  0.2142
  173SAPI  H18R19626   1.937   6.275   9.070  1.3538 -0.8353 -1.2171
  173SAPI  H18S19627   1.913   6.100   9.121  1.6568 -2.1955  2.6255
  173SAPI  C21919628   2.112   6.171   9.135 -0.0345  0.0514  0.0277
  173SAPI  H19R19629   2.132   6.097   9.215 -2.2988 -2.6099 -1.6780
  173SAPI  H19S19630   2.163   6.266   9.162  0.9789 -0.4510 -0.0668
  173SAPI  C22019631   2.166   6.111   9.003 -0.1059 -0.5788  0.1425
  173SAPI  H20R19632   2.126   6.007   9.006  0.5118 -0.8124  0.8586
  173SAPI  H20S19633   2.276   6.111   9.017  0.3332 -0.0312 -2.7608
  173SAPI  H20T19634   2.137   6.162   8.909  1.0149 -1.1112 -0.5101
  173SAPI   C3319635   2.088   5.988  10.123 -0.8235  0.6694 -0.2404
  173SAPI   H3X19636   2.002   5.918  10.117  1.6474 -2.4667 -1.9715
  173SAPI   H3Y19637   2.178   5.930  10.149 -1.0762  0.8973  1.1995
  173SAPI   C3419638   2.095   6.056   9.983  0.0653  0.1551  0.0852
  173SAPI   H4X19639   2.166   6.142   9.984 -0.6517  0.7827  2.1188
  173SAPI   H4Y19640   1.995   6.102   9.966  0.1986  0.9962  1.4597
  173SAPI   C3519641   2.125   5.956   9.870  0.4132 -0.4766 -0.1793
  173SAPI   H5X19642   2.047   5.877   9.875 -0.5042  0.3902 -0.6837
  173SAPI   H5Y19643   2.227   5.913   9.883  1.0157  0.6932 -0.9036
  173SAPI   C3619644   2.128   6.021   9.735  0.3585 -0.0059  0.0632
  173SAPI   H6X19645   2.187   6.114   9.750  1.4801 -0.8024  0.7030
  173SAPI   H6Y19646   2.029   6.048   9.693  0.5818  0.7846  0.0257
  173SAPI   C3719647   2.200   5.928   9.634  0.2785 -0.0850  0.5226
  173SAPI   H7X19648   2.142   5.833   9.637  0.3965 -0.1863 -0.1386
  173SAPI   H7Y19649   2.299   5.898   9.674  0.0798  0.8936  1.7924
  173SAPI   C3819650   2.232   5.977   9.487  0.7420 -0.8453  0.5201
  173SAPI   H8X19651   2.293   6.069   9.500 -0.0776 -0.2404  0.2050
  173SAPI   H8Y19652   2.141   6.003   9.429  1.7005  3.8554  0.7041
  173SAPI   C3919653   2.320   5.883   9.403 -0.0481  0.2106 -0.3147
  173SAPI   H9X19654   2.410   5.862   9.465 -0.5899  1.6224  1.0209
  173SAPI   H9Y19655   2.353   5.937   9.312 -0.0623 -0.4767 -0.7381
  173SAPI  C31019656   2.253   5.757   9.354  0.2489  0.2574 -0.8636
  173SAPI  H10X19657   2.156   5.791   9.311 -0.0812  0.4117 -0.0013
  173SAPI  H10Y19658   2.236   5.691   9.442  0.1709  1.9293  0.4243
  173SAPI  C31119659   2.322   5.684   9.235  0.4985 -0.7103 -0.3984
  173SAPI  H11X19660   2.421   5.647   9.269  0.3116  0.4495  1.5681
  173SAPI  H11Y19661   2.329   5.762   9.156 -1.1363  0.7305  0.8027
  173SAPI  C31219662   2.243   5.561   9.188  0.0950  0.1682 -0.0858
  173SAPI  H12X19663   2.138   5.595   9.178 -0.1932  0.0207  2.0248
  173SAPI  H12Y19664   2.244   5.484   9.267  2.7626 -0.4243 -0.5781
  173SAPI  C31319665   2.291   5.505   9.055  0.1297 -0.1742  0.2110
  173SAPI  H13X19666   2.401   5.493   9.053  0.1710  0.1862 -1.3915
  173SAPI  H13Y19667   2.273   5.581   8.977 -0.6259 -0.3906  0.1643
  173SAPI  C31419668   2.202   5.380   9.024  0.5879  0.7078  0.2432
  173SAPI  H14X19669   2.099   5.420   9.037  0.3774 -0.1982  1.5694
  173SAPI  H14Y19670   2.224   5.314   9.111  1.1704  0.1224 -0.3385
  173SAPI  C31519671   2.223   5.311   8.882  0.1723 -0.3905  0.1494
  173SAPI  H15X19672   2.208   5.201   8.885  1.6175 -0.6019  0.6144
  173SAPI  H15Y19673   2.329   5.339   8.861 -0.2413  3.1937  1.9375
  173SAPI  C31619674   2.135   5.372   8.769 -0.2372  0.4780 -0.2573
  173SAPI  H16X19675   2.154   5.313   8.677  1.0389 -0.5094  0.6082
  173SAPI  H16Y19676   2.161   5.480   8.758  0.3211  0.2188 -1.6232
  173SAPI  C31719677   1.989   5.351   8.798  1.0225 -0.1993 -0.0490
  173SAPI  H17X19678   1.953   5.403   8.889  0.8090 -1.5807  0.6911
  173SAPI  H17Y19679   1.965   5.243   8.815  1.4469 -0.3416 -0.3242
  173SAPI  C31819680   1.911   5.392   8.676  0.5846  0.3431 -1.1164
  173SAPI  H18X19681   1.940   5.489   8.631  0.0414  1.0186 -0.0549
  173SAPI  H18Y19682   1.804   5.396   8.707  1.7855  1.5944  3.7445
  173SAPI  H18Z19683   1.922   5.311   8.601  0.9540 -0.9890  0.3223
  174SAPI   C1219684   5.045   2.954  10.944 -0.0256  0.3117  0.0268
  174SAPI    H219685   5.142   2.924  10.900  0.3290  1.5353 -0.0450
  174SAPI    O219686   5.004   2.867  11.053 -0.4436  0.5189 -0.8740
  174SAPI   HO219687   4.936   2.812  11.014  1.0887 -0.4782 -2.3210
  174SAPI   C1319688   5.066   3.094  10.984  0.6173  1.0739 -0.3319
  174SAPI    H319689   5.093   3.165  10.904 -0.1477  0.0320 -1.5701
  174SAPI    O319690   5.162   3.098  11.088  0.2201  0.5047  0.3941
  174SAPI   HO319691   5.150   3.021  11.144 -0.3420 -0.8124 -1.4338
  174SAPI   C1419692   4.930   3.159  11.026 -0.4950 -0.0795 -0.2202
  174SAPI    H419693   4.902   3.115  11.124 -0.6069 -0.6223 -0.4913
  174SAPI    O419694   4.951   3.296  11.060 -0.3893 -0.0939 -0.9034
  174SAPI   HO419695   5.006   3.328  10.988  1.8333 -1.4949  0.0457
  174SAPI   C1519696   4.815   3.133  10.936 -0.7581 -0.3186 -0.2379
  174SAPI    H519697   4.832   3.194  10.844  0.3469 -0.0214  0.1485
  174SAPI    O519698   4.691   3.161  10.997  0.5670  0.0020 -0.0826
  174SAPI   HO519699   4.618   3.135  10.939 -2.2448  2.1294  2.2209
  174SAPI   C1619700   4.805   2.986  10.894 -0.2730  0.1642 -0.4854
  174SAPI    H619701   4.784   2.926  10.985  1.7504  0.8703  0.5254
  174SAPI    O619702   4.703   2.970  10.804 -0.0136  0.6362 -0.1224
  174SAPI   HO619703   4.741   2.913  10.737  3.5721  1.8285  0.6529
  174SAPI   C1119704   4.942   2.940  10.834 -0.1107  0.3572 -0.2160
  174SAPI    H119705   4.962   3.007  10.748 -0.0699 -1.6359 -1.8269
  174SAPI     P19706   5.000   2.770  10.642  0.5130 -0.0794 -0.1537
  174SAPI   O1319707   5.007   2.619  10.623  1.0150 -0.2962 -0.7781
  174SAPI   O1419708   5.133   2.837  10.635  1.0002 -0.4942 -0.1078
  174SAPI   O1219709   4.933   2.807  10.787 -0.0638  0.1122  0.0202
  174SAPI   O1119710   4.888   2.829  10.540 -0.2740  0.5009  0.0571
  174SAPI    C119711   4.904   2.955  10.474  0.5936  0.1302 -0.6479
  174SAPI    HA19712   4.832   3.031  10.512 -0.2063 -0.5648 -0.7518
  174SAPI    HB19713   5.004   3.001  10.491  0.5532  0.0219 -0.0773
  174SAPI    C219714   4.890   2.944  10.317 -0.8701 -0.1184 -0.2603
  174SAPI    HS19715   4.948   3.028  10.273 -1.3520  1.7509  2.4051
  174SAPI   O2119716   4.747   2.953  10.291 -0.5765 -0.3006 -0.9277
  174SAPI   C2119717   4.688   3.065  10.316  0.2515 -0.2916 -0.1524
  174SAPI   O2219718   4.740   3.170  10.355  0.8853 -0.0898 -0.4482
  174SAPI   C2219719   4.545   3.062  10.264 -0.6888  0.1093 -0.4324
  174SAPI   H2R19720   4.505   2.959  10.251  1.8967 -1.1389  0.6949
  174SAPI   H2S19721   4.487   3.101  10.351  3.1200 -0.1802  2.4875
  174SAPI    C319722   4.942   2.809  10.274 -0.1262 -0.0083  0.0490
  174SAPI    HX19723   4.874   2.726  10.301 -0.1767  0.5970  1.9446
  174SAPI    HY19724   5.039   2.787  10.324 -1.0119 -1.5575  1.1647
  174SAPI   O3119725   4.952   2.808  10.128  0.0681 -0.5607 -0.1454
  174SAPI   C3119726   5.031   2.721  10.065 -0.0527 -0.1427 -0.5933
  174SAPI   O3219727   5.085   2.628  10.118  0.2883  0.8144 -0.0738
  174SAPI   C3219728   5.042   2.756   9.925  0.4925  0.0485  0.2146
  174SAPI   H2X19729   5.117   2.839   9.925 -0.2119  0.7053 -0.5015
  174SAPI   H2Y19730   4.946   2.796   9.887  0.2762  0.2560  0.9732
  174SAPI   C2319731   4.531   3.145  10.135  0.0057 -0.2379 -0.0595
  174SAPI   H3R19732   4.579   3.241  10.163 -1.3034  0.1921  0.8159
  174SAPI   H3S19733   4.425   3.169  10.111 -0.0440 -0.6232 -0.2361
  174SAPI   C2419734   4.603   3.082  10.015  0.1766  0.6027 -0.4080
  174SAPI   H4R19735   4.565   2.981   9.988  1.9711  0.0699 -1.0784
  174SAPI   H4S19736   4.708   3.069  10.049  0.2613  0.0177 -0.8704
  174SAPI   C2519737   4.598   3.176   9.896 -0.5272 -0.0843  0.5060
  174SAPI   H5R19738   4.506   3.235   9.909  0.2389  1.2134  0.2428
  174SAPI   C2619739   4.678   3.175   9.785  0.4231  0.1572  0.1497
  174SAPI   H6R19740   4.673   3.257   9.713  3.0017  0.8866  0.7108
  174SAPI   C2719741   4.793   3.074   9.755  0.2970  0.0926 -0.1612
  174SAPI   H7R19742   4.844   3.060   9.853 -0.1734  1.7647  0.3447
  174SAPI   H7S19743   4.880   3.121   9.706  1.1990 -1.2910  0.0562
  174SAPI   C2819744   4.751   2.943   9.703  0.1033  0.1528 -0.0885
  174SAPI   H8R19745   4.707   2.882   9.783  0.5903  0.0752  0.1231
  174SAPI   C2919746   4.767   2.895   9.576  0.2614 -0.3519  0.2535
  174SAPI   H9R19747   4.733   2.791   9.562  0.0679 -0.1752 -0.6354
  174SAPI  C21019748   4.843   2.967   9.470 -0.5227  0.4999  0.0726
  174SAPI  H10R19749   4.919   3.024   9.528  2.5949 -2.8728 -0.3347
  174SAPI  H10S19750   4.768   3.039   9.432 -0.3660  0.9242  0.5527
  174SAPI  C21119751   4.889   2.866   9.363  0.6888  0.5765  0.1010
  174SAPI  H11R19752   4.914   2.761   9.383  0.2203  0.5179  0.4040
  174SAPI  C21219753   4.887   2.886   9.228 -0.9395 -1.0767  0.1635
  174SAPI  H12R19754   4.911   2.801   9.162  0.9937  0.5339 -1.3445
  174SAPI  C21319755   4.846   3.001   9.141 -0.5624 -0.7554 -0.1119
  174SAPI  H13R19756   4.926   3.062   9.096  0.1259 -1.2281  0.4395
  174SAPI  H13S19757   4.825   3.087   9.207  2.9456 -1.0293  1.5520
  174SAPI  C21419758   4.733   2.958   9.056  0.3221  0.0926  0.7805
  174SAPI  H14R19759   4.646   2.935   9.118 -0.5127  1.6878  0.2679
  174SAPI  C21519760   4.732   2.946   8.920  0.5133 -1.0763 -1.0069
  174SAPI  H15R19761   4.644   2.900   8.872 -1.2924 -0.7206  1.7194
  174SAPI  C21619762   4.848   2.974   8.824  0.2185 -1.0743 -0.3028
  174SAPI  H16R19763   4.936   3.002   8.886 -0.9811 -1.3536  1.5927
  174SAPI  H16S19764   4.827   3.058   8.754  0.2473 -1.4004 -0.7015
  174SAPI  C21719765   4.879   2.854   8.742  0.2710  0.0393 -0.5951
  174SAPI  H17R19766   4.792   2.833   8.676 -1.0266  1.7803  0.4817
  174SAPI  H17S19767   4.888   2.771   8.815  1.7789 -0.1120 -0.9316
  174SAPI  C21819768   5.010   2.863   8.668 -0.5290 -0.3736 -0.1646
  174SAPI  H18R19769   5.077   2.879   8.755 -1.0716 -0.3904  0.2617
  174SAPI  H18S19770   5.028   2.950   8.601  1.4103 -0.7719 -0.2243
  174SAPI  C21919771   5.063   2.736   8.599  0.2049  0.0346  0.7710
  174SAPI  H19R19772   4.997   2.700   8.517 -0.0642  0.5915  0.7378
  174SAPI  H19S19773   5.071   2.645   8.663  1.3718  0.7841  1.7458
  174SAPI  C22019774   5.203   2.746   8.543  0.1371 -0.4995 -0.8210
  174SAPI  H20R19775   5.238   2.657   8.487 -0.8076 -0.5139 -1.3911
  174SAPI  H20S19776   5.268   2.775   8.629 -0.2010  0.0772 -0.7568
  174SAPI  H20T19777   5.219   2.838   8.483  1.8951 -2.0645 -2.9092
  174SAPI   C3319778   5.094   2.639   9.846  0.2992 -0.0749  0.0320
  174SAPI   H3X19779   5.030   2.551   9.866 -1.3170  0.4733 -2.2240
  174SAPI   H3Y19780   5.196   2.614   9.880  1.2839  0.2967 -2.4472
  174SAPI   C3419781   5.106   2.667   9.701  0.2523  0.0716  0.5236
  174SAPI   H4X19782   5.184   2.745   9.684  1.5521 -1.2492  0.1858
  174SAPI   H4Y19783   5.020   2.726   9.663 -0.5611 -0.6024  1.2813
  174SAPI   C3519784   5.146   2.554   9.600  0.4645  0.6163 -0.6708
  174SAPI   H5X19785   5.071   2.477   9.625 -0.9771  1.6328 -1.6968
  174SAPI   H5Y19786   5.246   2.511   9.622  0.1258 -0.3347 -0.9679
  174SAPI   C3619787   5.138   2.596   9.451 -0.0040  0.0152  0.0466
  174SAPI   H6X19788   5.181   2.697   9.435 -4.0219  1.7097 -1.4379
  174SAPI   H6Y19789   5.029   2.608   9.431 -0.0403 -0.6405 -0.1716
  174SAPI   C3719790   5.193   2.496   9.354  0.5495  0.0809  0.0590
  174SAPI   H7X19791   5.144   2.400   9.381  1.4322 -0.0642  1.2473
  174SAPI   H7Y19792   5.302   2.489   9.377  0.8529  1.4016 -0.8143
  174SAPI   C3819793   5.187   2.528   9.203 -0.1718  0.2324  0.0742
  174SAPI   H8X19794   5.223   2.633   9.191 -2.4743  1.0587 -0.1710
  174SAPI   H8Y19795   5.080   2.529   9.175 -0.8502 -1.6146  2.3007
  174SAPI   C3919796   5.264   2.424   9.116 -0.2669 -0.6247  0.6217
  174SAPI   H9X19797   5.232   2.322   9.145  2.9574 -1.4932  1.4851
  174SAPI   H9Y19798   5.374   2.437   9.124 -0.4621  0.7221  1.3501
  174SAPI  C31019799   5.224   2.429   8.965 -0.0782 -0.0026  0.0087
  174SAPI  H10X19800   5.232   2.535   8.932  1.3544  0.3469  1.3561
  174SAPI  H10Y19801   5.122   2.395   8.938 -0.6516  0.7434  1.1799
  174SAPI  C31119802   5.324   2.345   8.881  0.2509 -0.7607 -0.5556
  174SAPI  H11X19803   5.330   2.236   8.901 -4.6654 -0.8921  1.4277
  174SAPI  H11Y19804   5.429   2.374   8.904  1.0669 -2.1188 -2.2706
  174SAPI  C31219805   5.313   2.354   8.724  0.1117  0.5796 -0.0207
  174SAPI  H12X19806   5.354   2.453   8.698 -1.3686  1.1174 -0.4130
  174SAPI  H12Y19807   5.213   2.350   8.675  0.5068  0.7156 -0.8420
  174SAPI  C31319808   5.397   2.242   8.661 -0.4881 -0.2738  0.6718
  174SAPI  H13X19809   5.332   2.154   8.640  2.0150 -2.4102  1.3233
  174SAPI  H13Y19810   5.474   2.213   8.736 -0.4728 -0.0821  0.7322
  174SAPI  C31419811   5.453   2.291   8.528 -0.6501  0.0609  1.2157
  174SAPI  H14X19812   5.522   2.215   8.485 -1.5326  0.3210 -0.7541
  174SAPI  H14Y19813   5.516   2.374   8.568 -1.8228  0.1853  2.9210
  174SAPI  C31519814   5.355   2.349   8.419 -0.1284  0.1534 -0.4806
  174SAPI  H15X19815   5.302   2.434   8.465 -0.6568  0.2283 -1.2113
  174SAPI  H15Y19816   5.289   2.262   8.397  2.8385 -2.4509  0.1772
  174SAPI  C31619817   5.421   2.387   8.285 -0.0293 -0.1691  0.1950
  174SAPI  H16X19818   5.477   2.300   8.246  0.3033 -0.1632  0.6593
  174SAPI  H16Y19819   5.483   2.479   8.291  0.1260 -0.3155  0.8416
  174SAPI  C31719820   5.310   2.421   8.185 -0.8057  0.4548  0.0051
  174SAPI  H17X19821   5.252   2.327   8.174 -2.7018  1.6188 -0.3797
  174SAPI  H17Y19822   5.347   2.455   8.086 -1.0095 -0.5425 -0.4258
  174SAPI  C31819823   5.199   2.518   8.223  0.4759  0.1884  0.2948
  174SAPI  H18X19824   5.236   2.618   8.253 -0.2608 -0.0767  2.1900
  174SAPI  H18Y19825   5.141   2.473   8.306  1.0753 -2.3887 -0.5879
  174SAPI  H18Z19826   5.128   2.531   8.138  1.1271  0.1137 -0.2738
  175SAPI   C1219827   0.819   0.642   6.158 -0.1833  0.5893  0.1545
  175SAPI    H219828   0.742   0.705   6.108 -0.4105  0.5891  0.5015
  175SAPI    O219829   0.776   0.507   6.137  0.1107  0.6507 -0.2507
  175SAPI   HO219830   0.737   0.482   6.221 -0.2757  1.6502 -0.1135
  175SAPI   C1319831   0.947   0.681   6.084 -0.1014 -0.6569 -0.0452
  175SAPI    H319832   0.955   0.792   6.079  1.6133 -0.7265  0.3295
  175SAPI    O319833   0.952   0.643   5.949 -0.6560 -0.1870 -0.1433
  175SAPI   HO319834   0.900   0.563   5.956  1.8173 -1.8429  0.5099
  175SAPI   C1419835   1.074   0.629   6.151  0.4708 -0.5983  0.4266
  175SAPI    H419836   1.071   0.519   6.136 -0.6685 -0.4818 -0.3581
  175SAPI    O419837   1.196   0.677   6.082 -0.0581  0.5030 -0.0982
  175SAPI   HO419838   1.185   0.668   5.987  1.4001  1.9359 -0.4367
  175SAPI   C1519839   1.072   0.658   6.300  0.2153  0.4275 -0.0289
  175SAPI    H519840   1.077   0.768   6.310 -1.6484  0.4100  1.6966
  175SAPI    O519841   1.187   0.604   6.352 -0.6951  0.3533 -0.5676
  175SAPI   HO519842   1.239   0.565   6.281 -1.8933  0.6279 -1.6365
  175SAPI   C1619843   0.941   0.611   6.372 -0.0875 -0.3386  0.3006
  175SAPI    H619844   0.926   0.501   6.362 -0.6331 -0.1562 -1.1181
  175SAPI    O619845   0.945   0.636   6.512  0.1810 -0.6157 -0.1453
  175SAPI   HO619846   0.983   0.557   6.553 -0.3692 -0.4206  0.7740
  175SAPI   C1119847   0.820   0.672   6.303 -0.3507 -0.5635  0.5144
  175SAPI    H119848   0.822   0.781   6.320 -0.6155 -0.6360  1.0589
  175SAPI     P19849   0.559   0.703   6.359 -0.2630  0.3262 -0.2518
  175SAPI   O1319850   0.451   0.610   6.339  0.0046 -0.5499  0.1088
  175SAPI   O1419851   0.560   0.820   6.265 -0.6196 -0.1184 -0.2071
  175SAPI   O1219852   0.701   0.625   6.368  0.1121  0.5748 -0.7528
  175SAPI   O1119853   0.547   0.773   6.504  0.0925  0.3536 -0.4917
  175SAPI    C119854   0.490   0.898   6.520 -0.5405 -0.2113  0.0873
  175SAPI    HA19855   0.557   0.980   6.486  1.7403 -2.2767 -0.6500
  175SAPI    HB19856   0.390   0.910   6.472 -0.6900  0.5733  0.5669
  175SAPI    C219857   0.457   0.917   6.672 -0.4702 -0.4711  0.9342
  175SAPI    HS19858   0.390   1.005   6.684 -1.4735 -1.2297  1.0881
  175SAPI   O2119859   0.582   0.944   6.735 -0.5558  0.2262  0.1229
  175SAPI   C2119860   0.590   1.072   6.768  0.4242 -0.4279 -0.6769
  175SAPI   O2219861   0.505   1.159   6.753 -0.3504 -0.6127  0.2044
  175SAPI   C2219862   0.725   1.101   6.832 -0.1303  0.3432  0.3168
  175SAPI   H2R19863   0.789   1.012   6.847  0.4242  0.8208  0.8730
  175SAPI   H2S19864   0.770   1.170   6.758  0.1940  0.0164  0.2057
  175SAPI    C319865   0.379   0.801   6.740  0.3766  0.0797  0.2764
  175SAPI    HX19866   0.430   0.703   6.727  0.4115  0.2428 -0.9829
  175SAPI    HY19867   0.287   0.785   6.680  0.3991 -0.7713  0.4560
  175SAPI   O3119868   0.355   0.815   6.876  0.0093 -0.3795 -0.2500
  175SAPI   C3119869   0.235   0.874   6.921 -0.8934 -0.1542  0.0081
  175SAPI   O3219870   0.142   0.900   6.849  0.7596  0.9044 -0.5266
  175SAPI   C3219871   0.234   0.904   7.069  0.1130  0.6076 -0.0892
  175SAPI   H2X19872   0.306   0.985   7.093  0.8594 -0.0795  0.0330
  175SAPI   H2Y19873   0.269   0.811   7.118 -1.0522 -0.1174 -0.5801
  175SAPI   C2319874   0.714   1.171   6.979  0.0933 -0.0245 -0.6418
  175SAPI   H3R19875   0.690   1.279   6.970 -0.3884  0.0041  0.7976
  175SAPI   H3S19876   0.819   1.170   7.016  0.3430 -0.2340 -1.3283
  175SAPI   C2419877   0.628   1.091   7.085  1.0579 -0.3954  0.2575
  175SAPI   H4R19878   0.686   1.103   7.179  2.6018  0.1050 -0.7235
  175SAPI   H4S19879   0.596   0.989   7.054 -1.2291  0.4909 -0.5378
  175SAPI   C2519880   0.497   1.176   7.094  0.0196 -0.1279  0.6908
  175SAPI   H5R19881   0.463   1.221   7.000  2.3807 -1.0707 -0.7148
  175SAPI   C2619882   0.441   1.201   7.215 -0.1376  0.5764 -0.1783
  175SAPI   H6R19883   0.345   1.255   7.221 -1.0324 -1.0671  1.4752
  175SAPI   C2719884   0.484   1.162   7.356  0.3781  0.0875  0.9928
  175SAPI   H7R19885   0.574   1.097   7.352 -0.1928 -0.6898  0.5444
  175SAPI   H7S19886   0.398   1.126   7.418 -0.7805  0.1740 -0.5129
  175SAPI   C2819887   0.533   1.288   7.421 -0.4417 -0.7664 -1.0926
  175SAPI   H8R19888   0.534   1.383   7.366 -1.4333 -0.4658 -0.6270
  175SAPI   C2919889   0.560   1.298   7.555  0.6444  0.2252  0.3508
  175SAPI   H9R19890   0.586   1.396   7.597  0.0966  0.3946  0.2941
  175SAPI  C21019891   0.539   1.193   7.655  0.2788 -0.5272  0.2927
  175SAPI  H10R19892   0.604   1.209   7.744 -0.2119  0.7003  0.4524
  175SAPI  H10S19893   0.569   1.104   7.596 -1.3653  0.6775 -2.5761
  175SAPI  C21119894   0.396   1.172   7.696 -0.1482 -0.0405 -0.3561
  175SAPI  H11R19895   0.326   1.181   7.611 -0.0220  2.4798 -0.2796
  175SAPI  C21219896   0.354   1.155   7.825  0.0086 -0.1548 -0.6086
  175SAPI  H12R19897   0.248   1.124   7.830 -0.4642  1.0264 -2.1226
  175SAPI  C21319898   0.450   1.148   7.944 -0.2371 -0.0906  0.0108
  175SAPI  H13R19899   0.549   1.101   7.926 -0.2241 -1.1312  2.3536
  175SAPI  H13S19900   0.419   1.073   8.020  1.9928 -0.9336  0.1608
  175SAPI  C21419901   0.454   1.287   8.003 -0.3378  0.5180  0.0905
  175SAPI  H14R19902   0.450   1.375   7.937 -1.7763 -0.5840 -1.3854
  175SAPI  C21519903   0.435   1.320   8.133 -1.0055  0.8530 -0.7611
  175SAPI  H15R19904   0.434   1.427   8.158 -1.6128  0.7569 -0.3527
  175SAPI  C21619905   0.413   1.219   8.245  0.2458  0.7877 -0.3904
  175SAPI  H16R19906   0.475   1.252   8.332 -0.7305  0.1105  0.5849
  175SAPI  H16S19907   0.455   1.121   8.214  1.0644  1.0455 -0.1279
  175SAPI  C21719908   0.268   1.228   8.294  0.0166  0.2213 -0.2587
  175SAPI  H17R19909   0.207   1.151   8.243 -3.7288  1.5200  1.8377
  175SAPI  H17S19910   0.207   1.317   8.266 -1.8487 -0.1172  2.3866
  175SAPI  C21819911   0.268   1.216   8.444  0.4100  0.4240 -0.2827
  175SAPI  H18R19912   0.165   1.214   8.486  0.5141 -1.3517 -0.0448
  175SAPI  H18S19913   0.332   1.301   8.478  0.3760  0.4103 -0.1825
  175SAPI  C21919914   0.335   1.093   8.502 -0.0243  0.3821 -0.3835
  175SAPI  H19R19915   0.443   1.072   8.488  0.7957  2.2246  2.2320
  175SAPI  H19S19916   0.288   1.003   8.456 -0.7434 -0.1144  1.2546
  175SAPI  C22019917   0.309   1.079   8.650 -0.7990  0.0201  1.0580
  175SAPI  H20R19918   0.370   1.160   8.696 -1.3087  0.2800  1.2875
  175SAPI  H20S19919   0.340   0.976   8.675 -1.7425 -0.9159 -1.4107
  175SAPI  H20T19920   0.201   1.089   8.676 -1.7754 -0.7174 -2.2931
  175SAPI   C3319921   0.090   0.935   7.126 -0.5945 -0.1291  0.6520
  175SAPI   H3X19922   0.034   0.844   7.097  0.6508 -0.5538 -0.5313
  175SAPI   H3Y19923   0.050   1.021   7.068 -1.8841 -1.6756 -0.8479
  175SAPI   C3419924   0.084   0.955   7.272 -0.3623  0.5966  0.1011
  175SAPI   H4X19925  -0.023   0.972   7.296 -0.2507 -0.4808  1.4677
  175SAPI   H4Y19926   0.141   1.049   7.288  1.3400 -0.0850 -1.5374
  175SAPI   C3519927   0.126   0.841   7.363  0.0003  0.2260  0.3318
  175SAPI   H5X19928   0.233   0.822   7.340  0.3628  0.3526  1.8219
  175SAPI   H5Y19929   0.064   0.753   7.335 -1.5741  1.1941  0.6934
  175SAPI   C3619930   0.094   0.886   7.503  0.2439  0.2575 -0.3174
  175SAPI   H6X19931  -0.009   0.927   7.500  0.5719  1.0538 -2.2049
  175SAPI   H6Y19932   0.168   0.963   7.531 -0.6243  0.7891  0.5786
  175SAPI   C3719933   0.118   0.781   7.613 -0.5863 -0.0705 -0.3785
  175SAPI   H7X19934   0.226   0.763   7.596 -0.6260  0.2257 -0.9911
  175SAPI   H7Y19935   0.067   0.685   7.593 -2.3379  0.8597 -0.5797
  175SAPI   C3819936   0.083   0.833   7.761 -0.2714 -0.5286  0.1919
  175SAPI   H8X19937  -0.025   0.857   7.764  0.0247  0.8093  2.2897
  175SAPI   H8Y19938   0.140   0.926   7.777 -2.4351  0.6583  1.4966
  175SAPI   C3919939   0.129   0.742   7.876  1.3066 -0.3370  0.0985
  175SAPI   H9X19940   0.236   0.717   7.859  0.9360 -1.2710 -0.9697
  175SAPI   H9Y19941   0.066   0.652   7.861  0.3122  0.6372 -1.9491
  175SAPI  C31019942   0.115   0.799   8.018  0.1864  0.0086 -0.9272
  175SAPI  H10X19943   0.016   0.847   8.034  0.1849 -0.2691 -0.0135
  175SAPI  H10Y19944   0.198   0.871   8.039  2.2954 -2.4277 -0.3197
  175SAPI  C31119945   0.131   0.684   8.119 -0.2762  0.1965 -0.3859
  175SAPI  H11X19946   0.223   0.624   8.105 -0.0095  0.2040  1.1167
  175SAPI  H11Y19947   0.045   0.614   8.115 -1.6420  1.3928  3.4834
  175SAPI  C31219948   0.127   0.730   8.266  0.6988  0.0299  0.4662
  175SAPI  H12X19949   0.079   0.828   8.286  0.0125 -0.3542  0.7093
  175SAPI  H12Y19950   0.235   0.725   8.292  1.8794 -3.6187 -3.8098
  175SAPI  C31319951   0.055   0.623   8.354  0.1354 -0.3841 -0.5692
  175SAPI  H13X19952   0.096   0.526   8.320  0.0094  0.2485 -2.7238
  175SAPI  H13Y19953  -0.055   0.623   8.336 -0.4033 -0.8449  2.3229
  175SAPI  C31419954   0.091   0.656   8.501 -0.3768 -0.0461  0.3166
  175SAPI  H14X19955   0.060   0.762   8.511  1.8475  0.6577  0.3303
  175SAPI  H14Y19956   0.201   0.651   8.518 -0.0489  0.4225 -1.4568
  175SAPI  C31519957   0.018   0.565   8.607 -0.1928 -0.4125 -0.3435
  175SAPI  H15X19958   0.054   0.460   8.595 -1.8544 -1.0923  0.2707
  175SAPI  H15Y19959  -0.091   0.575   8.585  0.2167  2.6540 -1.5099
  175SAPI  C31619960   0.046   0.621   8.744 -0.2776  0.1325 -1.0209
  175SAPI  H16X19961   0.054   0.731   8.731 -0.3534  0.1081 -1.2766
  175SAPI  H16Y19962   0.140   0.586   8.791 -1.0535  0.3409  0.7902
  175SAPI  C31719963  -0.077   0.580   8.829 -0.4629  0.2897 -0.6055
  175SAPI  H17X19964  -0.168   0.617   8.777 -2.3546 -0.8946  1.6614
  175SAPI  H17Y19965  -0.082   0.629   8.929 -0.2963 -4.6655  2.1837
  175SAPI  C31819966  -0.092   0.432   8.869 -0.7464  0.2589 -0.3956
  175SAPI  H18X19967  -0.007   0.391   8.927 -4.1693 -2.8087  3.0238
  175SAPI  H18Y19968  -0.101   0.373   8.775 -0.5792 -0.6066  0.1242
  175SAPI  H18Z19969  -0.178   0.403   8.934  0.7115 -1.9699  0.6433
  176SAPI   C1219970   2.726   4.126   6.354  0.3822  0.4086  0.1429
  176SAPI    H219971   2.734   4.177   6.453  0.5187  1.2163 -0.2732
  176SAPI    O219972   2.802   4.205   6.261 -0.3319  0.1653  0.2786
  176SAPI   HO219973   2.762   4.292   6.272 -1.4189 -0.0803 -1.3680
  176SAPI   C1319974   2.781   3.988   6.359  1.0042 -0.3657  0.3462
  176SAPI    H319975   2.719   3.927   6.429  0.4422  1.6219  1.6853
  176SAPI    O319976   2.908   3.985   6.418  0.0236  0.1359  0.2313
  176SAPI   HO319977   2.903   4.033   6.501  1.7702  2.0956 -0.7270
  176SAPI   C1419978   2.773   3.926   6.223 -0.5949  1.1835 -0.4131
  176SAPI    H419979   2.846   3.985   6.163  1.6985 -0.9267  0.1693
  176SAPI    O419980   2.833   3.793   6.228  0.1929 -0.9866 -0.1889
  176SAPI   HO419981   2.869   3.776   6.141 -1.9849 -1.5498 -1.0419
  176SAPI   C1519982   2.629   3.931   6.163  0.1966 -0.1382 -0.3165
  176SAPI    H519983   2.571   3.858   6.223  1.5841 -0.3704  0.8112
  176SAPI    O519984   2.622   3.887   6.029 -0.1535 -0.0851 -0.3308
  176SAPI   HO519985   2.588   3.797   6.031 -0.2627 -0.1021 -1.7458
  176SAPI   C1619986   2.568   4.072   6.168 -0.5471  0.2656  0.4808
  176SAPI    H619987   2.626   4.130   6.093  1.4365 -1.4868  0.5821
  176SAPI    O619988   2.433   4.067   6.131  0.5551 -0.2560  0.3419
  176SAPI   HO619989   2.391   4.008   6.194 -0.5639 -0.2335 -0.3583
  176SAPI   C1119990   2.586   4.118   6.312  0.7970 -0.1895  0.1020
  176SAPI    H119991   2.533   4.049   6.382  0.8709 -1.0888 -0.7148
  176SAPI     P19992   2.417   4.303   6.422  0.1648  0.2251 -0.0019
  176SAPI   O1319993   2.293   4.224   6.415 -0.1310  0.4397  0.0921
  176SAPI   O1419994   2.396   4.449   6.394 -0.4900 -0.2025 -0.2995
  176SAPI   O1219995   2.524   4.249   6.312 -0.3894 -0.0838  0.0611
  176SAPI   O1119996   2.496   4.280   6.559 -0.5244  0.2317 -0.0187
  176SAPI    C119997   2.469   4.153   6.627  0.5657 -0.2457  0.8754
  176SAPI    HA19998   2.408   4.079   6.570 -1.3499  1.4066  0.6484
  176SAPI    HB19999   2.566   4.102   6.642 -0.1896 -2.1023 -0.0519
  176SAPI    C220000   2.415   4.162   6.768 -0.1712  0.4303  0.3916
  176SAPI    HS20001   2.304   4.154   6.767 -0.2243  1.0566 -0.7848
  176SAPI   O2120002   2.463   4.289   6.820  0.5904  0.3970 -0.3417
  176SAPI   C2120003   2.374   4.387   6.791 -0.0672 -0.1432  0.4906
  176SAPI   O2220004   2.277   4.381   6.723  0.0020  0.4496 -0.2930
  176SAPI   C2220005   2.428   4.520   6.853  0.5898  0.9251 -0.1870
  176SAPI   H2R20006   2.417   4.504   6.962  0.8274 -0.0296 -0.2941
  176SAPI   H2S20007   2.536   4.513   6.827  0.9923 -0.5467  1.6712
  176SAPI    C320008   2.479   4.058   6.860  0.0360  0.2328  0.3380
  176SAPI    HX20009   2.588   4.081   6.867 -0.3134  2.5107 -0.8954
  176SAPI    HY20010   2.478   3.950   6.835 -0.7990 -0.1805  1.9901
  176SAPI   O3120011   2.427   4.068   6.987 -0.3540 -0.1183  0.0475
  176SAPI   C3120012   2.319   4.006   7.012 -0.0992 -0.4162  0.3318
  176SAPI   O3220013   2.252   3.936   6.935  0.1000 -0.0226  0.3869
  176SAPI   C3220014   2.282   4.015   7.157  0.3683  0.9567 -0.6571
  176SAPI   H2X20015   2.297   4.117   7.197 -0.0378  1.6353 -2.1698
  176SAPI   H2Y20016   2.360   3.954   7.207  0.3221  0.5010 -1.1244
  176SAPI   C2320017   2.364   4.651   6.804  0.7377  0.6953 -0.2937
  176SAPI   H3R20018   2.327   4.651   6.700 -2.5194  1.8727  0.7201
  176SAPI   H3S20019   2.449   4.723   6.803  0.4603  1.0571  0.4672
  176SAPI   C2420020   2.247   4.700   6.891  0.3688  1.3402  0.2660
  176SAPI   H4R20021   2.271   4.660   6.992  2.1051 -0.9107 -0.9412
  176SAPI   H4S20022   2.153   4.654   6.853  0.2028  3.5973 -2.2714
  176SAPI   C2520023   2.242   4.849   6.893  0.4118  0.4530 -0.3629
  176SAPI   H5R20024   2.236   4.889   6.791  0.3767  1.1289 -0.1033
  176SAPI   C2620025   2.236   4.934   6.996 -0.4113 -0.2153  0.0876
  176SAPI   H6R20026   2.229   5.041   6.972 -1.9550 -0.4218 -0.5091
  176SAPI   C2720027   2.252   4.908   7.143 -0.7886  0.5480  0.4177
  176SAPI   H7R20028   2.311   4.991   7.189  1.0983  2.4881 -4.7753
  176SAPI   H7S20029   2.301   4.809   7.154 -1.3859  0.1057 -0.7494
  176SAPI   C2820030   2.120   4.914   7.211  0.3130 -0.0486  0.4633
  176SAPI   H8R20031   2.039   4.908   7.136  0.2601  0.2015  0.4991
  176SAPI   C2920032   2.092   4.930   7.341  0.2900 -0.4887 -0.0892
  176SAPI   H9R20033   1.987   4.924   7.373  0.1994  0.9678 -0.0396
  176SAPI  C21020034   2.194   4.943   7.453 -0.2560 -0.0987  0.3698
  176SAPI  H10R20035   2.297   4.919   7.418  0.6397 -1.0416  3.3265
  176SAPI  H10S20036   2.165   4.862   7.523 -1.8872 -1.2058 -1.4696
  176SAPI  C21120037   2.192   5.078   7.512  0.0032  0.0808  0.5285
  176SAPI  H11R20038   2.200   5.156   7.435  1.0441 -0.6931 -0.1674
  176SAPI  C21220039   2.181   5.111   7.643 -0.5476 -0.0308  0.2597
  176SAPI  H12R20040   2.163   5.217   7.666 -0.8786 -0.4129  1.9605
  176SAPI  C21320041   2.176   5.016   7.759  0.8809  0.4399 -0.0170
  176SAPI  H13R20042   2.235   4.928   7.724  0.8188  1.0159 -1.6845
  176SAPI  H13S20043   2.070   4.986   7.759  1.0024 -0.2292 -2.3491
  176SAPI  C21420044   2.219   5.083   7.887 -0.1763 -0.0996  0.2725
  176SAPI  H14R20045   2.280   5.174   7.881 -0.3998  0.0067 -0.4202
  176SAPI  C21520046   2.213   5.010   8.004 -0.6056  0.0231 -0.0277
  176SAPI  H15R20047   2.247   5.051   8.100  1.1645 -0.5163 -0.3734
  176SAPI  C21620048   2.156   4.872   8.009 -0.0257 -0.1670  0.9481
  176SAPI  H16R20049   2.224   4.804   8.064  0.6096 -1.0512 -0.8274
  176SAPI  H16S20050   2.135   4.823   7.911 -0.1160 -0.8625  1.3092
  176SAPI  C21720051   2.020   4.870   8.090 -0.0978  0.4624  0.5373
  176SAPI  H17R20052   1.935   4.836   8.028  0.6200  1.6889 -1.2335
  176SAPI  H17S20053   1.999   4.973   8.126  0.9055  0.2344  1.8577
  176SAPI  C21820054   2.021   4.793   8.225  0.5157 -0.4493 -0.1595
  176SAPI  H18R20055   2.060   4.690   8.208  0.3558 -0.3608 -1.0864
  176SAPI  H18S20056   1.920   4.769   8.266  1.0339 -1.8322  0.3761
  176SAPI  C21920057   2.123   4.861   8.325 -0.3204  0.1074 -0.0556
  176SAPI  H19R20058   2.112   4.971   8.314  1.4654  0.3356  0.2630
  176SAPI  H19S20059   2.227   4.841   8.293 -0.0213  1.8262 -0.2783
  176SAPI  C22020060   2.101   4.810   8.466  0.6051  0.0979 -0.2498
  176SAPI  H20R20061   2.128   4.703   8.457 -0.8847 -0.3027 -0.0670
  176SAPI  H20S20062   1.998   4.826   8.503  0.4121 -0.3373 -0.5803
  176SAPI  H20T20063   2.172   4.862   8.534  1.5499  2.2897 -2.7000
  176SAPI   C3320064   2.148   3.955   7.202  0.5059  0.2034 -0.5090
  176SAPI   H3X20065   2.148   3.846   7.179 -0.9707 -0.2717  1.4593
  176SAPI   H3Y20066   2.065   4.002   7.147 -0.3237 -0.1877  0.3770
  176SAPI   C3420067   2.128   3.981   7.349 -0.3478 -0.5209 -0.0012
  176SAPI   H4X20068   2.027   3.953   7.385  0.0004  0.3651  1.7797
  176SAPI   H4Y20069   2.134   4.091   7.363 -3.0507 -0.4736  1.5239
  176SAPI   C3520070   2.231   3.921   7.442  0.0750 -0.0205  1.0940
  176SAPI   H5X20071   2.333   3.955   7.416  0.1359 -1.5794 -0.9363
  176SAPI   H5Y20072   2.229   3.812   7.422 -0.2295  0.0511  0.7097
  176SAPI   C3620073   2.205   3.945   7.592 -0.2278 -0.2970 -0.0561
  176SAPI   H6X20074   2.177   4.052   7.598 -1.0339 -0.4703 -0.4796
  176SAPI   H6Y20075   2.296   3.927   7.652 -0.1625  0.0700 -0.0458
  176SAPI   C3720076   2.088   3.869   7.655 -0.0836 -0.6272  0.1134
  176SAPI   H7X20077   2.115   3.761   7.646 -0.9033 -0.6701 -2.6352
  176SAPI   H7Y20078   1.998   3.888   7.594 -0.3370 -0.4054  0.5515
  176SAPI   C3820079   2.060   3.916   7.792  0.3194 -0.7164 -0.2343
  176SAPI   H8X20080   2.021   4.017   7.766 -2.1290 -1.5744 -0.1307
  176SAPI   H8Y20081   2.149   3.911   7.858 -0.1526 -0.1134  0.4688
  176SAPI   C3920082   1.948   3.833   7.850  0.2877 -0.0612 -0.5544
  176SAPI   H9X20083   1.899   3.784   7.763  0.9724 -0.2457 -0.8442
  176SAPI   H9Y20084   1.869   3.892   7.902 -0.0594 -0.8650 -0.1594
  176SAPI  C31020085   1.978   3.711   7.941  0.3997  0.4232  0.5897
  176SAPI  H10X20086   2.068   3.661   7.899 -1.0693 -2.0992  0.2381
  176SAPI  H10Y20087   1.900   3.635   7.921  1.0177 -0.8297  2.6289
  176SAPI  C31120088   1.983   3.741   8.085 -0.3694  0.9053 -0.2682
  176SAPI  H11X20089   1.897   3.805   8.114  0.8354  0.7031  4.6392
  176SAPI  H11Y20090   2.072   3.803   8.110 -0.2957  0.6224  0.1821
  176SAPI  C31220091   1.972   3.622   8.183  0.4615  0.8004 -0.2715
  176SAPI  H12X20092   2.050   3.548   8.155  1.6711  2.0662 -0.3286
  176SAPI  H12Y20093   1.875   3.569   8.173  0.5418  0.5032  0.4677
  176SAPI  C31320094   1.986   3.676   8.329  0.3652  0.5540  0.0941
  176SAPI  H13X20095   1.909   3.756   8.337 -1.3337 -1.0169 -0.0526
  176SAPI  H13Y20096   2.094   3.702   8.324  0.0720  1.6810 -1.2521
  176SAPI  C31420097   1.960   3.569   8.436  0.0351 -0.4367 -0.4226
  176SAPI  H14X20098   2.023   3.590   8.525 -0.2459 -1.6431  0.0907
  176SAPI  H14Y20099   1.986   3.468   8.399 -0.6123 -0.1698 -1.6743
  176SAPI  C31520100   1.817   3.557   8.487 -0.2378 -0.1039  0.3448
  176SAPI  H15X20101   1.754   3.555   8.395  1.8683  1.5755 -1.2289
  176SAPI  H15Y20102   1.796   3.650   8.544  0.5550  1.0419 -1.1579
  176SAPI  C31620103   1.779   3.441   8.579 -0.5646 -0.4517  0.7739
  176SAPI  H16X20104   1.672   3.460   8.602 -0.5311  0.6080  0.1134
  176SAPI  H16Y20105   1.845   3.430   8.667  2.8108  1.9622 -1.2050
  176SAPI  C31720106   1.770   3.314   8.486 -0.7311  0.1531 -0.0815
  176SAPI  H17X20107   1.865   3.310   8.430 -0.8267 -1.0533 -0.1823
  176SAPI  H17Y20108   1.702   3.328   8.399 -1.1457 -0.7521  0.0838
  176SAPI  C31820109   1.766   3.185   8.558  0.0615  0.2826  0.5494
  176SAPI  H18X20110   1.829   3.189   8.649 -0.1127 -0.3518  0.6982
  176SAPI  H18Y20111   1.782   3.094   8.496 -1.2352  0.1352  0.4070
  176SAPI  H18Z20112   1.665   3.159   8.595  0.0598 -1.5442 -0.6208
  177SLPC     N20113   6.661   2.479  10.926  0.0405  0.4312 -0.2468
  177SLPC   C1320114   6.590   2.572  11.019 -0.4326 -0.3054  0.0096
  177SLPC  H13A20115   6.539   2.515  11.096  1.0950 -1.2616  0.3545
  177SLPC  H13B20116   6.662   2.638  11.065  0.3995  0.9201 -2.8181
  177SLPC  H13C20117   6.520   2.635  10.966  0.0830  0.1625 -0.1196
  177SLPC   C1420118   6.564   2.397  10.849 -0.1483  0.3000 -0.6160
  177SLPC  H14A20119   6.485   2.359  10.912  0.0402  0.6897 -0.1404
  177SLPC  H14B20120   6.512   2.455  10.774 -0.9900 -0.4622 -0.6438
  177SLPC  H14C20121   6.612   2.324  10.785 -0.2380 -0.6739  0.3938
  177SLPC   C1520122   6.755   2.377  10.998  0.4537 -0.5985  0.0868
  177SLPC  H15A20123   6.830   2.415  11.066 -0.1619  0.0213  0.4327
  177SLPC  H15B20124   6.694   2.304  11.050 -1.4224 -0.4771 -1.8215
  177SLPC  H15C20125   6.800   2.319  10.919  0.6282 -2.4946  1.5011
  177SLPC   C1220126   6.739   2.549  10.822  0.6011 -0.1944 -0.2273
  177SLPC  H12A20127   6.788   2.471  10.766  0.0950 -0.7081  0.0379
  177SLPC  H12B20128   6.822   2.600  10.870  0.9640 -0.2503 -0.7868
  177SLPC   C1120129   6.664   2.652  10.737  0.0773 -0.7197  0.4592
  177SLPC  H11A20130   6.585   2.618  10.666  0.5855  1.8724 -1.5304
  177SLPC  H11B20131   6.752   2.671  10.672  0.1509  0.6519  0.9157
  177SLPC     P20132   6.703   2.882  10.861  0.2181  0.0038 -0.3125
  177SLPC   O1320133   6.720   2.873  11.009 -0.3769 -0.4843 -0.5259
  177SLPC   O1420134   6.830   2.885  10.782 -0.0549  0.6975 -0.1732
  177SLPC   O1220135   6.609   2.758  10.816 -0.1992 -0.4853  0.0959
  177SLPC   O1120136   6.604   3.002  10.821 -0.9181  0.3710 -0.0194
  177SLPC    C120137   6.526   2.999  10.704 -0.2289  0.2243 -0.0684
  177SLPC    HA20138   6.526   2.899  10.656  0.4994  0.3783 -0.3993
  177SLPC    HB20139   6.421   3.027  10.726 -0.8776 -0.1799 -2.3266
  177SLPC    C220140   6.561   3.108  10.595  0.0200 -0.1340  0.1112
  177SLPC    HS20141   6.472   3.119  10.530  1.0087  2.0979 -0.9886
  177SLPC   O2120142   6.675   3.057  10.525  0.0561  0.0098  0.4190
  177SLPC   C2120143   6.649   2.955  10.442 -0.5719 -0.3721  0.6066
  177SLPC   O2220144   6.545   2.902  10.410 -0.5831 -0.4687 -0.1435
  177SLPC   C2220145   6.783   2.923  10.370 -0.3528 -0.1089  0.5402
  177SLPC   H2R20146   6.817   3.018  10.324 -1.6184 -0.0231 -0.2601
  177SLPC   H2S20147   6.842   2.881  10.454 -0.4569 -3.4330 -0.9016
  177SLPC    C320148   6.590   3.243  10.653 -0.5173  0.2110 -0.7021
  177SLPC    HX20149   6.677   3.239  10.723 -0.6697 -0.9970 -0.5488
  177SLPC    HY20150   6.514   3.267  10.730  1.9229  1.3421  1.4937
  177SLPC   O3120151   6.592   3.340  10.551  0.1048  0.0153  0.1886
  177SLPC   C3120152   6.715   3.363  10.504 -0.0542  0.1279 -0.1144
  177SLPC   O3220153   6.815   3.312  10.542 -0.5463  0.1370 -0.1221
  177SLPC   C3220154   6.699   3.444  10.374  0.4362 -0.1825  0.2178
  177SLPC   H2X20155   6.801   3.479  10.346 -0.2894 -0.1702 -2.6615
  177SLPC   H2Y20156   6.632   3.532  10.384  0.3638 -0.2579  0.4102
  177SLPC   C2320157   6.760   2.813  10.253 -0.6704  0.2424 -0.9127
  177SLPC   H3R20158   6.709   2.727  10.302 -1.5403  0.9951 -0.4490
  177SLPC   H3S20159   6.859   2.785  10.213 -0.9610  1.5114 -2.6778
  177SLPC   C2420160   6.688   2.872  10.131 -0.5170  0.4670  0.4851
  177SLPC   H4R20161   6.736   2.971  10.119 -0.7043  0.4420 -0.5435
  177SLPC   H4S20162   6.580   2.890  10.147 -0.6787  2.0911 -1.9099
  177SLPC   C2520163   6.696   2.781  10.010 -0.0246  0.0590  0.4711
  177SLPC   H5R20164   6.662   2.678  10.031  2.6600 -1.1593 -0.7407
  177SLPC   H5S20165   6.799   2.785   9.970 -0.1026  1.2340  0.3431
  177SLPC   C2620166   6.608   2.842   9.898  0.0293 -0.2082  0.4857
  177SLPC   H6R20167   6.510   2.866   9.943 -1.1547  0.7057 -2.3755
  177SLPC   H6S20168   6.611   2.750   9.836  0.3146 -1.2635  2.0273
  177SLPC   C2720169   6.660   2.963   9.823  0.1330 -0.2435 -0.1027
  177SLPC   H7R20170   6.684   3.042   9.897  0.9295  0.2364 -0.8561
  177SLPC   H7S20171   6.578   3.009   9.763  0.8312  0.0801 -0.8231
  177SLPC   C2820172   6.776   2.932   9.725  0.1844 -0.9528  0.4538
  177SLPC   H8R20173   6.861   2.882   9.775 -0.7870 -0.7355  2.4279
  177SLPC   H8S20174   6.821   3.029   9.692  0.1615  0.1641  3.4075
  177SLPC   C2920175   6.735   2.838   9.610  0.0029  0.0608 -0.3356
  177SLPC   H9R20176   6.720   2.733   9.640  1.7358 -1.0062 -2.9283
  177SLPC  C21020177   6.737   2.873   9.481 -0.0557 -0.0362  1.0146
  177SLPC  H10R20178   6.710   2.797   9.407 -2.4402  1.8903 -0.2381
  177SLPC  C21120179   6.776   3.003   9.409  0.4064  0.4196  0.3309
  177SLPC  H11R20180   6.796   3.079   9.488 -1.9318  0.4253  0.9897
  177SLPC  H11S20181   6.873   2.981   9.360  1.6623 -0.1530  2.9553
  177SLPC  C21220182   6.678   3.043   9.303  0.2567 -0.4888  0.2082
  177SLPC  H12R20183   6.573   3.035   9.333 -0.3256  0.1292 -1.5367
  177SLPC  C21320184   6.706   3.087   9.180  0.9285  0.0107 -0.3029
  177SLPC  H13R20185   6.615   3.096   9.118  0.6214 -0.5076  0.0582
  177SLPC  C21420186   6.843   3.099   9.122 -0.5364 -0.7849 -0.9359
  177SLPC  H14R20187   6.925   3.102   9.196 -1.0276  0.4921 -0.4197
  177SLPC  H14S20188   6.864   3.187   9.058  0.1842  0.7492  1.2874
  177SLPC  C21520189   6.858   2.977   9.031 -0.2592  0.1079  0.0931
  177SLPC  H15R20190   6.779   2.984   8.953  1.6202 -1.9692 -2.1819
  177SLPC  H15S20191   6.829   2.889   9.092  0.1997  0.7325  1.2408
  177SLPC  C21620192   6.994   2.945   8.962 -0.0788 -0.1811 -0.1399
  177SLPC  H16R20193   6.986   2.880   8.872  0.2040  1.0639 -1.0858
  177SLPC  H16S20194   7.069   2.898   9.029  1.5524 -0.5225 -2.1125
  177SLPC  C21720195   7.060   3.071   8.906 -0.2471 -0.1326 -0.4612
  177SLPC  H17R20196   7.076   3.131   8.998 -0.3171 -2.1372  0.9275
  177SLPC  H17S20197   6.999   3.128   8.832 -1.1620  0.4101  0.6664
  177SLPC  C21820198   7.201   3.048   8.842 -0.1792  0.0180 -0.2431
  177SLPC  H18R20199   7.258   2.987   8.914 -1.1042  0.8271  1.2272
  177SLPC  H18S20200   7.240   3.149   8.817  0.5861 -0.3827 -0.6839
  177SLPC  H18T20201   7.190   2.995   8.745 -1.9147 -0.5311  0.2221
  177SLPC   C3320202   6.652   3.349  10.259  0.5623 -0.4560 -0.3670
  177SLPC   H3X20203   6.554   3.301  10.275  0.3588  0.2410  0.6308
  177SLPC   H3Y20204   6.735   3.277  10.245  2.3139  1.4033 -0.1774
  177SLPC   C3420205   6.658   3.430  10.126 -0.1163  0.4623  0.1712
  177SLPC   H4X20206   6.753   3.488  10.126  0.9911 -1.2800  0.4076
  177SLPC   H4Y20207   6.577   3.505  10.115  1.5066  2.2970  0.3518
  177SLPC   C3520208   6.687   3.347   9.993  0.0654  0.4096  0.8847
  177SLPC   H5X20209   6.611   3.266   9.987 -1.4122  1.8446 -0.8123
  177SLPC   H5Y20210   6.777   3.283  10.007  0.5140  0.7455 -0.3876
  177SLPC   C3620211   6.683   3.420   9.869 -0.3433 -0.0520 -0.2230
  177SLPC   H6X20212   6.731   3.518   9.890  0.9478 -0.7855  0.3500
  177SLPC   H6Y20213   6.572   3.424   9.857 -0.3183 -0.0874 -0.4826
  177SLPC   C3720214   6.746   3.360   9.743 -0.2824  0.1537  0.2165
  177SLPC   H7X20215   6.681   3.276   9.711  0.4545 -0.0412 -0.8130
  177SLPC   H7Y20216   6.852   3.340   9.772 -0.4246 -0.9536 -0.0021
  177SLPC   C3820217   6.758   3.468   9.632 -0.0099 -0.3299  0.0458
  177SLPC   H8X20218   6.851   3.523   9.657 -1.7278  0.1507  7.8133
  177SLPC   H8Y20219   6.674   3.540   9.640 -1.4323 -2.0001  0.9005
  177SLPC   C3920220   6.777   3.413   9.495  0.1389  0.8372 -0.6183
  177SLPC   H9X20221   6.694   3.350   9.455  0.3025  0.7605 -0.8390
  177SLPC   H9Y20222   6.862   3.342   9.507 -0.5004  0.2726  0.8658
  177SLPC  C31020223   6.818   3.515   9.392  0.8161 -0.1227 -0.1567
  177SLPC  H10X20224   6.889   3.591   9.430  0.5774  0.0400 -0.0349
  177SLPC  H10Y20225   6.723   3.562   9.357  0.4507 -0.7171  0.0083
  177SLPC  C31120226   6.874   3.443   9.267  0.3060 -0.6378  1.0847
  177SLPC  H11X20227   6.799   3.380   9.216 -1.7825  0.8516  2.1453
  177SLPC  H11Y20228   6.959   3.382   9.304  0.2401 -0.3777  1.6809
  177SLPC  C31220229   6.929   3.548   9.170  0.4084  0.1977 -0.1443
  177SLPC  H12X20230   6.986   3.626   9.224  1.4221 -2.0459  2.2313
  177SLPC  H12Y20231   6.842   3.607   9.135  0.4286  1.0730  1.2363
  177SLPC  C31320232   6.993   3.492   9.046 -0.7974 -0.2370  0.6399
  177SLPC  H13X20233   6.935   3.411   8.997  3.2863 -1.7136 -2.2692
  177SLPC  H13Y20234   7.088   3.443   9.074  0.5170  1.2502 -0.9846
  177SLPC  C31420235   7.026   3.601   8.946 -0.0721  0.1521  1.1010
  177SLPC  H14X20236   7.100   3.673   8.988 -0.6118  1.8890 -0.7777
  177SLPC  H14Y20237   6.931   3.657   8.931  0.2904  0.8763  1.4421
  177SLPC  C31520238   7.071   3.543   8.804  0.7272 -0.1039 -0.1726
  177SLPC  H15X20239   7.037   3.615   8.726  0.8899  2.1560  1.7331
  177SLPC  H15Y20240   7.014   3.451   8.778  0.0354  0.3245 -0.2261
  177SLPC  C31620241   7.221   3.545   8.803 -0.5051 -0.1009 -0.4072
  177SLPC  H16X20242   7.273   3.484   8.881 -0.7992 -0.1968 -0.2867
  177SLPC  H16Y20243   7.255   3.648   8.826  0.7189 -0.9072  1.6535
  177SLPC  C31720244   7.288   3.501   8.665 -0.1952  1.2019 -0.7870
  177SLPC  H17X20245   7.257   3.573   8.585 -1.0232  2.2663  0.4488
  177SLPC  H17Y20246   7.257   3.397   8.643  2.6861  0.1399 -0.2301
  177SLPC  C31820247   7.442   3.490   8.671 -0.0328  0.4616  0.6798
  177SLPC  H18X20248   7.478   3.386   8.683  0.3811  0.7176  1.7342
  177SLPC  H18Y20249   7.475   3.560   8.751  0.6784  0.5276  0.3360
  177SLPC  H18Z20250   7.485   3.536   8.579 -0.7172  2.6558  1.3956
  178SLPC     N20251   1.299   4.415  11.409 -0.5516 -0.4521  0.0787
  178SLPC   C1320252   1.280   4.377  11.553 -0.3140  0.3998  0.1873
  178SLPC  H13A20253   1.197   4.309  11.558  0.2521 -0.3948 -0.7023
  178SLPC  H13B20254   1.365   4.318  11.586 -0.0107  0.5026 -0.3982
  178SLPC  H13C20255   1.263   4.462  11.617  2.0246  1.3662 -0.3685
  178SLPC   C1420256   1.414   4.514  11.397  0.5909 -0.0235 -0.5924
  178SLPC  H14A20257   1.490   4.476  11.464 -0.4388 -0.9493  0.0839
  178SLPC  H14B20258   1.460   4.520  11.299 -0.4944  2.1595 -1.0174
  178SLPC  H14C20259   1.381   4.613  11.422  1.1124 -0.0857  0.3854
  178SLPC   C1520260   1.177   4.479  11.358  0.3151 -0.2435  0.0708
  178SLPC  H15A20261   1.192   4.504  11.254 -0.4408  1.0776  0.2541
  178SLPC  H15B20262   1.096   4.408  11.365  0.2182  0.0811  3.4711
  178SLPC  H15C20263   1.139   4.566  11.409  1.7287  0.1814  0.4511
  178SLPC   C1220264   1.351   4.293  11.328 -0.3175 -0.4456  0.7378
  178SLPC  H12A20265   1.430   4.246  11.385  1.5391 -1.9209 -2.7273
  178SLPC  H12B20266   1.402   4.328  11.240  0.6529  1.1707  1.8805
  178SLPC   C1120267   1.247   4.184  11.302  0.8595  0.7436 -0.2989
  178SLPC  H11A20268   1.190   4.154  11.392  0.6414 -1.0144 -0.9843
  178SLPC  H11B20269   1.297   4.093  11.262  1.5176  1.3886 -0.9906
  178SLPC     P20270   1.149   4.246  11.059  0.0078 -0.0801 -0.1073
  178SLPC   O1320271   1.030   4.331  11.029  0.4769 -0.0388 -0.1123
  178SLPC   O1420272   1.273   4.310  11.007  0.3520  0.7899 -0.6188
  178SLPC   O1220273   1.143   4.228  11.215  0.3812  0.0202 -0.3162
  178SLPC   O1120274   1.135   4.105  10.992  0.1401  0.3694  0.1302
  178SLPC    C120275   1.164   4.081  10.852 -0.5213 -0.1997 -0.4107
  178SLPC    HA20276   1.210   4.169  10.802 -0.1779  0.1537  0.5139
  178SLPC    HB20277   1.230   3.996  10.822 -0.9818 -0.3389 -1.0555
  178SLPC    C220278   1.032   4.052  10.777  0.3923 -0.6339  0.5797
  178SLPC    HS20279   0.995   3.962  10.831  0.6046  0.4564  2.6243
  178SLPC   O2120280   1.056   4.033  10.640  0.5141 -0.2293  0.3124
  178SLPC   C2120281   0.990   3.941  10.578 -0.1785 -0.4444  0.1566
  178SLPC   O2220282   0.899   3.870  10.620  0.1868 -0.1627  0.0909
  178SLPC   C2220283   1.045   3.930  10.439  0.5089  0.4126  0.5165
  178SLPC   H2R20284   1.141   3.876  10.452 -0.7724 -2.5641 -1.2824
  178SLPC   H2S20285   0.965   3.878  10.382  1.6592  2.3788 -3.2841
  178SLPC    C320286   0.924   4.163  10.802  0.7799  1.2505 -0.4635
  178SLPC    HX20287   0.973   4.259  10.774 -0.6117  2.3909  0.8379
  178SLPC    HY20288   0.895   4.165  10.909  0.5464 -0.7824 -0.4512
  178SLPC   O3120289   0.805   4.142  10.719  0.1198  0.2311 -0.1126
  178SLPC   C3120290   0.741   4.249  10.684 -0.2443 -0.4000  0.7616
  178SLPC   O3220291   0.768   4.359  10.719  1.0370 -0.4819  0.3138
  178SLPC   C3220292   0.619   4.219  10.596 -0.2103 -0.1907 -0.1585
  178SLPC   H2X20293   0.601   4.296  10.518  1.4468 -0.0134 -0.3945
  178SLPC   H2Y20294   0.526   4.227  10.657  1.0543 -0.6971  1.9370
  178SLPC   C2320295   1.080   4.059  10.360  0.1537 -0.5406 -0.0437
  178SLPC   H3R20296   1.094   4.011  10.260 -1.1331 -2.1773  0.5205
  178SLPC   H3S20297   1.177   4.104  10.391  0.3999  1.0568 -2.7402
  178SLPC   C2420298   0.968   4.171  10.348 -1.2820  0.1113 -0.2798
  178SLPC   H4R20299   0.949   4.217  10.447 -0.9155 -0.4170  0.0416
  178SLPC   H4S20300   0.872   4.128  10.310 -0.2666 -2.0323 -0.5545
  178SLPC   C2520301   1.019   4.288  10.260  0.4696 -0.3729 -0.5688
  178SLPC   H5R20302   1.127   4.311  10.272  0.2159  0.2546  0.6706
  178SLPC   H5S20303   0.969   4.383  10.289  0.8517  0.3511 -2.1834
  178SLPC   C2620304   1.011   4.246  10.114  0.3069 -0.2772 -0.1059
  178SLPC   H6R20305   0.908   4.220  10.083  0.1976  0.8568 -0.7708
  178SLPC   H6S20306   1.072   4.154  10.109  0.5822 -0.0574 -1.1451
  178SLPC   C2720307   1.079   4.341  10.009  1.0075  0.9805 -0.6662
  178SLPC   H7R20308   1.186   4.360  10.033  0.9209  1.3331 -0.5647
  178SLPC   H7S20309   1.023   4.436  10.012 -2.4536 -0.9092  0.9078
  178SLPC   C2820310   1.079   4.265   9.875 -0.5660  0.6262 -0.2487
  178SLPC   H8R20311   0.981   4.213   9.867 -0.1925 -0.2519  0.6708
  178SLPC   H8S20312   1.151   4.181   9.885 -1.5377 -0.1741  0.1590
  178SLPC   C2920313   1.095   4.342   9.750  0.2254 -0.3579  0.1563
  178SLPC   H9R20314   1.015   4.415   9.731  1.3662  0.8293 -0.2457
  178SLPC  C21020315   1.200   4.326   9.672  0.5121  0.1665  0.5969
  178SLPC  H10R20316   1.198   4.386   9.580  1.0068 -0.6548  0.0384
  178SLPC  C21120317   1.310   4.234   9.691 -0.4771  0.8574  0.0597
  178SLPC  H11R20318   1.341   4.222   9.797  3.6300 -0.0740 -1.0683
  178SLPC  H11S20319   1.400   4.284   9.648 -0.6843  1.1268 -0.0600
  178SLPC  C21220320   1.275   4.101   9.622  0.8200  0.6683  0.0752
  178SLPC  H12R20321   1.190   4.046   9.667  2.1694 -0.5869  1.2100
  178SLPC  C21320322   1.330   4.047   9.511 -0.3130  0.5834  0.0736
  178SLPC  H13R20323   1.278   3.960   9.468 -1.8261  0.9632  1.0551
  178SLPC  C21420324   1.447   4.104   9.431  0.4487  0.7155 -0.4713
  178SLPC  H14R20325   1.522   4.138   9.505 -1.7901  1.3090  1.6649
  178SLPC  H14S20326   1.408   4.189   9.371 -0.3073  2.4451  2.2798
  178SLPC  C21520327   1.512   4.002   9.334 -0.1961 -0.0773 -0.0822
  178SLPC  H15R20328   1.441   3.955   9.262  1.2295 -0.1898 -1.4591
  178SLPC  H15S20329   1.555   3.933   9.409  0.2048  2.0436  1.7608
  178SLPC  C21620330   1.613   4.055   9.234 -0.0941 -0.5167 -0.0043
  178SLPC  H16R20331   1.702   4.092   9.288 -0.2733  0.2653 -0.2253
  178SLPC  H16S20332   1.568   4.142   9.180  1.6522 -0.5921 -1.7000
  178SLPC  C21720333   1.649   3.933   9.141 -0.4740  0.0849  0.2325
  178SLPC  H17R20334   1.567   3.920   9.067  0.3805 -0.7674 -0.5948
  178SLPC  H17S20335   1.652   3.839   9.200 -0.1211 -0.7033 -0.9955
  178SLPC  C21820336   1.771   3.966   9.050  0.0436 -0.3566 -0.5102
  178SLPC  H18R20337   1.858   3.981   9.118 -1.0517 -0.2137  0.8879
  178SLPC  H18S20338   1.759   4.054   8.984  0.9903 -0.4821 -0.8717
  178SLPC  H18T20339   1.792   3.878   8.984  2.1914  0.2048 -0.6497
  178SLPC   C3320340   0.611   4.076  10.537  0.3232 -0.3832  0.2146
  178SLPC   H3X20341   0.563   4.017  10.617  0.6307 -0.5141  0.3043
  178SLPC   H3Y20342   0.711   4.038  10.506  1.1098  0.9433  1.0428
  178SLPC   C3420343   0.530   4.077  10.405  0.1108 -0.9516 -0.1513
  178SLPC   H4X20344   0.592   4.140  10.338  0.8450 -1.0349  0.4372
  178SLPC   H4Y20345   0.440   4.140  10.426  0.7430 -0.4845  1.2917
  178SLPC   C3520346   0.517   3.943  10.333 -0.1228  0.1218  0.2944
  178SLPC   H5X20347   0.448   3.945  10.245 -0.3136  0.4534  0.4485
  178SLPC   H5Y20348   0.490   3.873  10.414  0.7979  2.0384  2.3428
  178SLPC   C3620349   0.647   3.892  10.260 -0.6094  0.2400 -0.5421
  178SLPC   H6X20350   0.659   3.782  10.251  0.7913  0.0653  2.1887
  178SLPC   H6Y20351   0.740   3.920  10.315 -0.1953  1.2303 -1.6826
  178SLPC   C3720352   0.677   3.960  10.119  0.1821 -0.4793  0.3581
  178SLPC   H7X20353   0.669   4.070  10.136 -1.1974 -0.6046  0.6186
  178SLPC   H7Y20354   0.603   3.930  10.042  0.0228 -0.2538  0.4211
  178SLPC   C3820355   0.810   3.915  10.061 -0.4636 -0.3824  0.1719
  178SLPC   H8X20356   0.807   3.804  10.061 -0.9956 -0.3768 -0.5393
  178SLPC   H8Y20357   0.894   3.943  10.128  2.3846  0.7249 -3.5009
  178SLPC   C3920358   0.835   3.980   9.927  0.1277 -0.3453  0.6640
  178SLPC   H9X20359   0.939   3.967   9.890 -0.5271  0.0610 -1.4455
  178SLPC   H9Y20360   0.798   4.084   9.921  0.9053 -0.0052  1.5151
  178SLPC  C31020361   0.760   3.910   9.806  0.3039  0.4039  0.2880
  178SLPC  H10X20362   0.650   3.917   9.816  0.1518  2.8851 -2.0386
  178SLPC  H10Y20363   0.800   3.808   9.790  2.9460  1.4316 -0.1918
  178SLPC  C31120364   0.806   3.979   9.673 -0.1917  0.0162 -0.2766
  178SLPC  H11X20365   0.914   3.966   9.653 -0.3210 -2.4101  0.2370
  178SLPC  H11Y20366   0.777   4.086   9.673 -2.0408 -0.4331 -1.3140
  178SLPC  C31220367   0.729   3.913   9.560  0.2950  0.5915  0.6749
  178SLPC  H12X20368   0.620   3.916   9.579 -0.0631 -0.0513 -1.0436
  178SLPC  H12Y20369   0.760   3.808   9.541  2.1188  1.0738  0.7677
  178SLPC  C31320370   0.747   3.977   9.421 -0.5741 -0.5908  0.0684
  178SLPC  H13X20371   0.850   4.009   9.398 -0.1078 -1.7559  0.4648
  178SLPC  H13Y20372   0.669   4.057   9.425 -0.8848 -0.7560 -1.8033
  178SLPC  C31420373   0.703   3.886   9.307  0.0041 -0.3654  0.2976
  178SLPC  H14X20374   0.596   3.880   9.333  0.1280  2.2664  1.7059
  178SLPC  H14Y20375   0.761   3.793   9.326  0.8079  0.2678  1.0096
  178SLPC  C31520376   0.711   3.946   9.165 -0.2430  0.1595  0.4598
  178SLPC  H15X20377   0.612   3.936   9.115  0.1247  0.1650 -0.2682
  178SLPC  H15Y20378   0.728   4.055   9.177  1.6568 -0.2220  1.6841
  178SLPC  C31620379   0.814   3.886   9.073 -0.2126  0.3678  0.7054
  178SLPC  H16X20380   0.789   3.779   9.054 -1.3507  0.9497 -1.4846
  178SLPC  H16Y20381   0.914   3.894   9.120  0.9638  3.1017 -1.9502
  178SLPC  C31720382   0.819   3.960   8.939 -0.3273  1.0008  0.1842
  178SLPC  H17X20383   0.887   3.914   8.864  0.0735  3.9883 -1.4091
  178SLPC  H17Y20384   0.853   4.064   8.958 -0.8075  1.2434 -0.2807
  178SLPC  C31820385   0.682   3.949   8.876  0.4873 -0.3403  0.3843
  178SLPC  H18X20386   0.697   3.993   8.774 -1.3011  0.1646  0.2971
  178SLPC  H18Y20387   0.602   4.013   8.920 -0.8978 -1.1061 -0.8976
  178SLPC  H18Z20388   0.642   3.846   8.866 -4.5497  1.3031  0.4832
  179SLPC     N20389   2.848   1.362  10.927  0.3252  0.5150 -0.4029
  179SLPC   C1320390   2.843   1.400  11.068 -0.4154 -0.3097 -0.6098
  179SLPC  H13A20391   2.910   1.483  11.082 -0.1801 -0.6622  0.4384
  179SLPC  H13B20392   2.743   1.416  11.103  0.9561  0.4057  3.4871
  179SLPC  H13C20393   2.884   1.326  11.135 -0.6864 -0.8133 -0.9843
  179SLPC   C1420394   2.759   1.245  10.933 -0.7568  0.4420 -0.6273
  179SLPC  H14A20395   2.807   1.164  10.987 -1.1026  0.9617  0.4940
  179SLPC  H14B20396   2.667   1.261  10.987 -0.1595 -0.1958  0.6408
  179SLPC  H14C20397   2.731   1.207  10.836  0.7500 -0.2681 -0.8037
  179SLPC   C1520398   2.984   1.328  10.881 -0.6476  0.2307  0.6928
  179SLPC  H15A20399   2.984   1.295  10.778 -0.4729  1.1916  0.3754
  179SLPC  H15B20400   3.046   1.416  10.891 -0.2128 -0.0043  0.1730
  179SLPC  H15C20401   3.026   1.252  10.945  0.5940  0.1068 -0.2244
  179SLPC   C1220402   2.794   1.478  10.846 -0.5049 -0.3184  0.5687
  179SLPC  H12A20403   2.861   1.563  10.851  3.2950 -3.0534  0.6430
  179SLPC  H12B20404   2.709   1.508  10.905 -1.7838  1.1163 -1.8236
  179SLPC   C1120405   2.755   1.448  10.707  0.1637 -0.0509  0.4590
  179SLPC  H11A20406   2.687   1.532  10.680 -2.3002 -1.9384  0.4084
  179SLPC  H11B20407   2.682   1.365  10.719 -0.9146  1.1183  2.4926
  179SLPC     P20408   2.932   1.538  10.525  0.5016 -0.1916  0.3321
  179SLPC   O1320409   2.960   1.657  10.611 -0.4534  0.3223 -0.2324
  179SLPC   O1420410   3.044   1.478  10.450 -0.2808  0.0336 -0.1772
  179SLPC   O1220411   2.860   1.423  10.612  0.3684  0.3475 -0.0461
  179SLPC   O1120412   2.821   1.585  10.425  0.4292  0.6195  0.2211
  179SLPC    C120413   2.703   1.518  10.383  0.0918 -0.4095  0.1086
  179SLPC    HA20414   2.642   1.477  10.466 -0.4881 -1.1801 -0.6816
  179SLPC    HB20415   2.649   1.596  10.325  0.2644  0.9168  1.6236
  179SLPC    C220416   2.739   1.401  10.287 -0.7924 -0.4849 -0.3566
  179SLPC    HS20417   2.809   1.335  10.343  0.9502  2.2202  0.9106
  179SLPC   O2120418   2.803   1.454  10.169  0.2005 -0.1836 -0.2228
  179SLPC   C2120419   2.918   1.391  10.132  0.7313 -1.0816 -0.8031
  179SLPC   O2220420   2.950   1.280  10.170  0.5538 -1.0597 -0.0417
  179SLPC   C2220421   3.002   1.489  10.051 -0.5390 -0.4237 -0.2989
  179SLPC   H2R20422   2.943   1.530   9.966 -0.3848  0.2027 -0.1135
  179SLPC   H2S20423   3.033   1.574  10.115  2.0540 -2.5933  1.5806
  179SLPC    C320424   2.606   1.341  10.240 -0.3954  1.0730 -0.7184
  179SLPC    HX20425   2.541   1.417  10.190 -1.0003 -0.6973 -2.7529
  179SLPC    HY20426   2.556   1.299  10.330  2.3145 -0.5495  0.1417
  179SLPC   O3120427   2.623   1.239  10.139  0.2074  0.1478  0.4295
  179SLPC   C3120428   2.661   1.122  10.190  0.6785  0.7080  0.5964
  179SLPC   O3220429   2.657   1.085  10.306 -0.6805 -0.1154 -0.8837
  179SLPC   C3220430   2.711   1.032  10.069  0.1220  0.1423 -0.2427
  179SLPC   H2X20431   2.619   0.980  10.037  1.5645 -0.1209 -4.6097
  179SLPC   H2Y20432   2.782   0.960  10.116 -0.9227 -0.0460  1.1190
  179SLPC   C2320433   3.132   1.433   9.994  0.2695  0.4294 -0.1706
  179SLPC   H3R20434   3.193   1.378  10.068  0.2178 -1.7229 -1.6449
  179SLPC   H3S20435   3.180   1.530   9.966 -2.0854  2.0838  1.1796
  179SLPC   C2420436   3.107   1.350   9.869  0.0731  0.2458  0.2583
  179SLPC   H4R20437   3.024   1.405   9.819  0.2700  0.0327 -0.3009
  179SLPC   H4S20438   3.071   1.249   9.896  3.5931 -0.6054  2.5193
  179SLPC   C2520439   3.225   1.334   9.783 -0.1555 -0.8019 -0.3748
  179SLPC   H5R20440   3.306   1.277   9.833 -0.6444 -0.8936  0.3263
  179SLPC   H5S20441   3.265   1.436   9.769  0.7353 -0.9956  0.6832
  179SLPC   C2620442   3.193   1.269   9.650 -0.0592 -0.0264  0.9848
  179SLPC   H6R20443   3.130   1.178   9.658 -2.1910  1.3928  1.1801
  179SLPC   H6S20444   3.287   1.231   9.605 -0.7486 -1.5089  0.7564
  179SLPC   C2720445   3.126   1.366   9.545  0.1296 -0.2164 -0.2519
  179SLPC   H7R20446   3.179   1.462   9.527  0.5514 -0.6890 -1.6954
  179SLPC   H7S20447   3.026   1.398   9.583 -0.3863  0.0173 -1.7314
  179SLPC   C2820448   3.111   1.310   9.400 -1.1264 -0.7889 -0.5217
  179SLPC   H8R20449   3.043   1.384   9.350 -0.4063  0.0408 -0.2933
  179SLPC   H8S20450   3.062   1.211   9.409 -1.2638 -0.5891  1.2401
  179SLPC   C2920451   3.232   1.298   9.312  0.0073  1.0758  0.1033
  179SLPC   H9R20452   3.322   1.252   9.354  0.3356  0.3924 -1.2872
  179SLPC  C21020453   3.254   1.349   9.186  0.6309 -0.6060  0.4897
  179SLPC  H10R20454   3.348   1.346   9.129  0.9126  1.3169  0.8052
  179SLPC  C21120455   3.163   1.423   9.100  0.0191  0.1212  0.3144
  179SLPC  H11R20456   3.061   1.431   9.143 -0.4014  1.3839 -0.8187
  179SLPC  H11S20457   3.143   1.356   9.014 -2.0411 -1.5876  2.0239
  179SLPC  C21220458   3.214   1.561   9.054 -0.7970 -0.4013 -0.7311
  179SLPC  H12R20459   3.270   1.622   9.125 -0.4512 -0.4371 -0.9682
  179SLPC  C21320460   3.178   1.622   8.941 -0.6448  0.2479  0.8927
  179SLPC  H13R20461   3.207   1.725   8.916 -0.6990  0.2963  1.0254
  179SLPC  C21420462   3.090   1.567   8.834  1.0299 -0.0461 -0.5113
  179SLPC  H14R20463   2.987   1.610   8.828 -0.0003 -2.4918 -2.7990
  179SLPC  H14S20464   3.055   1.462   8.843 -1.0702  0.7716  2.5095
  179SLPC  C21520465   3.162   1.596   8.701  0.0985 -0.2875  0.1084
  179SLPC  H15R20466   3.175   1.704   8.679 -3.6916  0.1712 -0.4181
  179SLPC  H15S20467   3.092   1.579   8.617 -0.1627 -1.4790  0.5476
  179SLPC  C21620468   3.287   1.518   8.671 -0.0335  0.0966  0.2494
  179SLPC  H16R20469   3.269   1.409   8.661 -3.5609  0.5108  0.7478
  179SLPC  H16S20470   3.358   1.531   8.756  4.0941 -0.4127 -2.8047
  179SLPC  C21720471   3.364   1.564   8.541  0.2882 -0.1563  0.1515
  179SLPC  H17R20472   3.444   1.488   8.526  0.9652  0.7454 -0.9994
  179SLPC  H17S20473   3.406   1.664   8.563  0.8110 -0.1948 -0.6284
  179SLPC  C21820474   3.283   1.578   8.410  0.6177  0.1014  0.0937
  179SLPC  H18R20475   3.347   1.590   8.320  0.5449 -0.3275 -0.0195
  179SLPC  H18S20476   3.207   1.657   8.428 -1.3194 -1.7533  0.5056
  179SLPC  H18T20477   3.223   1.486   8.392 -0.4101  0.4689  1.4826
  179SLPC   C3320478   2.769   1.117   9.954  0.2764 -0.3182 -0.9212
  179SLPC   H3X20479   2.862   1.166   9.990  1.1727 -1.7269 -1.1996
  179SLPC   H3Y20480   2.697   1.197   9.929 -0.0403 -0.8652 -1.8341
  179SLPC   C3420481   2.781   1.042   9.820  0.2763  0.1355  0.7476
  179SLPC   H4X20482   2.695   0.973   9.818 -0.3706  0.8983 -2.2986
  179SLPC   H4Y20483   2.878   0.988   9.818  0.1559 -0.0740  0.5929
  179SLPC   C3520484   2.771   1.135   9.699 -0.8859  0.9112  0.5923
  179SLPC   H5X20485   2.839   1.223   9.697  0.6452 -0.2601 -0.1664
  179SLPC   H5Y20486   2.671   1.185   9.701 -1.5048 -0.3159  1.6591
  179SLPC   C3620487   2.793   1.053   9.571 -0.4714  0.7479 -0.1199
  179SLPC   H6X20488   2.708   0.982   9.571  1.1743 -1.3756  1.9628
  179SLPC   H6Y20489   2.888   0.997   9.575 -1.2297 -0.5281  0.4088
  179SLPC   C3720490   2.787   1.150   9.448 -0.2478 -0.1620 -1.0320
  179SLPC   H7X20491   2.870   1.223   9.459 -0.0198 -0.5831  0.2162
  179SLPC   H7Y20492   2.692   1.208   9.451  0.4348  0.9630 -0.3689
  179SLPC   C3820493   2.807   1.077   9.319 -0.0727  0.2811 -0.2680
  179SLPC   H8X20494   2.720   1.012   9.297 -0.4991  0.6688  0.2231
  179SLPC   H8Y20495   2.903   1.022   9.321 -0.0158  0.4031  1.0922
  179SLPC   C3920496   2.799   1.177   9.196 -0.9082  0.3034 -0.3363
  179SLPC   H9X20497   2.876   1.251   9.227 -0.9483  0.7563 -1.2796
  179SLPC   H9Y20498   2.703   1.232   9.187 -0.2552  1.5947  0.3314
  179SLPC  C31020499   2.841   1.121   9.065 -0.9389  1.0349 -0.2050
  179SLPC  H10X20500   2.772   1.041   9.033 -0.7335  0.2183  1.3420
  179SLPC  H10Y20501   2.945   1.081   9.061 -0.9202  1.1441 -1.7124
  179SLPC  C31120502   2.832   1.230   8.952 -0.5408  0.1547  0.1202
  179SLPC  H11X20503   2.912   1.305   8.972 -0.2575  0.1782 -1.0208
  179SLPC  H11Y20504   2.729   1.272   8.954 -0.4384  0.7732 -2.6898
  179SLPC  C31220505   2.871   1.183   8.813  0.8035 -0.4788 -0.5497
  179SLPC  H12X20506   2.950   1.107   8.828 -0.4575 -1.4993  1.3091
  179SLPC  H12Y20507   2.922   1.265   8.758  2.6491 -0.8286  0.5621
  179SLPC  C31320508   2.747   1.135   8.743 -0.3512  0.3648 -0.2499
  179SLPC  H13X20509   2.671   1.215   8.735  2.4807  3.4382  1.2477
  179SLPC  H13Y20510   2.706   1.040   8.785 -1.2751  0.4396 -0.9507
  179SLPC  C31420511   2.780   1.087   8.592  0.2180 -0.6344 -0.1639
  179SLPC  H14X20512   2.690   1.060   8.533  0.4562 -1.8082 -0.0207
  179SLPC  H14Y20513   2.832   0.990   8.609 -2.8015 -2.3136  0.1715
  179SLPC  C31520514   2.859   1.185   8.504 -0.4665  0.4453  0.3331
  179SLPC  H15X20515   2.969   1.194   8.517 -0.6853  2.4877  1.1838
  179SLPC  H15Y20516   2.832   1.287   8.541  0.7054  0.0837  2.3383
  179SLPC  C31620517   2.827   1.189   8.352  0.0663  0.0329 -0.2094
  179SLPC  H16X20518   2.736   1.250   8.340 -0.0941  0.1418  1.3070
  179SLPC  H16Y20519   2.811   1.088   8.309 -0.1427 -0.3111  0.6508
  179SLPC  C31720520   2.940   1.264   8.275 -0.1119  0.4093  0.4771
  179SLPC  H17X20521   3.034   1.212   8.303 -0.2581  0.0739  0.3508
  179SLPC  H17Y20522   2.956   1.367   8.312  0.3978  0.1820  0.9233
  179SLPC  C31820523   2.913   1.264   8.134 -0.6966  0.0728  1.1464
  179SLPC  H18X20524   2.806   1.286   8.115 -0.4334 -0.5549 -1.4545
  179SLPC  H18Y20525   2.947   1.168   8.088 -0.5451  0.5056  0.3301
  179SLPC  H18Z20526   2.977   1.345   8.094 -1.7132  1.6966  2.6776
  180SLPC     N20527   6.249   6.382  11.177 -0.1986  0.7430 -0.3879
  180SLPC   C1320528   6.158   6.466  11.269 -0.4414 -0.2276  0.6145
  180SLPC  H13A20529   6.075   6.508  11.214 -0.1935 -0.3181  0.1661
  180SLPC  H13B20530   6.111   6.398  11.338 -2.1514 -0.5239 -0.7593
  180SLPC  H13C20531   6.217   6.531  11.331 -0.1754 -1.0711  1.2723
  180SLPC   C1420532   6.338   6.311  11.268 -0.2546  0.2605 -0.6289
  180SLPC  H14A20533   6.366   6.373  11.352 -1.0589  0.1119 -0.2393
  180SLPC  H14B20534   6.289   6.226  11.314  0.6121 -0.8425 -1.6837
  180SLPC  H14C20535   6.429   6.274  11.223  0.7008  0.8833  0.7185
  180SLPC   C1520536   6.340   6.471  11.098  0.3083 -0.6941  0.1690
  180SLPC  H15A20537   6.289   6.527  11.021 -0.6914 -0.0846  1.2378
  180SLPC  H15B20538   6.390   6.542  11.162 -0.9947  1.0067 -0.6123
  180SLPC  H15C20539   6.417   6.419  11.045  0.1490 -3.3918  2.3728
  180SLPC   C1220540   6.160   6.291  11.090 -0.1059 -0.3342  0.7941
  180SLPC  H12A20541   6.100   6.362  11.035  2.1728  1.0498 -0.0622
  180SLPC  H12B20542   6.098   6.232  11.157  0.6820 -0.4136  1.4685
  180SLPC   C1120543   6.228   6.207  10.986 -0.3744 -0.2803  0.4083
  180SLPC  H11A20544   6.274   6.120  11.038  0.5481  1.1226  2.0500
  180SLPC  H11B20545   6.311   6.262  10.938  0.2398 -0.5469  1.1504
  180SLPC     P20546   6.084   6.250  10.767 -0.2247  0.2964  0.1751
  180SLPC   O1320547   5.997   6.171  10.683  0.1827  0.5722  0.0442
  180SLPC   O1420548   6.034   6.376  10.820  0.2479  0.4868  0.6830
  180SLPC   O1220549   6.129   6.162  10.897 -0.5619 -0.1633  0.0325
  180SLPC   O1120550   6.223   6.280  10.698  0.2821 -0.3915  0.0278
  180SLPC    C120551   6.318   6.178  10.656  0.3002 -0.7004 -0.1196
  180SLPC    HA20552   6.409   6.188  10.719 -0.4343  1.6929  0.6558
  180SLPC    HB20553   6.280   6.075  10.670  1.7111 -0.9857  2.0023
  180SLPC    C220554   6.351   6.198  10.508  0.5664 -0.5566 -0.9115
  180SLPC    HS20555   6.408   6.293  10.502 -0.8672  0.3361 -0.7247
  180SLPC   O2120556   6.218   6.218  10.440  0.0108  0.4784  0.1106
  180SLPC   C2120557   6.218   6.294  10.337 -0.3348 -0.8512  1.0687
  180SLPC   O2220558   6.316   6.359  10.296 -0.0770  0.1755  0.1331
  180SLPC   C2220559   6.078   6.278  10.262 -0.7276  0.8238 -0.2719
  180SLPC   H2R20560   6.070   6.169  10.245  0.8017  0.4893  0.8790
  180SLPC   H2S20561   6.004   6.320  10.333  0.0463  0.8071  0.5575
  180SLPC    C320562   6.432   6.070  10.461  0.0447  0.2280 -0.0493
  180SLPC    HX20563   6.361   5.986  10.474 -1.1680  1.4978  2.1351
  180SLPC    HY20564   6.515   6.043  10.529 -0.6557 -0.9552  0.3618
  180SLPC   O3120565   6.472   6.094  10.322 -0.1885  0.2145  0.2905
  180SLPC   C3120566   6.571   6.179  10.306 -0.2451 -0.0152  0.3173
  180SLPC   O3220567   6.630   6.235  10.398 -0.2993  0.5054  0.1341
  180SLPC   C3220568   6.615   6.177  10.161  0.1691 -0.7035 -0.0310
  180SLPC   H2X20569   6.566   6.098  10.100  0.5852 -0.7873 -0.2644
  180SLPC   H2Y20570   6.724   6.163  10.143  0.0893  0.2024 -1.4127
  180SLPC   C2320571   6.078   6.356  10.127  0.5791  0.3175 -0.2656
  180SLPC   H3R20572   6.114   6.461  10.138  0.8396  0.5860 -2.8652
  180SLPC   H3S20573   5.971   6.345  10.101  0.3611  2.2230 -0.3642
  180SLPC   C2420574   6.140   6.273  10.014 -0.5543  0.5124  0.0316
  180SLPC   H4R20575   6.082   6.180   9.995 -1.3043  0.7041  1.2901
  180SLPC   H4S20576   6.247   6.252  10.037 -0.3224 -0.0714 -1.4514
  180SLPC   C2520577   6.138   6.338   9.878  0.6850 -0.1836 -1.3695
  180SLPC   H5R20578   6.162   6.266   9.798  0.7958 -0.4285 -1.1194
  180SLPC   H5S20579   6.209   6.422   9.865  1.2091 -0.3243  0.2395
  180SLPC   C2620580   5.996   6.380   9.832  0.2286  0.3280 -1.0409
  180SLPC   H6R20581   5.965   6.474   9.883  0.6011 -1.7787  3.5019
  180SLPC   H6S20582   5.921   6.310   9.872  0.3563  0.7402 -0.0412
  180SLPC   C2720583   5.983   6.388   9.687 -0.3670  0.4729  0.2603
  180SLPC   H7R20584   5.963   6.285   9.652 -1.3606  0.0446  1.9800
  180SLPC   H7S20585   6.070   6.433   9.634 -0.5240 -0.5792 -0.9296
  180SLPC   C2820586   5.854   6.461   9.640  0.1948  0.8887 -0.0323
  180SLPC   H8R20587   5.859   6.568   9.668 -0.8731  0.2701  3.0126
  180SLPC   H8S20588   5.767   6.427   9.701  0.1234  0.0166 -0.6002
  180SLPC   C2920589   5.828   6.437   9.497  0.0998  0.8070 -0.0719
  180SLPC   H9R20590   5.871   6.516   9.432  1.0239 -0.0492 -0.5314
  180SLPC  C21020591   5.762   6.328   9.441  0.3973 -0.1183  0.3164
  180SLPC  H10R20592   5.775   6.317   9.332  0.2723  0.8539  0.1920
  180SLPC  C21120593   5.717   6.214   9.522  0.3215  0.2075 -0.0320
  180SLPC  H11R20594   5.606   6.213   9.513  0.4691  1.9069 -3.5329
  180SLPC  H11S20595   5.732   6.223   9.632  1.2833  0.9252 -0.2123
  180SLPC  C21220596   5.786   6.081   9.485 -0.5286  0.2992 -0.1311
  180SLPC  H12R20597   5.884   6.079   9.435 -0.8756 -0.9549 -0.8011
  180SLPC  C21320598   5.732   5.965   9.522  0.2820 -0.3134  0.2748
  180SLPC  H13R20599   5.781   5.870   9.494  0.2102  0.2696 -2.0327
  180SLPC  C21420600   5.614   5.952   9.609 -0.2643 -0.0130  0.4121
  180SLPC  H14R20601   5.548   5.876   9.562  0.8733 -0.0468 -1.2098
  180SLPC  H14S20602   5.554   6.046   9.609  0.5899  0.5553 -0.7057
  180SLPC  C21520603   5.647   5.903   9.750  0.2765 -0.5828  0.4705
  180SLPC  H15R20604   5.697   5.804   9.747  0.2315 -0.6034  0.4013
  180SLPC  H15S20605   5.551   5.878   9.800 -0.0997 -0.8629 -0.3730
  180SLPC  C21620606   5.735   5.994   9.842  0.7367 -0.4726  0.2600
  180SLPC  H16R20607   5.696   6.098   9.848  3.6329  0.8674 -1.9201
  180SLPC  H16S20608   5.836   6.004   9.798 -0.2651  1.3833 -1.8141
  180SLPC  C21720609   5.754   5.938   9.985  0.8583  1.0911 -0.5851
  180SLPC  H17R20610   5.811   5.842   9.984  1.9720  1.7381 -1.1911
  180SLPC  H17S20611   5.649   5.921  10.016  1.5223 -1.5432  0.5293
  180SLPC  C21820612   5.813   6.036  10.084 -0.0430 -0.1173  0.2314
  180SLPC  H18R20613   5.838   5.990  10.183  3.2773  1.4581  0.2846
  180SLPC  H18S20614   5.741   6.118  10.104 -0.9260 -0.5956 -0.9007
  180SLPC  H18T20615   5.900   6.091  10.041 -1.9788  1.7551 -1.4954
  180SLPC   C3320616   6.577   6.309  10.088  0.4302 -0.0405  0.6228
  180SLPC   H3X20617   6.634   6.391  10.137  0.0595  1.4202 -1.2787
  180SLPC   H3Y20618   6.470   6.326  10.111  0.5409 -0.7524  1.7788
  180SLPC   C3420619   6.589   6.306   9.935 -0.1786  0.0202 -0.0766
  180SLPC   H4X20620   6.509   6.236   9.901  2.3775 -1.5777 -3.4263
  180SLPC   H4Y20621   6.685   6.257   9.907  0.2569  1.6177 -1.4915
  180SLPC   C3520622   6.582   6.434   9.862 -0.2756  0.0054  0.3255
  180SLPC   H5X20623   6.667   6.498   9.896 -0.4685 -1.4964  4.0911
  180SLPC   H5Y20624   6.497   6.495   9.902  1.0043  0.7397  2.0724
  180SLPC   C3620625   6.565   6.421   9.702 -0.1629 -0.1558  0.0647
  180SLPC   H6X20626   6.527   6.514   9.655  0.8375  0.4321  0.4093
  180SLPC   H6Y20627   6.488   6.342   9.685  2.5624 -2.9001 -0.5111
  180SLPC   C3720628   6.703   6.396   9.641  0.7761 -0.1695 -0.3787
  180SLPC   H7X20629   6.694   6.329   9.554 -1.9692  1.4364 -1.4738
  180SLPC   H7Y20630   6.754   6.342   9.724 -3.0614 -1.1419  1.5855
  180SLPC   C3820631   6.779   6.524   9.600  0.1542  0.6394 -0.4524
  180SLPC   H8X20632   6.849   6.565   9.676  1.1264  0.2761 -1.1356
  180SLPC   H8Y20633   6.703   6.602   9.574  0.8229  2.6244  2.8949
  180SLPC   C3920634   6.868   6.492   9.475  0.1996 -0.5608 -0.0076
  180SLPC   H9X20635   6.904   6.387   9.481  0.0233 -0.6500 -0.4985
  180SLPC   H9Y20636   6.960   6.554   9.475  0.7635 -1.3452  1.2601
  180SLPC  C31020637   6.788   6.513   9.342  0.1681 -0.0469 -0.0478
  180SLPC  H10X20638   6.764   6.619   9.320 -3.7083 -1.2135 -2.5152
  180SLPC  H10Y20639   6.689   6.462   9.351  0.0398  0.2539  0.2786
  180SLPC  C31120640   6.862   6.467   9.213 -1.1045  0.3755  0.1060
  180SLPC  H11X20641   6.820   6.511   9.120  2.5708  1.5882 -1.1791
  180SLPC  H11Y20642   6.848   6.359   9.191 -0.0331  0.3525 -0.5661
  180SLPC  C31220643   7.014   6.495   9.220 -0.2409  0.2063 -0.3106
  180SLPC  H12X20644   7.053   6.424   9.295 -1.2072  1.2490  1.2434
  180SLPC  H12Y20645   7.019   6.603   9.245 -1.6125  0.2381 -0.1050
  180SLPC  C31320646   7.092   6.451   9.084  0.1848 -0.2496  0.0956
  180SLPC  H13X20647   7.082   6.342   9.064  0.2919 -0.4477  1.0724
  180SLPC  H13Y20648   7.200   6.472   9.097  0.2600 -0.6746  0.1646
  180SLPC  C31420649   7.051   6.531   8.962  0.1242 -0.0115  0.6642
  180SLPC  H14X20650   7.024   6.637   8.976  0.4441  0.4590 -1.8780
  180SLPC  H14Y20651   6.961   6.477   8.925 -1.1378  2.1868  0.3847
  180SLPC  C31520652   7.148   6.505   8.852  0.6040  0.6655 -0.3857
  180SLPC  H15X20653   7.246   6.555   8.870  0.5413  1.2213 -1.4989
  180SLPC  H15Y20654   7.102   6.551   8.762  0.7099  0.9187 -0.3120
  180SLPC  C31620655   7.187   6.357   8.832 -0.4257  0.4861  0.0633
  180SLPC  H16X20656   7.096   6.294   8.841  0.7084 -1.0018  1.9678
  180SLPC  H16Y20657   7.250   6.310   8.910 -3.8367 -1.7009  1.7734
  180SLPC  C31720658   7.252   6.349   8.693  0.5614  0.1766 -0.0637
  180SLPC  H17X20659   7.349   6.404   8.692  0.0697  1.1453 -2.5720
  180SLPC  H17Y20660   7.178   6.400   8.628  0.0336 -1.1221 -0.5091
  180SLPC  C31820661   7.258   6.203   8.645  0.0386  0.3706  0.0276
  180SLPC  H18X20662   7.320   6.147   8.718 -0.7414 -1.0708 -0.3697
  180SLPC  H18Y20663   7.320   6.182   8.555 -0.1872 -3.3907  0.5879
  180SLPC  H18Z20664   7.160   6.157   8.620 -0.3207 -0.1379  2.1660
  181SLPC     N20665   1.761   2.229  10.771 -0.4202 -0.3040  0.2476
  181SLPC   C1320666   1.829   2.331  10.671  0.5500 -0.4169  0.4639
  181SLPC  H13A20667   1.863   2.415  10.731 -0.9176  0.4058  0.1713
  181SLPC  H13B20668   1.904   2.283  10.609  0.5144 -0.5651  0.5340
  181SLPC  H13C20669   1.755   2.376  10.608 -1.0947 -2.3567  0.9212
  181SLPC   C1420670   1.645   2.159  10.701  1.0568  0.1495  0.4763
  181SLPC  H14A20671   1.565   2.224  10.669  0.0085 -1.5009 -0.4013
  181SLPC  H14B20672   1.684   2.116  10.610 -1.8977 -3.3692  0.6502
  181SLPC  H14C20673   1.604   2.076  10.756 -1.5479 -0.0481 -1.5535
  181SLPC   C1520674   1.695   2.286  10.890 -0.1906  0.2399 -0.1331
  181SLPC  H15A20675   1.637   2.371  10.857 -2.6910 -1.7295 -1.1913
  181SLPC  H15B20676   1.638   2.215  10.948 -1.5191  1.3683 -0.0078
  181SLPC  H15C20677   1.760   2.336  10.960 -0.4578 -0.6638  0.7958
  181SLPC   C1220678   1.886   2.141  10.813 -0.1903 -0.5272  0.1013
  181SLPC  H12A20679   1.922   2.087  10.727 -0.0142  1.1927 -0.9447
  181SLPC  H12B20680   1.845   2.072  10.885  0.6532  0.2937  1.4277
  181SLPC   C1120681   2.000   2.201  10.891 -0.4662  0.7175  1.0874
  181SLPC  H11A20682   2.043   2.287  10.835  1.6254 -0.5928  0.5905
  181SLPC  H11B20683   2.078   2.122  10.897 -0.9138  0.0270 -1.2307
  181SLPC     P20684   2.012   2.369  11.093 -0.3977 -0.1636  0.6690
  181SLPC   O1320685   1.949   2.384  11.224 -0.0877  0.4871 -0.2732
  181SLPC   O1420686   2.159   2.372  11.089  0.2971  0.6558 -0.9482
  181SLPC   O1220687   1.967   2.235  11.022  0.0897  0.0631 -0.5611
  181SLPC   O1120688   1.955   2.476  10.991  0.2112  0.1100 -0.3440
  181SLPC    C120689   1.991   2.610  10.996 -0.2283 -0.2503  0.4039
  181SLPC    HA20690   1.926   2.662  11.069  0.9507  3.2143 -0.7874
  181SLPC    HB20691   2.096   2.614  11.033 -0.5976  0.4208  1.3942
  181SLPC    C220692   1.989   2.681  10.858 -0.7765 -1.1775  0.1543
  181SLPC    HS20693   2.020   2.786  10.878 -1.4982 -0.4216 -2.3421
  181SLPC   O2120694   1.859   2.675  10.798  0.3659  0.1741  0.2009
  181SLPC   C2120695   1.776   2.779  10.823  0.3586  0.2536  0.1951
  181SLPC   O2220696   1.801   2.883  10.881 -0.0241  0.4179 -0.1301
  181SLPC   C2220697   1.641   2.750  10.752 -0.1790  0.0170 -0.7135
  181SLPC   H2R20698   1.607   2.650  10.786  0.5702 -0.0380 -0.0888
  181SLPC   H2S20699   1.573   2.819  10.806  1.0428  1.8157 -1.3715
  181SLPC    C320700   2.111   2.624  10.775 -0.1291  0.2254  0.0180
  181SLPC    HX20701   2.092   2.515  10.783  0.9417 -0.0061 -0.4874
  181SLPC    HY20702   2.202   2.655  10.831 -1.0942 -0.6956  2.2327
  181SLPC   O3120703   2.110   2.664  10.636  0.4373  0.1640  0.3788
  181SLPC   C3120704   2.125   2.790  10.596  0.4632 -0.0627 -0.3506
  181SLPC   O3220705   2.130   2.890  10.669 -0.1650  0.4133 -0.1407
  181SLPC   C3220706   2.123   2.795  10.444  0.2073  0.4238  0.3719
  181SLPC   H2X20707   2.217   2.749  10.407  0.3538 -1.6829  3.0553
  181SLPC   H2Y20708   2.127   2.898  10.404 -1.0482 -0.3286 -1.9067
  181SLPC   C2320709   1.635   2.751  10.598 -0.8660 -0.9565 -0.0128
  181SLPC   H3R20710   1.703   2.830  10.560 -1.6856 -1.3186 -2.4114
  181SLPC   H3S20711   1.529   2.773  10.572 -0.4440 -0.5340 -1.4921
  181SLPC   C2420712   1.676   2.611  10.537  0.6722 -0.8371 -0.1743
  181SLPC   H4R20713   1.625   2.528  10.591 -0.4027  1.4624  2.5737
  181SLPC   H4S20714   1.787   2.608  10.544  0.8445  0.2456 -1.8368
  181SLPC   C2520715   1.642   2.611  10.387  0.6019 -0.1645  0.4272
  181SLPC   H5R20716   1.700   2.696  10.343 -0.3359  1.4532  2.1429
  181SLPC   H5S20717   1.532   2.624  10.375  0.8670  0.3166 -1.9324
  181SLPC   C2620718   1.675   2.474  10.323 -0.1408  0.1779 -0.2536
  181SLPC   H6R20719   1.629   2.390  10.379 -2.0028  0.3058 -1.5093
  181SLPC   H6S20720   1.786   2.467  10.320  0.0854  2.8377 -1.4446
  181SLPC   C2720721   1.614   2.465  10.182 -0.2515  0.3497 -0.6577
  181SLPC   H7R20722   1.652   2.554  10.127  2.6778  0.3231  1.1513
  181SLPC   H7S20723   1.504   2.475  10.197 -0.5165 -0.1741 -2.0164
  181SLPC   C2820724   1.654   2.339  10.108  0.2258  0.0455 -0.2465
  181SLPC   H8R20725   1.573   2.325  10.033 -0.8468  0.6109  0.7676
  181SLPC   H8S20726   1.652   2.251  10.175  1.7556  0.0453 -0.1739
  181SLPC   C2920727   1.787   2.356  10.048 -0.3343 -0.0687 -0.2463
  181SLPC   H9R20728   1.862   2.405  10.112 -0.0573 -1.1250  0.2611
  181SLPC  C21020729   1.832   2.299   9.933 -0.9800 -0.3596  0.3699
  181SLPC  H10R20730   1.930   2.310   9.885 -0.8887 -1.2423  0.3304
  181SLPC  C21120731   1.744   2.212   9.839  0.2043  0.1654 -0.8156
  181SLPC  H11R20732   1.728   2.265   9.743  1.0884 -0.7067 -1.4650
  181SLPC  H11S20733   1.640   2.200   9.878  0.5098 -0.1891 -0.0907
  181SLPC  C21220734   1.803   2.087   9.802 -0.5206  0.5934 -0.1190
  181SLPC  H12R20735   1.777   2.006   9.871  1.7478 -0.5002 -0.4766
  181SLPC  C21320736   1.874   2.066   9.690 -0.3435  0.2417 -0.2365
  181SLPC  H13R20737   1.895   1.958   9.679 -1.4075 -0.0567  0.5144
  181SLPC  C21420738   1.905   2.158   9.575 -0.4752 -0.0038  0.2067
  181SLPC  H14R20739   2.014   2.173   9.584 -0.3294 -1.4020  1.0449
  181SLPC  H14S20740   1.846   2.253   9.575 -0.8726 -0.2442 -0.3268
  181SLPC  C21520741   1.877   2.077   9.443 -0.1038  0.4161 -0.3952
  181SLPC  H15R20742   1.767   2.078   9.432  0.0357  0.1524 -2.3593
  181SLPC  H15S20743   1.906   1.970   9.453 -1.1324  0.1742  0.0591
  181SLPC  C21620744   1.942   2.150   9.323  0.1349 -0.3720 -0.6299
  181SLPC  H16R20745   2.053   2.142   9.325  0.1362 -1.2024  3.5592
  181SLPC  H16S20746   1.908   2.256   9.321  0.4465 -0.2765 -2.0321
  181SLPC  C21720747   1.908   2.073   9.193 -0.4415  0.0387 -0.1334
  181SLPC  H17R20748   1.798   2.061   9.195 -0.4680  0.2776 -0.0130
  181SLPC  H17S20749   1.956   1.973   9.193  0.6933  0.5630  0.8567
  181SLPC  C21820750   1.947   2.157   9.074 -0.1748 -0.3686  0.5032
  181SLPC  H18R20751   1.903   2.125   8.977  0.1854 -0.2502  0.2963
  181SLPC  H18S20752   2.057   2.164   9.062 -0.3126 -1.4875 -2.2815
  181SLPC  H18T20753   1.913   2.262   9.089  1.6838  0.4093 -0.4364
  181SLPC   C3320754   2.016   2.717  10.368 -0.4103 -0.3675  0.6376
  181SLPC   H3X20755   1.920   2.768  10.390 -1.3556 -1.4274 -0.7921
  181SLPC   H3Y20756   2.000   2.615  10.409 -0.3576 -0.8671 -0.5406
  181SLPC   C3420757   2.023   2.717  10.215 -0.3950  0.4542  0.2729
  181SLPC   H4X20758   2.037   2.820  10.177  0.4564  0.2775  0.1030
  181SLPC   H4Y20759   1.936   2.671  10.163 -0.4720  0.5408  0.3239
  181SLPC   C3520760   2.126   2.623  10.162 -0.0181 -0.2041  0.3127
  181SLPC   H5X20761   2.098   2.522  10.198 -0.9946  0.3141  1.0674
  181SLPC   H5Y20762   2.217   2.635  10.224 -0.5012 -2.4290  1.5464
  181SLPC   C3620763   2.154   2.617  10.011 -0.2680  0.4010 -0.8624
  181SLPC   H6X20764   2.191   2.715   9.976 -2.5426  1.8585  0.5141
  181SLPC   H6Y20765   2.061   2.574   9.968 -0.7480 -0.4284  0.8809
  181SLPC   C3720766   2.263   2.518   9.982 -0.2215  0.1019  0.2413
  181SLPC   H7X20767   2.269   2.443  10.064 -0.2026 -1.9088 -1.5025
  181SLPC   H7Y20768   2.356   2.578   9.971 -0.4436  0.3122 -0.5494
  181SLPC   C3820769   2.241   2.448   9.847 -0.1188  0.6345  0.5762
  181SLPC   H8X20770   2.140   2.403   9.842  1.0908 -2.1810 -0.5639
  181SLPC   H8Y20771   2.316   2.366   9.836 -1.8881 -0.9399 -0.2820
  181SLPC   C3920772   2.263   2.539   9.724 -0.1233  0.0975 -0.2392
  181SLPC   H9X20773   2.363   2.582   9.745 -0.9517  1.7428  0.5414
  181SLPC   H9Y20774   2.199   2.630   9.725 -0.6687  0.0447 -5.3243
  181SLPC  C31020775   2.261   2.462   9.588 -0.0919 -0.8597 -0.5337
  181SLPC  H10X20776   2.178   2.388   9.592 -0.2343 -0.6466  1.3204
  181SLPC  H10Y20777   2.362   2.420   9.570  0.3201  0.5539 -1.8028
  181SLPC  C31120778   2.226   2.555   9.467 -0.7711  0.6994 -0.4133
  181SLPC  H11X20779   2.309   2.628   9.465 -1.0260  0.9994 -0.1983
  181SLPC  H11Y20780   2.136   2.619   9.481 -0.7652  1.0598 -1.9238
  181SLPC  C31220781   2.219   2.470   9.339 -0.1773 -0.4134  0.3279
  181SLPC  H12X20782   2.133   2.404   9.364  1.1120 -1.7706  1.3547
  181SLPC  H12Y20783   2.316   2.416   9.336  0.4433  0.4907  2.6109
  181SLPC  C31320784   2.203   2.547   9.213 -0.0254 -0.2392  0.2413
  181SLPC  H13X20785   2.287   2.616   9.190 -1.7532  2.1198  0.6136
  181SLPC  H13Y20786   2.117   2.618   9.212  2.6672  3.3110 -0.4762
  181SLPC  C31420787   2.183   2.449   9.098  0.3005  0.4099 -0.3252
  181SLPC  H14X20788   2.085   2.401   9.118  0.6866  0.3503  1.6832
  181SLPC  H14Y20789   2.267   2.375   9.096  2.5158  2.6268  2.0928
  181SLPC  C31520790   2.177   2.526   8.967 -0.2268 -0.5180 -0.3371
  181SLPC  H15X20791   2.279   2.571   8.959  1.8344 -4.0377  2.8525
  181SLPC  H15Y20792   2.104   2.609   8.981  0.5586  0.0737  0.3202
  181SLPC  C31620793   2.145   2.453   8.835  0.1855 -0.0634  0.0993
  181SLPC  H16X20794   2.185   2.349   8.838 -0.9258 -0.4759  1.3007
  181SLPC  H16Y20795   2.195   2.512   8.755  1.6274  0.0722  1.0720
  181SLPC  C31720796   1.993   2.450   8.810  0.0940 -0.6973 -0.2672
  181SLPC  H17X20797   1.957   2.555   8.801 -1.6547 -1.2849 -0.5975
  181SLPC  H17Y20798   1.925   2.406   8.887  0.1089 -1.1735 -0.5275
  181SLPC  C31820799   1.959   2.367   8.683 -0.3808 -0.1247 -0.2191
  181SLPC  H18X20800   2.007   2.413   8.594 -0.4432  0.1175 -0.1291
  181SLPC  H18Y20801   1.850   2.368   8.665 -0.4708  1.4547  0.2546
  181SLPC  H18Z20802   2.002   2.264   8.679  1.0244  0.3794  0.8531
  182SLPC     N20803   5.679   4.676  11.148  0.6359  0.3254 -0.1288
  182SLPC   C1320804   5.640   4.725  11.280 -0.1613 -0.4794 -0.0294
  182SLPC  H13A20805   5.699   4.671  11.353  2.2311  1.7755 -0.1794
  182SLPC  H13B20806   5.658   4.829  11.302 -0.2741 -0.5401  0.3707
  182SLPC  H13C20807   5.538   4.697  11.305 -1.2888  2.4254 -1.0133
  182SLPC   C1420808   5.646   4.530  11.124  0.4370  0.1766 -0.4182
  182SLPC  H14A20809   5.701   4.466  11.191  1.3206  0.3877 -0.9287
  182SLPC  H14B20810   5.539   4.521  11.126  0.1332  2.9295  0.2383
  182SLPC  H14C20811   5.668   4.498  11.023 -0.0468 -0.0673 -0.4496
  182SLPC   C1520812   5.830   4.688  11.134 -0.1867  0.1867 -0.1554
  182SLPC  H15A20813   5.883   4.616  11.194 -0.7111 -0.7483 -0.7806
  182SLPC  H15B20814   5.856   4.676  11.030  0.7326 -3.2176  0.3585
  182SLPC  H15C20815   5.869   4.783  11.168  1.2592 -0.8517  1.2248
  182SLPC   C1220816   5.624   4.763  11.038 -0.3371  0.7412 -0.4597
  182SLPC  H12A20817   5.655   4.863  11.067  0.8673 -0.6512  3.7069
  182SLPC  H12B20818   5.517   4.772  11.054 -0.8208 -2.9083 -0.8344
  182SLPC   C1120819   5.670   4.738  10.892 -0.4399 -0.2522 -0.3662
  182SLPC  H11A20820   5.591   4.787  10.832  0.4840  1.7635  0.0015
  182SLPC  H11B20821   5.650   4.629  10.877 -1.2103  0.0384 -1.6038
  182SLPC     P20822   5.836   4.930  10.805 -0.0827 -0.2760  0.4596
  182SLPC   O1320823   5.755   5.033  10.877 -0.4167 -0.3767 -0.0610
  182SLPC   O1420824   5.984   4.948  10.796  0.4050 -0.2348  0.5932
  182SLPC   O1220825   5.802   4.782  10.859  0.1331 -0.3863  0.3058
  182SLPC   O1120826   5.776   4.924  10.652 -0.5110  0.5510 -0.0363
  182SLPC    C120827   5.830   4.816  10.578 -0.2928 -0.8057 -0.5172
  182SLPC    HA20828   5.852   4.725  10.637 -0.1331 -0.3494  0.1340
  182SLPC    HB20829   5.753   4.779  10.507  0.1932 -0.5064 -1.2098
  182SLPC    C220830   5.948   4.861  10.486 -0.2184 -0.2634 -0.6391
  182SLPC    HS20831   6.024   4.909  10.551  0.1976  0.7395 -1.8311
  182SLPC   O2120832   5.899   4.945  10.387 -0.0158 -0.2867  0.0689
  182SLPC   C2120833   5.971   5.032  10.318  0.1048  0.2568  0.1762
  182SLPC   O2220834   6.091   5.050  10.330 -0.2502  0.0984  0.5625
  182SLPC   C2220835   5.881   5.077  10.199 -0.4756 -0.0164  0.3347
  182SLPC   H2R20836   5.780   5.090  10.245  0.3793  1.9011  1.7977
  182SLPC   H2S20837   5.921   5.178  10.175  1.0116 -0.6849 -0.1024
  182SLPC    C320838   6.018   4.725  10.422  1.2084 -0.0311  0.3075
  182SLPC    HX20839   6.038   4.665  10.513  0.4987  1.8794  1.7884
  182SLPC    HY20840   6.115   4.749  10.374  1.2728 -1.6801 -0.4332
  182SLPC   O3120841   5.923   4.673  10.331 -0.5643  0.7581 -0.3126
  182SLPC   C3120842   5.868   4.558  10.353  0.7592  0.5139 -0.4412
  182SLPC   O3220843   5.898   4.489  10.453  0.0988 -0.1542  0.6101
  182SLPC   C3220844   5.759   4.535  10.248  0.5533 -0.1336  0.0648
  182SLPC   H2X20845   5.670   4.484  10.291 -0.9585  0.4934 -2.0942
  182SLPC   H2Y20846   5.794   4.465  10.168  0.5390 -0.5917  0.4546
  182SLPC   C2320847   5.875   4.992  10.075 -0.6254  0.2639  0.5481
  182SLPC   H3R20848   5.770   4.973  10.046 -0.2368  1.3156 -1.8140
  182SLPC   H3S20849   5.916   4.891  10.096 -0.5565  0.7595  3.1027
  182SLPC   C2420850   5.936   5.051   9.947 -0.3772  0.3673  0.1873
  182SLPC   H4R20851   6.043   5.067   9.971 -0.1069  0.3750 -0.9444
  182SLPC   H4S20852   5.880   5.145   9.924 -1.6056 -0.5666 -0.8004
  182SLPC   C2520853   5.931   4.959   9.821  0.1994  0.1715  0.5104
  182SLPC   H5R20854   5.825   4.929   9.810 -0.2208  1.1343  1.7633
  182SLPC   H5S20855   5.993   4.867   9.829 -1.1075 -1.3728 -3.8832
  182SLPC   C2620856   5.981   5.027   9.685 -0.4156 -0.2649  0.0553
  182SLPC   H6R20857   6.089   5.049   9.698 -0.6913  1.0856  0.2917
  182SLPC   H6S20858   5.940   5.130   9.677 -0.1811 -0.1613  0.1827
  182SLPC   C2720859   5.937   4.946   9.559 -1.0655 -0.3312  0.7580
  182SLPC   H7R20860   5.827   4.956   9.543 -1.5190 -2.0528  2.4278
  182SLPC   H7S20861   5.958   4.839   9.579  1.1756  0.0403  0.6545
  182SLPC   C2820862   6.018   4.994   9.429  0.3959 -0.5938  0.0674
  182SLPC   H8R20863   6.008   4.913   9.354  0.3392 -0.3236 -0.2182
  182SLPC   H8S20864   6.125   5.003   9.454  0.2618  0.2953  0.3657
  182SLPC   C2920865   5.986   5.121   9.358  0.1776 -0.1544 -0.9041
  182SLPC   H9R20866   5.932   5.196   9.418  0.2415 -0.4684 -0.4542
  182SLPC  C21020867   5.993   5.141   9.225  1.0054  0.3365  0.7136
  182SLPC  H10R20868   5.976   5.241   9.181  1.3447  0.9587  1.9454
  182SLPC  C21120869   6.052   5.034   9.130 -0.3205 -0.9250 -0.2873
  182SLPC  H11R20870   5.974   4.957   9.114 -1.0353 -0.2496 -0.1215
  182SLPC  H11S20871   6.139   4.985   9.179  0.1806  0.7530  0.6171
  182SLPC  C21220872   6.113   5.086   9.003 -0.4900  0.2698 -0.4281
  182SLPC  H12R20873   6.163   5.183   9.016 -2.8653  1.3708  1.4456
  182SLPC  C21320874   6.115   5.026   8.883 -0.5519  0.2723 -0.0680
  182SLPC  H13R20875   6.176   5.080   8.809  0.4271 -0.3209  0.2782
  182SLPC  C21420876   6.050   4.895   8.845  0.0761 -0.4901 -1.3030
  182SLPC  H14R20877   5.953   4.916   8.795  0.4838 -0.1320 -1.9763
  182SLPC  H14S20878   6.025   4.843   8.940 -0.0837  0.3179 -0.8894
  182SLPC  C21520879   6.135   4.799   8.759 -0.4295  0.9178 -0.6419
  182SLPC  H15R20880   6.136   4.835   8.654  1.0604  1.4572 -0.4732
  182SLPC  H15S20881   6.075   4.706   8.747  0.8859  0.0323 -0.5917
  182SLPC  C21620882   6.279   4.769   8.805  0.1427 -0.1102 -0.2535
  182SLPC  H16R20883   6.275   4.758   8.915 -0.2669 -1.0700 -0.3491
  182SLPC  H16S20884   6.352   4.851   8.792  0.3478  0.0024  1.3810
  182SLPC  C21720885   6.332   4.637   8.752  0.0938 -0.3685 -0.1005
  182SLPC  H17R20886   6.442   4.635   8.763  0.1903  1.1041 -0.6344
  182SLPC  H17S20887   6.308   4.630   8.644 -1.1407  1.0679  0.0539
  182SLPC  C21820888   6.286   4.516   8.826 -0.0741 -0.7069 -0.4617
  182SLPC  H18R20889   6.176   4.510   8.835 -0.1409  0.8763  0.0009
  182SLPC  H18S20890   6.323   4.525   8.930  0.1300 -1.0757 -0.5012
  182SLPC  H18T20891   6.319   4.424   8.773  0.5688  0.8219 -2.8563
  182SLPC   C3320892   5.711   4.666  10.184 -0.3377  0.5976  0.3185
  182SLPC   H3X20893   5.797   4.731  10.159 -0.4516  1.0002  0.9526
  182SLPC   H3Y20894   5.643   4.719  10.254 -0.3934  0.8121  0.1040
  182SLPC   C3420895   5.641   4.646  10.042 -0.5053 -0.4222 -0.1943
  182SLPC   H4X20896   5.589   4.739  10.013 -0.2614  0.0354  0.7968
  182SLPC   H4Y20897   5.576   4.556  10.049  0.8213 -1.3672  0.7342
  182SLPC   C3520898   5.743   4.624   9.925 -0.7154  0.1749  0.0559
  182SLPC   H5X20899   5.810   4.537   9.942 -2.1119 -1.1800 -1.2151
  182SLPC   H5Y20900   5.817   4.707   9.917  1.2308 -1.5467 -0.7806
  182SLPC   C3620901   5.660   4.596   9.801  0.0346  0.3124  0.1715
  182SLPC   H6X20902   5.570   4.661   9.803 -0.6673 -0.6392  0.1919
  182SLPC   H6Y20903   5.630   4.489   9.798 -0.4885  0.4053  1.4829
  182SLPC   C3720904   5.740   4.626   9.674  0.0204  0.1700  0.9412
  182SLPC   H7X20905   5.841   4.583   9.692  0.6525  1.3883  0.4090
  182SLPC   H7Y20906   5.745   4.733   9.644 -0.1796 -0.1329 -0.1999
  182SLPC   C3820907   5.678   4.548   9.551 -0.1280  0.0547 -0.4738
  182SLPC   H8X20908   5.575   4.583   9.530  0.4362  1.5277 -0.9538
  182SLPC   H8Y20909   5.677   4.439   9.573 -0.5415  0.2169  0.3772
  182SLPC   C3920910   5.751   4.559   9.412  0.4962  0.4478  0.5334
  182SLPC   H9X20911   5.688   4.515   9.332  1.0499  5.0489 -2.8661
  182SLPC   H9Y20912   5.850   4.509   9.417  0.4088 -0.2296 -2.5290
  182SLPC  C31020913   5.758   4.698   9.353 -0.5571 -0.5631  0.0902
  182SLPC  H10X20914   5.824   4.752   9.424  0.4569 -0.8188 -0.6482
  182SLPC  H10Y20915   5.666   4.760   9.359  0.0459  0.4588 -0.8361
  182SLPC  C31120916   5.827   4.702   9.210 -0.0536  0.2167  0.4986
  182SLPC  H11X20917   5.895   4.615   9.205  3.3231  2.6314  1.1118
  182SLPC  H11Y20918   5.889   4.794   9.198 -0.4251  0.2679 -1.4144
  182SLPC  C31220919   5.714   4.695   9.098  0.6648  0.1811  0.1461
  182SLPC  H12X20920   5.637   4.771   9.123 -0.0362 -0.8068  1.1232
  182SLPC  H12Y20921   5.663   4.597   9.084  0.6879  0.3945 -1.6170
  182SLPC  C31320922   5.761   4.738   8.957 -0.1688 -0.0716 -0.4998
  182SLPC  H13X20923   5.856   4.684   8.937  0.3434  0.9524 -0.8705
  182SLPC  H13Y20924   5.778   4.847   8.971  0.9305 -0.1733 -0.9655
  182SLPC  C31420925   5.662   4.726   8.852  0.1065  0.0683 -0.4636
  182SLPC  H14X20926   5.579   4.795   8.880  0.2587  0.1770 -0.2842
  182SLPC  H14Y20927   5.614   4.626   8.854  0.7755 -0.2752  2.5706
  182SLPC  C31520928   5.689   4.787   8.714  0.1045  0.0097  0.1645
  182SLPC  H15X20929   5.777   4.732   8.673  0.4581  0.7611 -0.0886
  182SLPC  H15Y20930   5.711   4.895   8.716  1.5476 -0.2854  1.3578
  182SLPC  C31620931   5.576   4.743   8.615  0.5250 -0.3290  0.2579
  182SLPC  H16X20932   5.476   4.785   8.638  0.0815 -0.2109 -1.7171
  182SLPC  H16Y20933   5.565   4.633   8.617 -1.3386 -0.2045 -0.5857
  182SLPC  C31720934   5.609   4.800   8.479 -0.0046  0.1343  0.2992
  182SLPC  H17X20935   5.710   4.765   8.450 -0.8491 -4.1738  1.9033
  182SLPC  H17Y20936   5.596   4.911   8.478 -0.4540  0.0831 -0.3381
  182SLPC  C31820937   5.523   4.749   8.362 -0.3352  0.3515  0.2007
  182SLPC  H18X20938   5.549   4.814   8.275  0.3483  1.2879  1.0738
  182SLPC  H18Y20939   5.414   4.757   8.384 -0.2986  1.0403  0.1664
  182SLPC  H18Z20940   5.550   4.644   8.339  2.1001  0.9299  0.2250
  183SLPC     N20941   2.297   5.233  11.178  0.2958 -0.0664  0.1715
  183SLPC   C1320942   2.409   5.199  11.269  0.2877 -0.8542  0.3133
  183SLPC  H13A20943   2.499   5.255  11.249 -0.1626 -0.3860 -0.4685
  183SLPC  H13B20944   2.382   5.233  11.368 -0.0972  0.8342 -0.3441
  183SLPC  H13C20945   2.419   5.091  11.265 -0.4198 -0.9317 -3.7148
  183SLPC   C1420946   2.274   5.380  11.164  0.4651  0.1601 -0.5711
  183SLPC  H14A20947   2.251   5.429  11.258  1.9320  0.3184 -0.2680
  183SLPC  H14B20948   2.358   5.432  11.121  0.5762  0.8961  0.4830
  183SLPC  H14C20949   2.186   5.412  11.110  0.4385  0.9043 -0.1099
  183SLPC   C1520950   2.163   5.182  11.242 -0.9205  0.3645 -0.5820
  183SLPC  H15A20951   2.182   5.086  11.287  0.9836  0.4057 -1.1860
  183SLPC  H15B20952   2.125   5.255  11.312 -3.2132  0.6408 -2.0338
  183SLPC  H15C20953   2.105   5.173  11.151  1.5395 -1.7080 -2.0970
  183SLPC   C1220954   2.319   5.165  11.044  0.1457 -0.1579  0.1536
  183SLPC  H12A20955   2.334   5.059  11.059 -0.2128 -0.4239 -1.2469
  183SLPC  H12B20956   2.416   5.197  11.007  0.6049 -1.0107  0.5941
  183SLPC   C1120957   2.225   5.191  10.931  0.7037  0.3949  0.1816
  183SLPC  H11A20958   2.262   5.150  10.835  1.5512  0.2343  0.5659
  183SLPC  H11B20959   2.225   5.301  10.914 -0.9426  0.4451  0.3736
  183SLPC     P20960   2.068   4.988  10.947  0.1466 -0.3999 -0.2066
  183SLPC   O1320961   2.198   4.919  10.957  0.1959  0.6155 -0.1472
  183SLPC   O1420962   1.959   4.950  11.040  0.0640 -0.1409 -0.5130
  183SLPC   O1220963   2.087   5.147  10.957  0.6583 -0.4510  0.2308
  183SLPC   O1120964   2.020   4.974  10.801 -0.2333  0.3792  0.2770
  183SLPC    C120965   1.975   5.090  10.721  0.3476  0.2288  0.0145
  183SLPC    HA20966   1.917   5.162  10.783  0.2825 -0.5952  0.9346
  183SLPC    HB20967   2.059   5.151  10.682 -1.0635  4.5786  3.0026
  183SLPC    C220968   1.888   5.032  10.613 -0.4339 -0.2920  0.4023
  183SLPC    HS20969   1.796   4.999  10.665 -1.1590 -0.2525 -0.8164
  183SLPC   O2120970   1.963   4.936  10.538 -0.1738  0.0943 -0.0500
  183SLPC   C2120971   1.886   4.851  10.470 -0.0747 -0.0388 -0.7340
  183SLPC   O2220972   1.766   4.851  10.482 -0.0756  0.1263  0.1016
  183SLPC   C2220973   1.968   4.766  10.383  0.3255 -0.2215  0.1656
  183SLPC   H2R20974   2.071   4.808  10.381  0.8357 -1.4112  0.5548
  183SLPC   H2S20975   1.967   4.669  10.437  1.5970 -0.6832 -0.6049
  183SLPC    C320976   1.843   5.151  10.516  0.3593  0.5642  0.2751
  183SLPC    HX20977   1.927   5.193  10.457  1.1303 -1.5569 -0.2193
  183SLPC    HY20978   1.807   5.227  10.588 -1.0411  0.7135 -0.5563
  183SLPC   O3120979   1.743   5.102  10.427 -0.3384 -0.7796 -0.7416
  183SLPC   C3120980   1.612   5.104  10.457 -0.8683  0.1609  0.2284
  183SLPC   O3220981   1.567   5.146  10.563  0.3619 -0.5214  0.2057
  183SLPC   C3220982   1.530   5.068  10.334 -0.6676  0.1749  0.2936
  183SLPC   H2X20983   1.578   5.110  10.244 -0.6382 -0.3048  0.0825
  183SLPC   H2Y20984   1.433   5.122  10.343 -0.7117  0.2075 -0.3546
  183SLPC   C2320985   1.904   4.749  10.239 -0.4504 -0.1164 -0.4773
  183SLPC   H3R20986   1.798   4.724  10.259 -1.0732  3.1167  0.8848
  183SLPC   H3S20987   1.960   4.675  10.179  0.5639  0.1478  0.0996
  183SLPC   C2420988   1.905   4.883  10.154  0.6553  1.0342  0.1690
  183SLPC   H4R20989   2.010   4.910  10.132  1.3409 -2.6220 -1.9712
  183SLPC   H4S20990   1.861   4.973  10.202 -2.9261 -0.7395  0.5365
  183SLPC   C2520991   1.828   4.857  10.025  0.3958  0.0029  0.3738
  183SLPC   H5R20992   1.836   4.942   9.954 -0.7566  0.1709  0.4216
  183SLPC   H5S20993   1.718   4.847  10.037  0.2576  1.2840  0.3377
  183SLPC   C2620994   1.883   4.742   9.938 -0.1575 -0.5949  0.3305
  183SLPC   H6R20995   1.833   4.655   9.987 -2.1700  1.5187  2.3037
  183SLPC   H6S20996   1.993   4.745   9.951 -0.3569  0.6910  2.0943
  183SLPC   C2720997   1.859   4.741   9.783  0.1010 -0.1916 -0.3712
  183SLPC   H7R20998   1.755   4.780   9.773  0.3283  0.5276  0.0453
  183SLPC   H7S20999   1.844   4.633   9.763 -0.0499  0.0220 -1.4349
  183SLPC   C2821000   1.966   4.802   9.696 -0.6345 -0.0131  0.6395
  183SLPC   H8R21001   2.061   4.746   9.699 -1.7724 -2.1163 -0.3549
  183SLPC   H8S21002   1.994   4.904   9.731 -1.7764  0.8276 -0.7806
  183SLPC   C2921003   1.916   4.812   9.554  0.1288 -0.1291  0.5942
  183SLPC   H9R21004   1.827   4.877   9.549 -2.8092 -3.8378 -1.2295
  183SLPC  C21021005   1.946   4.737   9.441 -0.0617  0.2697  0.0485
  183SLPC  H10R21006   1.898   4.760   9.344 -1.5569  1.4668  1.0350
  183SLPC  C21121007   2.052   4.623   9.442  0.1379 -0.0051  0.3909
  183SLPC  H11R21008   2.104   4.609   9.539 -1.2503 -1.1276  1.0057
  183SLPC  H11S21009   2.130   4.660   9.372 -2.1876  3.3669 -0.7119
  183SLPC  C21221010   1.993   4.491   9.388  0.3467  0.1071 -0.5241
  183SLPC  H12R21011   1.944   4.441   9.472  0.4917  2.2340  0.8955
  183SLPC  C21321012   2.001   4.448   9.259  0.2969 -0.7190  0.3422
  183SLPC  H13R21013   1.954   4.351   9.239 -1.8436  0.4163 -0.4986
  183SLPC  C21421014   2.070   4.526   9.150  0.2465  0.0930 -0.1303
  183SLPC  H14R21015   2.175   4.490   9.147 -0.1728 -1.5263  1.9292
  183SLPC  H14S21016   2.083   4.629   9.189  0.8625 -0.2844  0.6789
  183SLPC  C21521017   2.006   4.517   9.006 -0.9840  0.7740 -0.5305
  183SLPC  H15R21018   2.064   4.576   8.932  0.0193  1.0621  0.4589
  183SLPC  H15S21019   1.901   4.551   9.016 -0.4909  2.0673  0.4628
  183SLPC  C21621020   2.025   4.378   8.939 -0.4610 -0.0025  1.0766
  183SLPC  H16R21021   1.971   4.303   8.999  2.0038 -2.4177  0.4994
  183SLPC  H16S21022   2.133   4.354   8.926 -0.9514 -2.0896  0.4733
  183SLPC  C21721023   1.955   4.375   8.803 -0.0823 -0.2598  0.1198
  183SLPC  H17R21024   2.011   4.436   8.728  1.1639 -0.5381  0.7889
  183SLPC  H17S21025   1.851   4.404   8.827  0.4331 -0.2793  2.6862
  183SLPC  C21821026   1.951   4.234   8.736  0.3286 -0.1009 -0.4285
  183SLPC  H18R21027   1.892   4.235   8.642 -0.2226  0.8356 -0.0915
  183SLPC  H18S21028   1.890   4.165   8.797 -0.5459  0.4720 -0.6419
  183SLPC  H18T21029   2.051   4.186   8.729  0.8682  1.1079 -1.5302
  183SLPC   C3321030   1.521   4.921  10.287 -0.0215  0.1705  0.5485
  183SLPC   H3X21031   1.460   4.864  10.361 -2.6425  2.3641  0.2414
  183SLPC   H3Y21032   1.627   4.888  10.293 -0.0425  0.0538  0.2927
  183SLPC   C3421033   1.470   4.906  10.141 -0.3698  0.7726 -0.1824
  183SLPC   H4X21034   1.529   4.955  10.061  1.3619 -0.2666  0.3908
  183SLPC   H4Y21035   1.366   4.944  10.138 -0.3830  0.7282 -0.2713
  183SLPC   C3521036   1.445   4.751  10.111  0.3657  0.0947  0.1337
  183SLPC   H5X21037   1.382   4.719  10.197 -1.7237  0.3919 -1.2142
  183SLPC   H5Y21038   1.542   4.704  10.135  1.6541  2.5501  0.0583
  183SLPC   C3621039   1.376   4.716   9.982 -0.6128  0.6563  1.1726
  183SLPC   H6X21040   1.284   4.770   9.951 -1.2072 -1.1438 -0.4109
  183SLPC   H6Y21041   1.353   4.607   9.985  0.5926  0.2607 -1.3329
  183SLPC   C3721042   1.478   4.721   9.870 -0.1140 -0.3217  0.4250
  183SLPC   H7X21043   1.569   4.666   9.904 -1.2006 -2.4063  0.1623
  183SLPC   H7Y21044   1.508   4.821   9.831 -1.2110 -0.9096 -2.1721
  183SLPC   C3821045   1.432   4.653   9.739  0.4969  0.2145 -0.5303
  183SLPC   H8X21046   1.353   4.713   9.689  1.4126  2.1409  0.2448
  183SLPC   H8Y21047   1.394   4.551   9.761 -1.4552  1.1336  0.5922
  183SLPC   C3921048   1.548   4.646   9.641  0.2412  0.0788  0.4691
  183SLPC   H9X21049   1.629   4.583   9.683  1.2862  1.2557  0.2763
  183SLPC   H9Y21050   1.592   4.748   9.632 -3.2205  2.2603  4.8441
  183SLPC  C31021051   1.503   4.594   9.503  0.3885 -0.0662 -0.3169
  183SLPC  H10X21052   1.423   4.664   9.470  0.3489  0.4929  0.8840
  183SLPC  H10Y21053   1.450   4.498   9.517 -0.6114  0.2365 -1.8169
  183SLPC  C31121054   1.614   4.579   9.400  0.7004  0.0576  0.1268
  183SLPC  H11X21055   1.691   4.524   9.459  2.0217  0.9504 -0.7159
  183SLPC  H11Y21056   1.657   4.680   9.385  0.8985 -0.1179 -0.4997
  183SLPC  C31221057   1.563   4.515   9.267  0.4590  0.0586 -0.1695
  183SLPC  H12X21058   1.455   4.526   9.246  0.5180  0.2148 -0.3985
  183SLPC  H12Y21059   1.560   4.405   9.283  0.5728  0.1854  0.7844
  183SLPC  C31321060   1.641   4.550   9.140  1.0853 -0.4210  1.1196
  183SLPC  H13X21061   1.739   4.497   9.142  1.9205  0.9832 -0.5481
  183SLPC  H13Y21062   1.658   4.659   9.146 -0.0493 -0.1385 -0.1366
  183SLPC  C31421063   1.576   4.507   9.015 -0.3843 -0.3001  1.0515
  183SLPC  H14X21064   1.637   4.525   8.924  0.4089  0.5520  1.7375
  183SLPC  H14Y21065   1.486   4.568   8.992 -0.1296 -0.5522 -0.7554
  183SLPC  C31521066   1.541   4.355   9.018 -0.5686 -0.0872  0.2859
  183SLPC  H15X21067   1.466   4.336   9.097 -2.3229 -0.2182 -1.3378
  183SLPC  H15Y21068   1.638   4.301   9.028  0.5378  1.7074 -0.1309
  183SLPC  C31621069   1.465   4.307   8.892  0.0388 -0.3896 -1.1009
  183SLPC  H16X21070   1.528   4.339   8.807  0.6350  0.5815 -0.3185
  183SLPC  H16Y21071   1.378   4.376   8.893 -0.4344 -0.9775 -0.9887
  183SLPC  C31721072   1.423   4.163   8.909  0.8472  0.1147  0.4319
  183SLPC  H17X21073   1.353   4.156   8.995 -0.3964 -0.2299 -0.5764
  183SLPC  H17Y21074   1.505   4.089   8.920  2.6567  1.2588 -3.4927
  183SLPC  C31821075   1.346   4.111   8.781  0.2011 -0.0225  0.0138
  183SLPC  H18X21076   1.258   4.170   8.749  0.6548 -0.5708 -2.4810
  183SLPC  H18Y21077   1.315   4.006   8.794 -1.7319  0.7304  2.0220
  183SLPC  H18Z21078   1.408   4.124   8.689 -1.6001  0.8845 -1.1383
  184SLPC     N21079   2.866   2.908  11.071 -0.0942  0.3751  0.8089
  184SLPC   C1321080   2.935   2.931  11.195  0.3688 -1.1393 -0.6657
  184SLPC  H13A21081   2.985   2.843  11.230 -0.6267 -1.3670  0.2096
  184SLPC  H13B21082   3.007   3.011  11.189 -0.7988  0.0523  0.3603
  184SLPC  H13C21083   2.862   2.965  11.267  0.2701  0.9198 -1.6548
  184SLPC   C1421084   2.750   2.821  11.096  0.1721 -0.5350  0.3039
  184SLPC  H14A21085   2.697   2.795  11.005  0.1096  3.5148 -0.9899
  184SLPC  H14B21086   2.780   2.729  11.144 -2.3753 -1.5025  0.2146
  184SLPC  H14C21087   2.678   2.864  11.164  0.2925 -0.9667  0.7123
  184SLPC   C1521088   2.972   2.841  10.989  0.3716  0.3114  0.3364
  184SLPC  H15A21089   3.015   2.756  11.040  0.2565  1.3694  2.2530
  184SLPC  H15B21090   2.933   2.795  10.898 -0.5584 -0.0626  0.9054
  184SLPC  H15C21091   3.052   2.907  10.961 -0.2129  0.6083 -0.6755
  184SLPC   C1221092   2.820   3.039  11.008 -0.6124  0.8902 -0.9991
  184SLPC  H12A21093   2.891   3.117  11.029 -0.3658  0.4828 -0.2709
  184SLPC  H12B21094   2.723   3.064  11.049 -1.6256 -1.6954 -1.5765
  184SLPC   C1121095   2.798   3.056  10.854 -0.3239  0.0624 -0.0581
  184SLPC  H11A21096   2.891   3.034  10.797 -1.2563  0.3117 -1.7562
  184SLPC  H11B21097   2.783   3.163  10.828 -3.2821 -0.9137 -3.0265
  184SLPC     P21098   2.551   3.017  10.801 -0.0870  0.1185 -0.5023
  184SLPC   O1321099   2.465   2.914  10.869 -0.4188  0.5159 -0.0229
  184SLPC   O1421100   2.551   3.146  10.870  0.5552 -0.1938 -0.5102
  184SLPC   O1221101   2.698   2.962  10.802  0.3580 -0.0115 -0.0597
  184SLPC   O1121102   2.517   3.041  10.644 -0.4627  0.1981  0.3738
  184SLPC    C121103   2.588   2.954  10.551  0.1757 -0.9147  0.4118
  184SLPC    HA21104   2.688   3.001  10.539  0.6815 -2.4958 -2.1061
  184SLPC    HB21105   2.582   2.847  10.581 -3.4778 -1.1024 -0.4663
  184SLPC    C221106   2.523   2.972  10.407  0.0193 -0.2500 -0.7675
  184SLPC    HS21107   2.432   2.910  10.421  1.1271 -1.7847 -0.0218
  184SLPC   O2121108   2.607   2.922  10.300  0.7286  0.2762 -0.2235
  184SLPC   C2121109   2.637   2.795  10.315  0.1576  0.2430 -0.5080
  184SLPC   O2221110   2.585   2.720  10.396 -0.1854 -0.2010  0.0176
  184SLPC   C2221111   2.738   2.753  10.207 -0.2096  0.1468  0.1724
  184SLPC   H2R21112   2.842   2.778  10.237 -0.3205  3.3364 -1.6153
  184SLPC   H2S21113   2.732   2.642  10.204 -1.9318  0.1699  1.4825
  184SLPC    C321114   2.474   3.119  10.371  0.0818 -0.3865 -0.4392
  184SLPC    HX21115   2.546   3.195  10.406  0.0800 -1.0700  1.1389
  184SLPC    HY21116   2.385   3.150  10.430 -0.6241 -0.9190 -1.1965
  184SLPC   O3121117   2.442   3.125  10.228  0.0773 -0.6266  0.0686
  184SLPC   C3121118   2.529   3.175  10.146 -0.0404 -0.1662  0.0564
  184SLPC   O3221119   2.642   3.219  10.165  0.5547  0.4881 -0.2140
  184SLPC   C3221120   2.461   3.192  10.005 -0.0184  0.0226 -0.2182
  184SLPC   H2X21121   2.373   3.260  10.010 -0.5269 -0.7111  1.1917
  184SLPC   H2Y21122   2.416   3.096   9.974  0.6067  0.0041 -1.1187
  184SLPC   C2321123   2.704   2.812  10.066 -0.5855 -0.0796 -0.1175
  184SLPC   H3R21124   2.781   2.791   9.989 -2.4495  0.2871 -2.1807
  184SLPC   H3S21125   2.681   2.921  10.070 -1.8958 -0.3629  0.7752
  184SLPC   C2421126   2.578   2.742  10.008 -0.5581 -0.7783  0.2409
  184SLPC   H4R21127   2.498   2.732  10.084 -0.0015  2.4120  1.4238
  184SLPC   H4S21128   2.615   2.642   9.977 -1.3049 -1.2108  0.7279
  184SLPC   C2521129   2.531   2.814   9.875 -0.3814 -0.3001 -0.0062
  184SLPC   H5R21130   2.488   2.907   9.919  0.7948 -0.0809  0.7294
  184SLPC   H5S21131   2.445   2.768   9.822 -2.0426  1.8273  0.6870
  184SLPC   C2621132   2.638   2.840   9.774  0.7869  0.5762  0.3261
  184SLPC   H6R21133   2.718   2.901   9.820  0.7306  1.5818 -0.8532
  184SLPC   H6S21134   2.590   2.895   9.691 -0.9111 -1.0347  0.1672
  184SLPC   C2721135   2.706   2.718   9.713  0.2681  0.0377  0.0206
  184SLPC   H7R21136   2.729   2.638   9.787  0.1067  2.1105  2.4534
  184SLPC   H7S21137   2.809   2.750   9.687  0.9623 -2.3065 -0.3684
  184SLPC   C2821138   2.628   2.675   9.596  0.0002  0.4107  0.7048
  184SLPC   H8R21139   2.600   2.762   9.533 -0.1532 -0.4416 -0.4353
  184SLPC   H8S21140   2.536   2.633   9.642  0.3596  0.4161  1.4409
  184SLPC   C2921141   2.693   2.558   9.527 -0.1104  0.0729  0.3084
  184SLPC   H9R21142   2.724   2.478   9.596  0.8213  0.8106  0.7570
  184SLPC  C21021143   2.698   2.541   9.390  0.3483  0.5395 -1.0955
  184SLPC  H10R21144   2.717   2.442   9.346 -1.2637 -0.1559 -0.2929
  184SLPC  C21121145   2.647   2.625   9.280  0.1021  0.7934 -0.8692
  184SLPC  H11R21146   2.616   2.724   9.319 -2.5070  0.6413 -2.3491
  184SLPC  H11S21147   2.556   2.579   9.235 -0.2358  2.8482 -2.4572
  184SLPC  C21221148   2.763   2.637   9.180 -0.6941  0.2923 -0.1763
  184SLPC  H12R21149   2.860   2.670   9.221  0.4988 -0.8824 -1.8969
  184SLPC  C21321150   2.775   2.588   9.056  0.1678  0.0203 -0.2369
  184SLPC  H13R21151   2.881   2.585   9.026  0.4750 -0.3770  0.8206
  184SLPC  C21421152   2.676   2.507   8.971 -0.0524 -0.3019  0.1180
  184SLPC  H14R21153   2.642   2.559   8.879  0.3805 -0.7553 -0.3023
  184SLPC  H14S21154   2.584   2.477   9.026  0.8291 -0.2290  1.7063
  184SLPC  C21521155   2.742   2.372   8.928  0.7442  0.4252  0.0912
  184SLPC  H15R21156   2.768   2.317   9.021  1.0716 -0.3302 -0.4348
  184SLPC  H15S21157   2.834   2.397   8.872  0.2110  2.6323  0.1256
  184SLPC  C21621158   2.658   2.287   8.836 -0.5390 -0.5398 -0.3473
  184SLPC  H16R21159   2.558   2.276   8.882  0.0986 -1.7814  0.8145
  184SLPC  H16S21160   2.705   2.186   8.836 -0.7116 -0.7170  2.7496
  184SLPC  C21721161   2.640   2.324   8.689  0.0680  0.3185 -0.3490
  184SLPC  H17R21162   2.646   2.235   8.623 -0.7687 -0.6608  0.8508
  184SLPC  H17S21163   2.714   2.398   8.651 -1.1869  1.8100 -0.0292
  184SLPC  C21821164   2.505   2.383   8.663  0.0310 -0.1366 -0.2925
  184SLPC  H18R21165   2.500   2.388   8.553  0.4459  2.9567 -0.2534
  184SLPC  H18S21166   2.484   2.488   8.692 -3.3501 -0.0254 -2.5348
  184SLPC  H18T21167   2.434   2.316   8.717  1.0807 -0.2276  1.0342
  184SLPC   C3321168   2.565   3.243   9.900 -0.0700  0.0747  0.9544
  184SLPC   H3X21169   2.652   3.174   9.894  0.3895  0.7536 -0.6568
  184SLPC   H3Y21170   2.607   3.341   9.931 -1.2997  0.3905  1.6898
  184SLPC   C3421171   2.504   3.256   9.758 -0.3596 -0.0610  0.3428
  184SLPC   H4X21172   2.411   3.313   9.781 -1.3337 -1.8861  1.1045
  184SLPC   H4Y21173   2.470   3.167   9.701  1.9853  0.6867 -2.5151
  184SLPC   C3521174   2.581   3.339   9.649  0.7363  0.3065 -0.4047
  184SLPC   H5X21175   2.661   3.277   9.604 -0.0038 -1.3272  0.4311
  184SLPC   H5Y21176   2.642   3.413   9.706  0.4036 -0.1825  0.6214
  184SLPC   C3621177   2.493   3.403   9.540 -0.2124  0.5475  0.2009
  184SLPC   H6X21178   2.478   3.507   9.576  1.7508  0.5770  1.0836
  184SLPC   H6Y21179   2.400   3.343   9.531  0.0710  0.2153 -0.5270
  184SLPC   C3721180   2.562   3.403   9.403  0.0073 -0.2423  0.2157
  184SLPC   H7X21181   2.585   3.295   9.387  0.6115 -0.5744  2.7972
  184SLPC   H7Y21182   2.650   3.470   9.414 -0.8657  0.8726  0.6185
  184SLPC   C3821183   2.460   3.455   9.293 -0.1249 -0.2530  0.3965
  184SLPC   H8X21184   2.435   3.561   9.316  1.3609 -0.2486  2.1331
  184SLPC   H8Y21185   2.369   3.392   9.305 -1.7205  1.9537  0.5657
  184SLPC   C3921186   2.499   3.423   9.143  0.1396 -0.2644 -0.4469
  184SLPC   H9X21187   2.417   3.443   9.070 -1.1100  0.7436  1.1642
  184SLPC   H9Y21188   2.541   3.321   9.138  0.8049  0.0495 -2.2150
  184SLPC  C31021189   2.609   3.511   9.086 -0.7046  0.0345 -0.0081
  184SLPC  H10X21190   2.641   3.476   8.986 -1.5979 -0.3223 -0.1813
  184SLPC  H10Y21191   2.698   3.500   9.151  0.2285  1.1345 -1.0688
  184SLPC  C31121192   2.588   3.653   9.064 -0.6440  0.1906 -0.1718
  184SLPC  H11X21193   2.565   3.701   9.162 -0.1982 -1.1554  0.6107
  184SLPC  H11Y21194   2.510   3.675   8.989  0.1185 -0.3156 -1.1373
  184SLPC  C31221195   2.713   3.718   8.996 -0.5607 -0.7742 -0.3427
  184SLPC  H12X21196   2.730   3.680   8.893 -0.5511  0.1302 -0.6836
  184SLPC  H12Y21197   2.803   3.696   9.057 -0.5389  1.1535  0.3985
  184SLPC  C31321198   2.702   3.872   9.004  0.7142 -0.3445 -0.6672
  184SLPC  H13X21199   2.797   3.923   8.978  1.4317 -0.8031  0.9480
  184SLPC  H13Y21200   2.666   3.904   9.104  0.5064 -0.2558 -0.7693
  184SLPC  C31421201   2.600   3.921   8.907 -0.0141 -1.2069  0.3486
  184SLPC  H14X21202   2.496   3.886   8.926 -0.2826  0.2599  1.7873
  184SLPC  H14Y21203   2.632   3.895   8.804 -1.7712  0.5893 -0.7166
  184SLPC  C31521204   2.597   4.084   8.892 -0.3710  0.0935 -0.4470
  184SLPC  H15X21205   2.698   4.120   8.866 -1.3503  2.1336 -1.6812
  184SLPC  H15Y21206   2.572   4.130   8.991 -0.0804  3.3910 -1.7754
  184SLPC  C31621207   2.509   4.136   8.782  0.4606 -0.0931  0.1087
  184SLPC  H16X21208   2.406   4.096   8.788 -0.4312  1.0949 -4.1305
  184SLPC  H16Y21209   2.549   4.103   8.684 -0.5784  3.2204 -1.6056
  184SLPC  C31721210   2.499   4.289   8.784  0.0408 -0.2732  0.4787
  184SLPC  H17X21211   2.604   4.325   8.782  0.4918 -1.5738  0.2132
  184SLPC  H17Y21212   2.462   4.321   8.884  1.5276  0.6890  0.7550
  184SLPC  C31821213   2.411   4.343   8.668  0.8294  0.1765 -0.4431
  184SLPC  H18X21214   2.385   4.448   8.690  1.1657  0.3324 -0.7786
  184SLPC  H18Y21215   2.311   4.295   8.669  0.2305  1.1969  3.2726
  184SLPC  H18Z21216   2.468   4.318   8.575  2.9680 -0.7457  1.0201
  185SLPC     N21217   0.512   4.555   5.974 -0.3785 -0.7240  0.8866
  185SLPC   C1321218   0.488   4.484   5.843  0.7351  0.2167 -0.6512
  185SLPC  H13A21219   0.584   4.450   5.808  0.7991 -0.7860  0.4645
  185SLPC  H13B21220   0.431   4.397   5.871  0.7580  0.5676  0.5502
  185SLPC  H13C21221   0.438   4.537   5.763  3.2364  2.3994 -0.9299
  185SLPC   C1421222   0.591   4.478   6.069  0.1157 -0.1215  0.0279
  185SLPC  H14A21223   0.615   4.547   6.149  1.5520  0.2270 -0.6622
  185SLPC  H14B21224   0.533   4.395   6.107 -0.8957 -0.0449 -1.2885
  185SLPC  H14C21225   0.684   4.442   6.027  0.2637  0.8498 -0.4830
  185SLPC   C1521226   0.382   4.586   6.038  0.3580  0.2616  0.9421
  185SLPC  H15A21227   0.316   4.514   6.085 -0.2043  1.9766  2.9572
  185SLPC  H15B21228   0.387   4.654   6.122 -0.5002  0.1754  1.0748
  185SLPC  H15C21229   0.315   4.636   5.970  0.0889 -2.6598 -1.1434
  185SLPC   C1221230   0.587   4.685   5.944 -0.1583  0.0343 -0.7492
  185SLPC  H12A21231   0.547   4.723   5.852  0.2132 -0.4459 -1.1144
  185SLPC  H12B21232   0.691   4.659   5.927  0.1181 -0.0993  0.9222
  185SLPC   C1121233   0.581   4.795   6.049  0.5511 -0.0043 -0.3682
  185SLPC  H11A21234   0.473   4.814   6.065  0.1402 -2.3454  0.1116
  185SLPC  H11B21235   0.630   4.883   6.002  2.7848  0.0197  1.8083
  185SLPC     P21236   0.802   4.780   6.182  0.0398  0.2827  0.1340
  185SLPC   O1321237   0.871   4.699   6.076 -0.3968  0.3952  0.4142
  185SLPC   O1421238   0.822   4.928   6.170  0.0090  0.3514 -0.0120
  185SLPC   O1221239   0.649   4.755   6.168 -0.1490 -0.3654 -0.3295
  185SLPC   O1121240   0.841   4.721   6.322 -0.1791 -0.7144  0.3858
  185SLPC    C121241   0.789   4.592   6.358 -0.3727 -0.5922  0.0491
  185SLPC    HA21242   0.783   4.523   6.271  1.9773 -1.1239  0.2590
  185SLPC    HB21243   0.861   4.550   6.431  1.6771  0.7187 -1.1308
  185SLPC    C221244   0.657   4.585   6.431  0.4659  0.5262 -0.0521
  185SLPC    HS21245   0.576   4.597   6.356 -0.5203  1.0329  1.0636
  185SLPC   O2121246   0.658   4.694   6.530  0.0869  0.2295 -0.4126
  185SLPC   C2121247   0.530   4.739   6.559 -0.3349 -0.0586  0.5700
  185SLPC   O2221248   0.429   4.677   6.533 -0.2073 -0.1358 -0.0421
  185SLPC   C2221249   0.537   4.866   6.638  0.3625  0.1605  0.2298
  185SLPC   H2R21250   0.590   4.946   6.582 -0.3500  0.4447 -0.0538
  185SLPC   H2S21251   0.430   4.898   6.635  0.4422  0.6742 -3.7180
  185SLPC    C321252   0.632   4.448   6.499  0.2177  0.2757  0.0762
  185SLPC    HX21253   0.630   4.378   6.413 -1.4058 -0.8170  0.9443
  185SLPC    HY21254   0.533   4.448   6.550  1.5094  0.1446  2.7484
  185SLPC   O3121255   0.737   4.420   6.589 -0.3111 -0.1241  0.1135
  185SLPC   C3121256   0.714   4.443   6.710 -0.1960  0.5030 -0.5825
  185SLPC   O3221257   0.607   4.470   6.759  0.5181 -0.9376 -0.5240
  185SLPC   C3221258   0.844   4.427   6.782  0.5517 -0.5700 -1.1985
  185SLPC   H2X21259   0.921   4.497   6.742  0.7050  0.4458  0.7648
  185SLPC   H2Y21260   0.893   4.328   6.775  1.4131 -0.6514  3.1137
  185SLPC   C2321261   0.591   4.833   6.783 -0.4687  0.0732  0.0867
  185SLPC   H3R21262   0.702   4.830   6.784 -0.4325  0.4860 -1.1357
  185SLPC   H3S21263   0.542   4.739   6.818 -1.0166 -0.4529 -1.9656
  185SLPC   C2421264   0.541   4.934   6.889  0.2282 -0.1370 -0.2336
  185SLPC   H4R21265   0.445   4.903   6.936 -0.7421  0.5655 -1.6568
  185SLPC   H4S21266   0.520   5.031   6.839  1.6362 -0.1968 -0.9953
  185SLPC   C2521267   0.638   4.944   7.007  0.5505  0.3474 -0.0509
  185SLPC   H5R21268   0.616   5.032   7.071  1.8638  2.1354 -1.9083
  185SLPC   H5S21269   0.743   4.968   6.981  0.7689  1.9450  2.0313
  185SLPC   C2621270   0.639   4.825   7.109 -0.1203  0.4040  0.5077
  185SLPC   H6R21271   0.655   4.730   7.055  1.0458  0.8647 -0.0025
  185SLPC   H6S21272   0.540   4.823   7.159 -1.8017 -0.0721 -2.6050
  185SLPC   C2721273   0.761   4.828   7.214 -0.6474 -0.0976  0.2654
  185SLPC   H7R21274   0.758   4.921   7.276  2.3098 -0.1943  0.7016
  185SLPC   H7S21275   0.850   4.841   7.150 -0.1295 -0.2199  0.9445
  185SLPC   C2821276   0.774   4.705   7.300  0.2572 -0.9218 -0.1163
  185SLPC   H8R21277   0.832   4.726   7.392 -0.3997  0.0095  0.1062
  185SLPC   H8S21278   0.828   4.622   7.249 -0.5269 -3.3625  2.6963
  185SLPC   C2921279   0.634   4.658   7.339 -0.5045  0.0792  0.0392
  185SLPC   H9R21280   0.576   4.623   7.252  0.4527 -0.2194 -0.4909
  185SLPC  C21021281   0.570   4.665   7.459  0.2411 -0.1030 -0.3130
  185SLPC  H10R21282   0.474   4.612   7.465  1.9060 -3.3426  0.5460
  185SLPC  C21121283   0.623   4.720   7.590  0.2110  0.0785 -0.5715
  185SLPC  H11R21284   0.539   4.712   7.662 -0.8454  0.9957 -1.6656
  185SLPC  H11S21285   0.649   4.827   7.577 -0.2309  0.2633  0.0026
  185SLPC  C21221286   0.749   4.675   7.656 -0.1393  0.7647 -0.1947
  185SLPC  H12R21287   0.831   4.635   7.594 -1.2246 -0.5186 -0.8448
  185SLPC  C21321288   0.771   4.685   7.790 -0.1252  0.3399  0.0778
  185SLPC  H13R21289   0.863   4.641   7.831 -0.5886 -0.6357  0.1065
  185SLPC  C21421290   0.678   4.751   7.885  0.1291 -0.5261 -0.2817
  185SLPC  H14R21291   0.590   4.687   7.907 -1.0252  1.4261  1.1032
  185SLPC  H14S21292   0.637   4.842   7.835  0.7840 -1.0163 -1.7821
  185SLPC  C21521293   0.747   4.791   8.018 -0.2633  0.2705  0.4648
  185SLPC  H15R21294   0.708   4.891   8.044 -0.2207 -0.1300  2.1684
  185SLPC  H15S21295   0.858   4.798   8.007 -0.0563  1.6771  2.8436
  185SLPC  C21621296   0.725   4.680   8.130 -0.7260 -0.0630 -0.2411
  185SLPC  H16R21297   0.769   4.584   8.096  0.4104 -0.7986  2.9749
  185SLPC  H16S21298   0.617   4.653   8.139 -1.5644  2.9735  0.0793
  185SLPC  C21721299   0.770   4.729   8.276 -0.5324  0.2546  0.4546
  185SLPC  H17R21300   0.814   4.832   8.275  0.4545 -0.1138  2.2426
  185SLPC  H17S21301   0.848   4.657   8.309 -0.2395 -0.1893 -1.1496
  185SLPC  C21821302   0.671   4.739   8.388  0.4872 -0.5836  0.1531
  185SLPC  H18R21303   0.574   4.791   8.371 -0.2475 -1.5712  1.2534
  185SLPC  H18S21304   0.715   4.789   8.477  2.0793  0.9105 -1.3843
  185SLPC  H18T21305   0.636   4.638   8.419 -0.9163 -0.6057 -1.3614
  185SLPC   C3321306   0.840   4.458   6.940  0.7179 -0.2755 -0.5087
  185SLPC   H3X21307   0.812   4.562   6.968 -0.7534 -0.3662 -1.4816
  185SLPC   H3Y21308   0.947   4.447   6.967  0.8324  1.3822 -0.1700
  185SLPC   C3421309   0.757   4.356   7.023  0.1568 -0.2075 -0.8379
  185SLPC   H4X21310   0.756   4.252   6.984  0.6312 -0.5462  0.0194
  185SLPC   H4Y21311   0.653   4.393   7.036  1.3071  3.5839 -1.1657
  185SLPC   C3521312   0.810   4.325   7.161  0.1000  0.5961 -0.0782
  185SLPC   H5X21313   0.819   4.417   7.223 -0.3680  0.5663  0.0400
  185SLPC   H5Y21314   0.915   4.293   7.150  0.2328  1.6498 -2.3811
  185SLPC   C3621315   0.728   4.211   7.228 -0.3814 -0.2383  0.6240
  185SLPC   H6X21316   0.790   4.164   7.307  1.0632 -4.2094 -2.5772
  185SLPC   H6Y21317   0.716   4.127   7.157 -1.3068 -0.7156  1.3071
  185SLPC   C3721318   0.592   4.256   7.296 -0.6220  0.3703  0.4053
  185SLPC   H7X21319   0.522   4.171   7.300 -0.2370  0.0253 -0.0370
  185SLPC   H7Y21320   0.535   4.332   7.238 -1.6495  2.5432  3.9397
  185SLPC   C3821321   0.613   4.318   7.439 -0.6369  0.4458 -0.6181
  185SLPC   H8X21322   0.516   4.355   7.478 -0.3167  0.7548 -0.1038
  185SLPC   H8Y21323   0.682   4.404   7.426 -0.2788  0.3152  0.3895
  185SLPC   C3921324   0.688   4.230   7.540 -0.3091 -0.2347  0.1988
  185SLPC   H9X21325   0.797   4.223   7.518 -0.5229  2.2613 -2.2993
  185SLPC   H9Y21326   0.644   4.129   7.552  1.4522 -0.9494  0.9690
  185SLPC  C31021327   0.671   4.298   7.683  0.0914  0.0492  0.0678
  185SLPC  H10X21328   0.571   4.340   7.710 -0.2020 -0.7123  0.1927
  185SLPC  H10Y21329   0.739   4.385   7.675 -0.0647  0.1533 -0.1192
  185SLPC  C31121330   0.710   4.205   7.795 -0.2116  0.1334  0.4437
  185SLPC  H11X21331   0.808   4.158   7.769 -0.1629  1.0333 -1.1103
  185SLPC  H11Y21332   0.644   4.119   7.817  2.0498 -1.7010  0.4555
  185SLPC  C31221333   0.719   4.287   7.931 -0.1977  0.7755 -0.1082
  185SLPC  H12X21334   0.631   4.356   7.934 -1.7311 -1.0622 -0.4807
  185SLPC  H12Y21335   0.808   4.352   7.923 -0.1301  0.8577  1.0857
  185SLPC  C31321336   0.721   4.210   8.061 -0.5157  0.6105 -0.2107
  185SLPC  H13X21337   0.804   4.138   8.047  0.9924  1.6064  2.7264
  185SLPC  H13Y21338   0.629   4.149   8.076 -1.0161  1.7594  1.8444
  185SLPC  C31421339   0.747   4.294   8.188  0.0413 -0.5385 -0.0628
  185SLPC  H14X21340   0.657   4.353   8.215  0.9746 -0.2986  3.0010
  185SLPC  H14Y21341   0.832   4.365   8.171 -0.6513 -0.2375 -2.7558
  185SLPC  C31521342   0.766   4.206   8.311 -0.2335  0.4510 -0.4226
  185SLPC  H15X21343   0.837   4.122   8.295 -1.2369 -0.7010  0.9410
  185SLPC  H15Y21344   0.665   4.168   8.337 -0.7629 -0.1318 -3.1243
  185SLPC  C31621345   0.809   4.289   8.434  0.1115 -0.3231  0.5166
  185SLPC  H16X21346   0.749   4.382   8.448  0.9483  0.2757  0.1750
  185SLPC  H16Y21347   0.905   4.329   8.394 -0.1920 -1.7449 -1.7941
  185SLPC  C31721348   0.827   4.202   8.555  0.5066 -0.3928 -0.2467
  185SLPC  H17X21349   0.893   4.115   8.536 -1.8367 -2.3136 -0.1788
  185SLPC  H17Y21350   0.726   4.161   8.577  0.6331  1.1652  4.2187
  185SLPC  C31821351   0.871   4.287   8.675  0.3151  0.2810 -0.1472
  185SLPC  H18X21352   0.783   4.350   8.699 -0.3072 -0.3843 -0.6398
  185SLPC  H18Y21353   0.959   4.350   8.652  0.2115  0.4604 -0.0527
  185SLPC  H18Z21354   0.897   4.226   8.764  0.6167  0.1595 -0.3198
  186SLPC     N21355   2.668   1.966   5.908 -0.1277  0.1879  0.0766
  186SLPC   C1321356   2.699   1.925   6.045  0.5880 -0.0137 -0.4541
  186SLPC  H13A21357   2.771   1.995   6.084 -0.2883 -0.4364  2.1561
  186SLPC  H13B21358   2.615   1.941   6.111  1.4433 -1.2572  1.0142
  186SLPC  H13C21359   2.741   1.827   6.064 -0.2276 -0.2880 -0.0087
  186SLPC   C1421360   2.549   1.888   5.854 -0.2009  0.5276  0.0080
  186SLPC  H14A21361   2.521   1.909   5.752 -1.7584  1.7863  0.6466
  186SLPC  H14B21362   2.553   1.781   5.864  0.1234  0.4756 -0.6254
  186SLPC  H14C21363   2.461   1.919   5.909 -0.6687 -0.6464 -0.0590
  186SLPC   C1521364   2.795   1.941   5.836 -0.1048 -0.1825  0.3852
  186SLPC  H15A21365   2.870   2.010   5.873 -1.8600  2.4954 -0.7076
  186SLPC  H15B21366   2.840   1.845   5.854 -0.1355 -0.5343 -1.2808
  186SLPC  H15C21367   2.790   1.959   5.730 -1.8721 -1.7940  0.1484
  186SLPC   C1221368   2.636   2.121   5.910 -0.6613  0.1601  0.4512
  186SLPC  H12A21369   2.666   2.167   5.817  0.4313  0.7319  1.0650
  186SLPC  H12B21370   2.700   2.166   5.985  1.1022  0.5986 -1.2435
  186SLPC   C1121371   2.486   2.160   5.936  0.6664  0.0149  0.2153
  186SLPC  H11A21372   2.419   2.119   5.857  3.1826 -2.3048 -0.8869
  186SLPC  H11B21373   2.481   2.270   5.920  2.8342  0.0876 -0.3853
  186SLPC     P21374   2.466   2.215   6.190  0.0315 -0.0046 -0.2199
  186SLPC   O1321375   2.563   2.327   6.162 -0.0825 -0.2016  0.3152
  186SLPC   O1421376   2.335   2.253   6.245  0.0262  0.2410 -0.4976
  186SLPC   O1221377   2.438   2.120   6.064 -0.4185  0.2850  0.6796
  186SLPC   O1121378   2.523   2.104   6.286  0.0339 -0.7661  0.6956
  186SLPC    C121379   2.457   1.987   6.314 -0.1237  0.4165 -0.7933
  186SLPC    HA21380   2.355   1.997   6.357 -0.0505 -2.0404  0.1507
  186SLPC    HB21381   2.441   1.922   6.225  1.1212  2.8673 -2.9261
  186SLPC    C221382   2.541   1.916   6.431 -0.3771  0.5772  0.2662
  186SLPC    HS21383   2.476   1.844   6.485  1.1548 -0.4925  0.7329
  186SLPC   O2121384   2.593   2.007   6.527  0.4825 -0.6033  0.0664
  186SLPC   C2121385   2.509   2.058   6.604  0.6800 -0.0969 -0.4622
  186SLPC   O2221386   2.388   2.025   6.620  0.0001  0.6648 -0.4964
  186SLPC   C2221387   2.571   2.168   6.678 -0.1377 -0.2253 -0.2747
  186SLPC   H2R21388   2.593   2.257   6.614 -2.0416 -0.3042 -1.1148
  186SLPC   H2S21389   2.506   2.198   6.763 -1.5090 -3.1141 -0.1907
  186SLPC    C321390   2.661   1.827   6.380  0.9096  0.0544 -0.3933
  186SLPC    HX21391   2.728   1.896   6.325  2.2686 -2.9601 -2.8391
  186SLPC    HY21392   2.631   1.749   6.307  1.5420 -2.6654  2.0374
  186SLPC   O3121393   2.728   1.764   6.495 -0.4073 -0.1776  0.6735
  186SLPC   C3121394   2.687   1.650   6.543  0.1935 -0.4177  0.6081
  186SLPC   O3221395   2.584   1.590   6.512 -0.5291  0.0505  0.0225
  186SLPC   C3221396   2.780   1.603   6.659  0.4908 -0.0014  0.0776
  186SLPC   H2X21397   2.884   1.610   6.621  0.7481  1.8520  1.0317
  186SLPC   H2Y21398   2.748   1.498   6.676 -3.0159  0.9367  0.0594
  186SLPC   C2321399   2.699   2.125   6.748 -0.1636 -0.5573 -0.1530
  186SLPC   H3R21400   2.783   2.132   6.675 -0.2044 -0.7691 -0.2209
  186SLPC   H3S21401   2.697   2.020   6.783 -1.1377  0.0864  1.8485
  186SLPC   C2421402   2.738   2.209   6.868  0.1225 -0.3465  0.3124
  186SLPC   H4R21403   2.648   2.208   6.932 -1.3957  1.6266 -1.6166
  186SLPC   H4S21404   2.760   2.307   6.821  1.9209 -1.3266 -1.0356
  186SLPC   C2521405   2.855   2.156   6.937 -0.2243  0.0752  0.5879
  186SLPC   H5R21406   2.943   2.156   6.869 -0.8882 -1.5642 -0.3449
  186SLPC   H5S21407   2.825   2.053   6.968 -0.5152  0.6374  2.3004
  186SLPC   C2621408   2.887   2.235   7.066  0.1563 -0.1101 -0.4977
  186SLPC   H6R21409   2.785   2.253   7.107 -0.2173 -1.5762 -0.7202
  186SLPC   H6S21410   2.925   2.338   7.051  0.9695 -0.0965  1.4231
  186SLPC   C2721411   2.967   2.164   7.179 -0.0691 -0.1782 -0.4218
  186SLPC   H7R21412   3.066   2.145   7.132  0.8365 -0.3834  1.4628
  186SLPC   H7S21413   2.930   2.062   7.200 -1.3532  0.9484  3.6709
  186SLPC   C2821414   2.986   2.246   7.303  0.5372  0.5533 -0.0911
  186SLPC   H8R21415   2.902   2.217   7.369  1.8598 -0.5170  1.2154
  186SLPC   H8S21416   2.976   2.353   7.274  0.0341  1.0843  1.8700
  186SLPC   C2921417   3.118   2.213   7.369  0.6920 -0.1376 -0.0561
  186SLPC   H9R21418   3.201   2.227   7.297  0.3088  0.6348 -0.3524
  186SLPC  C21021419   3.144   2.175   7.492  0.3279 -0.0312 -0.5457
  186SLPC  H10R21420   3.246   2.153   7.527  0.4493 -0.8612 -1.4177
  186SLPC  C21121421   3.031   2.172   7.596 -0.5531  0.6367  0.6259
  186SLPC  H11R21422   2.937   2.138   7.547 -1.0183  2.7541 -0.0623
  186SLPC  H11S21423   3.010   2.273   7.636 -1.9863  1.2568 -1.5085
  186SLPC  C21221424   3.069   2.076   7.706 -0.7866 -0.3262 -0.5006
  186SLPC  H12R21425   3.055   1.970   7.678  1.2287 -0.0310 -2.9937
  186SLPC  C21321426   3.124   2.106   7.824  0.1071 -0.0914 -0.3169
  186SLPC  H13R21427   3.120   2.027   7.900 -5.0062 -0.0083 -0.1800
  186SLPC  C21421428   3.156   2.245   7.874 -0.6076  0.5643 -0.1686
  186SLPC  H14R21429   3.146   2.321   7.794  0.6008 -0.1920 -1.0589
  186SLPC  H14S21430   3.264   2.259   7.894 -0.9319  0.7280  1.6637
  186SLPC  C21521431   3.076   2.303   7.998  0.1103 -0.4356  1.0542
  186SLPC  H15R21432   3.131   2.391   8.036  0.4592 -0.0797 -0.2252
  186SLPC  H15S21433   3.063   2.221   8.072  0.1166  0.2259  1.7962
  186SLPC  C21621434   2.927   2.337   7.961  0.7240 -0.2368 -0.3225
  186SLPC  H16R21435   2.888   2.238   7.930  0.5882 -0.5380  0.7741
  186SLPC  H16S21436   2.908   2.405   7.876  1.3879 -1.8769 -1.8537
  186SLPC  C21721437   2.846   2.394   8.083 -0.3915  0.4738  0.1240
  186SLPC  H17R21438   2.899   2.474   8.139 -0.7381 -0.2566  1.5267
  186SLPC  H17S21439   2.810   2.320   8.157 -1.0676 -0.5813 -1.2159
  186SLPC  C21821440   2.722   2.474   8.030  0.0446 -0.1655  0.1301
  186SLPC  H18R21441   2.752   2.538   7.944 -1.2741 -0.3147 -0.4742
  186SLPC  H18S21442   2.676   2.533   8.111 -2.4466  0.3245 -1.5279
  186SLPC  H18T21443   2.648   2.396   8.002  1.1474 -1.7775  1.4887
  186SLPC   C3321444   2.766   1.697   6.782 -0.0039  0.3237 -0.1344
  186SLPC   H3X21445   2.768   1.797   6.733  0.5171 -0.5836 -2.0863
  186SLPC   H3Y21446   2.840   1.692   6.864  1.1447  0.2602 -1.1461
  186SLPC   C3421447   2.625   1.689   6.829 -0.2012  0.2042 -1.1700
  186SLPC   H4X21448   2.592   1.585   6.851 -1.2570  0.3938 -1.8083
  186SLPC   H4Y21449   2.561   1.744   6.757 -0.7978 -0.2362 -0.9855
  186SLPC   C3521450   2.614   1.759   6.972 -0.2222 -0.0738 -0.0209
  186SLPC   H5X21451   2.508   1.766   7.004  0.1484  2.4093  0.8136
  186SLPC   H5Y21452   2.643   1.864   6.955 -1.6421  0.6339  1.6395
  186SLPC   C3621453   2.701   1.694   7.082 -0.0606 -1.0673 -0.3551
  186SLPC   H6X21454   2.805   1.715   7.050 -0.1898  3.5621  1.3951
  186SLPC   H6Y21455   2.683   1.585   7.087 -0.7350 -0.9068  2.2434
  186SLPC   C3721456   2.681   1.739   7.224  0.2163 -0.6191  0.2309
  186SLPC   H7X21457   2.771   1.708   7.282 -1.2646 -0.8336  2.5767
  186SLPC   H7Y21458   2.594   1.688   7.272 -0.5349 -0.0993 -0.5404
  186SLPC   C3821459   2.648   1.886   7.244  0.2105  0.0204 -0.6160
  186SLPC   H8X21460   2.568   1.901   7.169 -0.3233 -1.6645 -0.4400
  186SLPC   H8Y21461   2.732   1.956   7.227 -1.3972  1.9922 -0.8053
  186SLPC   C3921462   2.590   1.928   7.382  0.5595  0.6300  0.0958
  186SLPC   H9X21463   2.502   1.862   7.397  0.9834 -0.6588 -2.5018
  186SLPC   H9Y21464   2.554   2.032   7.368  0.1270  0.3615 -0.8558
  186SLPC  C31021465   2.674   1.915   7.504  0.0312  0.3229 -0.1053
  186SLPC  H10X21466   2.772   1.967   7.503  0.5861 -0.7132 -0.4647
  186SLPC  H10Y21467   2.706   1.809   7.509 -2.1182 -0.4439 -1.1401
  186SLPC  C31121468   2.600   1.938   7.636  0.1563 -0.0979 -0.5967
  186SLPC  H11X21469   2.499   1.891   7.640  1.0824 -2.3672 -2.3255
  186SLPC  H11Y21470   2.575   2.047   7.634 -0.6746 -0.2398  0.6228
  186SLPC  C31221471   2.675   1.895   7.764  0.9827 -0.3309 -0.0760
  186SLPC  H12X21472   2.776   1.942   7.769  0.3812  0.9067  1.9380
  186SLPC  H12Y21473   2.684   1.786   7.749 -3.6636 -0.6335 -2.4351
  186SLPC  C31321474   2.603   1.911   7.898  0.3831 -0.3392 -1.0687
  186SLPC  H13X21475   2.655   1.856   7.979 -0.8960  0.2519  0.2032
  186SLPC  H13Y21476   2.502   1.866   7.903 -0.1619  0.9823  1.1373
  186SLPC  C31421477   2.589   2.051   7.943 -0.7826 -0.3499  0.0123
  186SLPC  H14X21478   2.507   2.096   7.881 -0.5180 -0.6371 -0.5482
  186SLPC  H14Y21479   2.683   2.103   7.915  0.9715 -2.6791  1.2590
  186SLPC  C31521480   2.571   2.082   8.093 -0.5667  0.5857  0.4576
  186SLPC  H15X21481   2.476   2.036   8.126 -0.8942  1.1840  0.3558
  186SLPC  H15Y21482   2.571   2.192   8.107 -1.6961  1.9167 -6.3753
  186SLPC  C31621483   2.684   2.027   8.174 -0.2981 -0.0784 -0.7107
  186SLPC  H16X21484   2.785   2.038   8.129 -0.0004 -1.8369 -0.5465
  186SLPC  H16Y21485   2.682   1.916   8.178 -0.1887 -0.0711 -0.4379
  186SLPC  C31721486   2.677   2.069   8.325  0.2430 -0.6583 -0.2468
  186SLPC  H17X21487   2.667   2.179   8.334  1.0729 -0.6101  0.2515
  186SLPC  H17Y21488   2.776   2.050   8.372  0.3168 -1.1035 -0.5694
  186SLPC  C31821489   2.565   2.007   8.406 -0.2419 -0.3294 -0.4268
  186SLPC  H18X21490   2.546   1.898   8.393  0.5026 -0.4254 -0.7225
  186SLPC  H18Y21491   2.470   2.061   8.384 -1.0273 -0.5839  2.0655
  186SLPC  H18Z21492   2.575   2.011   8.516 -2.7568  1.9534 -0.1747
  187SLPC     N21493   3.134   4.537   6.432  0.0008 -0.1867 -0.5128
  187SLPC   C1321494   3.234   4.531   6.545  0.5763  0.0436  0.9721
  187SLPC  H13A21495   3.186   4.571   6.633  0.9021  0.7327  0.8440
  187SLPC  H13B21496   3.273   4.432   6.562  0.0771 -0.4898 -0.7790
  187SLPC  H13C21497   3.321   4.590   6.521  0.3088  0.1215  0.1433
  187SLPC   C1421498   3.016   4.457   6.460 -0.2405 -0.1268  0.1683
  187SLPC  H14A21499   2.973   4.510   6.544 -0.5598 -2.9769  1.9373
  187SLPC  H14B21500   2.962   4.462   6.367 -0.1617  0.9717  0.1672
  187SLPC  H14C21501   3.040   4.358   6.494 -0.4749  0.2839  1.5874
  187SLPC   C1521502   3.206   4.478   6.308  0.8115 -0.1585 -0.8657
  187SLPC  H15A21503   3.214   4.371   6.303  0.8986 -0.2538  0.7437
  187SLPC  H15B21504   3.140   4.498   6.225  1.2944  1.3530 -0.9213
  187SLPC  H15C21505   3.303   4.523   6.297  0.3882  0.7029 -1.1533
  187SLPC   C1221506   3.093   4.677   6.414 -0.2462  0.0393 -0.4638
  187SLPC  H12A21507   3.013   4.676   6.342 -0.6001 -1.3697 -0.0859
  187SLPC  H12B21508   3.179   4.731   6.379 -0.0093  0.0636  0.1423
  187SLPC   C1121509   3.040   4.752   6.537 -0.7758 -1.2427 -0.7208
  187SLPC  H11A21510   3.035   4.857   6.501  0.9941 -0.1268  1.9881
  187SLPC  H11B21511   3.123   4.778   6.606 -1.0238 -0.0110 -0.8780
  187SLPC     P21512   2.784   4.742   6.535 -0.3929  0.0634 -0.0264
  187SLPC   O1321513   2.803   4.744   6.393  0.6394  0.1151 -0.6381
  187SLPC   O1421514   2.677   4.655   6.584 -0.0675  0.1252 -0.2245
  187SLPC   O1221515   2.923   4.695   6.597  0.1532  0.1071  0.2918
  187SLPC   O1121516   2.760   4.886   6.582 -0.1680 -0.4475  0.6316
  187SLPC    C121517   2.789   4.910   6.721 -0.0028 -0.0330  0.3382
  187SLPC    HA21518   2.739   4.843   6.795 -1.8886  1.0181  0.0613
  187SLPC    HB21519   2.898   4.928   6.724 -0.1222  1.7655 -2.8060
  187SLPC    C221520   2.726   5.038   6.772  0.2717 -0.2612 -0.5019
  187SLPC    HS21521   2.795   5.121   6.742  1.8294 -1.3570 -0.0907
  187SLPC   O2121522   2.705   5.028   6.918 -0.1057 -0.4069 -0.1002
  187SLPC   C2121523   2.741   5.134   6.986  0.2457  0.1369 -0.1773
  187SLPC   O2221524   2.759   5.244   6.944 -0.2025  0.1066 -0.0217
  187SLPC   C2221525   2.744   5.102   7.137 -0.3811 -0.9009  0.2608
  187SLPC   H2R21526   2.803   5.010   7.158 -2.1008 -1.7830  1.4443
  187SLPC   H2S21527   2.794   5.183   7.195  0.4713 -0.9857 -0.3332
  187SLPC    C321528   2.588   5.072   6.697  0.2399 -0.5980 -0.0599
  187SLPC    HX21529   2.527   4.981   6.681  0.3039 -0.5953 -0.3214
  187SLPC    HY21530   2.609   5.099   6.591  1.3715  0.4236  0.4037
  187SLPC   O3121531   2.519   5.181   6.749 -0.3556 -0.0433 -0.5462
  187SLPC   C3121532   2.394   5.184   6.718 -0.2113 -0.3268 -0.2854
  187SLPC   O3221533   2.333   5.117   6.634  0.0440 -0.3260 -0.2094
  187SLPC   C3221534   2.332   5.305   6.799 -0.0343  0.3003  0.1184
  187SLPC   H2X21535   2.389   5.399   6.782  1.4947 -0.1777  2.1761
  187SLPC   H2Y21536   2.345   5.276   6.905  1.3381 -1.7778 -0.5424
  187SLPC   C2321537   2.599   5.083   7.191  0.3338 -0.1623  0.3315
  187SLPC   H3R21538   2.569   4.979   7.162 -0.7634  0.5562 -1.3134
  187SLPC   H3S21539   2.526   5.140   7.129  0.0903  1.0746  1.7008
  187SLPC   C2421540   2.574   5.119   7.338 -0.6624  0.1852 -0.5821
  187SLPC   H4R21541   2.465   5.118   7.361 -0.4475 -0.1971  0.4502
  187SLPC   H4S21542   2.611   5.223   7.355 -1.8318  0.3308  1.2779
  187SLPC   C2521543   2.648   5.023   7.438 -0.0548  0.3755  0.1468
  187SLPC   H5R21544   2.758   5.035   7.428 -0.3724  3.9824 -0.4832
  187SLPC   H5S21545   2.612   4.923   7.407  0.2789  0.0656  0.7373
  187SLPC   C2621546   2.605   5.055   7.580  0.7558  0.6914 -0.1239
  187SLPC   H6R21547   2.504   5.101   7.575  1.1865  1.5541 -1.2991
  187SLPC   H6S21548   2.659   5.139   7.629  0.2614  1.2471 -0.5190
  187SLPC   C2721549   2.605   4.942   7.679 -0.5472 -0.2486  0.8456
  187SLPC   H7R21550   2.709   4.904   7.693  0.2055  0.9199 -1.1941
  187SLPC   H7S21551   2.548   4.860   7.630 -0.2674 -1.0123  1.7605
  187SLPC   C2821552   2.556   4.969   7.819  0.2724 -0.0204 -0.2429
  187SLPC   H8R21553   2.540   4.876   7.877  3.4598 -0.1486  0.6059
  187SLPC   H8S21554   2.457   5.018   7.817  1.3474  2.2879 -0.0380
  187SLPC   C2921555   2.642   5.072   7.899  0.3478  0.9475 -0.7863
  187SLPC   H9R21556   2.639   5.177   7.865 -1.5626  1.1896  0.0027
  187SLPC  C21021557   2.698   5.047   8.016  0.7027  0.2421 -0.1723
  187SLPC  H10R21558   2.753   5.132   8.058 -0.9537  1.7846 -1.0137
  187SLPC  C21121559   2.697   4.921   8.095 -0.2761  0.1584  1.0212
  187SLPC  H11R21560   2.789   4.928   8.157  0.3709  0.0544  0.0811
  187SLPC  H11S21561   2.706   4.838   8.023 -0.2618  0.2860  0.8753
  187SLPC  C21221562   2.573   4.904   8.185  0.7761  0.1896  1.0145
  187SLPC  H12R21563   2.511   4.987   8.222 -1.1808 -1.6012  1.9565
  187SLPC  C21321564   2.545   4.782   8.233  0.4778  0.3194 -0.0113
  187SLPC  H13R21565   2.459   4.773   8.302 -0.4120 -2.1859 -1.3256
  187SLPC  C21421566   2.625   4.652   8.211  0.5661  0.0068 -0.3029
  187SLPC  H14R21567   2.690   4.654   8.122 -0.1443  1.1894 -0.8243
  187SLPC  H14S21568   2.569   4.556   8.201  1.0985 -0.7660  2.8340
  187SLPC  C21521569   2.710   4.634   8.341  0.4674 -0.4000  0.5853
  187SLPC  H15R21570   2.767   4.728   8.359 -2.3984  1.7626 -0.7645
  187SLPC  H15S21571   2.781   4.553   8.315 -1.1353 -1.4343 -0.7595
  187SLPC  C21621572   2.638   4.600   8.474  0.5943 -0.2373  0.0799
  187SLPC  H16R21573   2.572   4.512   8.456  1.3510 -0.7533 -0.2236
  187SLPC  H16S21574   2.571   4.685   8.500  2.1978  0.8921  0.6598
  187SLPC  C21721575   2.735   4.575   8.591  0.2341  0.8346  0.7611
  187SLPC  H17R21576   2.835   4.575   8.543 -0.6970 -0.0263 -1.3064
  187SLPC  H17S21577   2.711   4.478   8.640 -2.6710  0.4463 -1.1671
  187SLPC  C21821578   2.738   4.678   8.697 -0.2921 -0.2434  0.2582
  187SLPC  H18R21579   2.767   4.781   8.668 -2.5574  0.1631 -0.7396
  187SLPC  H18S21580   2.813   4.657   8.777 -0.0815  0.5525  0.2881
  187SLPC  H18T21581   2.641   4.684   8.751  0.6971 -2.1230  2.4102
  187SLPC   C3321582   2.187   5.346   6.775 -0.3934  0.3390 -0.5769
  187SLPC   H3X21583   2.155   5.320   6.672  1.9701  2.0853 -1.8590
  187SLPC   H3Y21584   2.169   5.455   6.776  1.0558  0.6061 -1.2061
  187SLPC   C3421585   2.086   5.296   6.874 -0.8281  0.1958  0.8967
  187SLPC   H4X21586   2.109   5.189   6.894  1.0722  0.8851  2.7316
  187SLPC   H4Y21587   1.981   5.308   6.838 -0.1960 -0.5547 -1.3748
  187SLPC   C3521588   2.096   5.367   7.003  0.1072  0.3991 -0.2587
  187SLPC   H5X21589   2.108   5.477   7.000  0.1790  0.3715 -1.0760
  187SLPC   H5Y21590   2.190   5.336   7.055 -0.7004  1.4275  1.9456
  187SLPC   C3621591   1.986   5.339   7.108  0.1633  0.0088  0.1528
  187SLPC   H6X21592   1.957   5.234   7.126 -1.4973  0.8281  2.8663
  187SLPC   H6Y21593   1.887   5.380   7.081  0.2877 -0.2068 -0.6458
  187SLPC   C3721594   2.026   5.401   7.243 -0.1336  0.0755  0.2485
  187SLPC   H7X21595   2.134   5.376   7.253  0.3091  1.6158 -0.3835
  187SLPC   H7Y21596   2.020   5.512   7.237  1.3868  0.1778  0.0170
  187SLPC   C3821597   1.945   5.354   7.363  0.1864 -0.1460 -0.5406
  187SLPC   H8X21598   1.952   5.243   7.373  0.0575 -0.0458  0.8296
  187SLPC   H8Y21599   1.839   5.382   7.346 -1.7179 -5.6332  0.2117
  187SLPC   C3921600   1.995   5.420   7.493 -0.5312 -0.2925  0.1510
  187SLPC   H9X21601   1.986   5.531   7.501  0.8985 -0.1490 -0.0425
  187SLPC   H9Y21602   2.099   5.382   7.502 -0.6419 -0.8780 -0.8611
  187SLPC  C31021603   1.931   5.354   7.624  0.2310 -0.2884  0.0470
  187SLPC  H10X21604   1.945   5.244   7.615  1.4560 -0.0831 -0.9047
  187SLPC  H10Y21605   1.823   5.378   7.629  0.4784  0.7193  0.8309
  187SLPC  C31121606   2.005   5.400   7.747 -0.5909  0.1596  0.8123
  187SLPC  H11X21607   1.986   5.510   7.752 -2.3509 -0.0614 -0.2542
  187SLPC  H11Y21608   2.116   5.397   7.752 -0.5858  1.3485  4.7060
  187SLPC  C31221609   1.943   5.356   7.875 -0.0982 -0.1857  0.1915
  187SLPC  H12X21610   1.952   5.245   7.885 -0.1277 -0.4827 -2.3733
  187SLPC  H12Y21611   1.837   5.388   7.886  0.3853  2.5600 -1.9143
  187SLPC  C31321612   2.009   5.422   7.999 -0.1381  0.4048 -1.1306
  187SLPC  H13X21613   1.992   5.530   7.980  1.6618  1.1377  1.0192
  187SLPC  H13Y21614   2.118   5.402   7.999 -0.2129 -0.1614  0.4612
  187SLPC  C31421615   1.944   5.372   8.127 -0.1031 -0.3269 -0.0287
  187SLPC  H14X21616   1.963   5.263   8.136  0.3687 -0.3475 -1.1187
  187SLPC  H14Y21617   1.836   5.388   8.104  0.5055  0.1955 -3.0495
  187SLPC  C31521618   1.994   5.439   8.256 -0.5725  0.4563 -0.3821
  187SLPC  H15X21619   1.922   5.425   8.340  0.3563  0.9430  0.5094
  187SLPC  H15Y21620   2.001   5.548   8.232  1.5055  0.5230  0.3737
  187SLPC  C31621621   2.135   5.389   8.295  0.2891 -0.3310  0.3418
  187SLPC  H16X21622   2.175   5.456   8.374 -1.9588 -1.4008  2.5176
  187SLPC  H16Y21623   2.200   5.398   8.205  0.0708  1.2491  0.3082
  187SLPC  C31721624   2.130   5.250   8.350 -0.0361  0.7379 -0.7059
  187SLPC  H17X21625   2.089   5.184   8.270  1.0279  0.3323 -0.9229
  187SLPC  H17Y21626   2.064   5.239   8.439  1.6182  0.1290  0.4983
  187SLPC  C31821627   2.267   5.199   8.388 -0.5321  0.2281  0.5883
  187SLPC  H18X21628   2.332   5.179   8.300  0.6654  1.6596  1.1182
  187SLPC  H18Y21629   2.267   5.115   8.461  3.8354  0.4968  1.1725
  187SLPC  H18Z21630   2.324   5.277   8.443 -0.7294 -0.2269  1.4733
  188SLPC     N21631   4.755   5.489   6.093  0.5658 -1.0262  0.0648
  188SLPC   C1321632   4.691   5.415   5.980  0.3877  0.0827 -0.1550
  188SLPC  H13A21633   4.764   5.378   5.909 -0.9089 -0.7511 -1.0994
  188SLPC  H13B21634   4.633   5.333   6.020  0.7423 -1.1730 -2.0989
  188SLPC  H13C21635   4.630   5.482   5.921  0.7530  0.7068  0.1707
  188SLPC   C1421636   4.655   5.568   6.168 -0.3100 -0.5535 -0.4701
  188SLPC  H14A21637   4.610   5.640   6.101 -1.3090 -1.1589 -0.4855
  188SLPC  H14B21638   4.581   5.505   6.216  2.2841 -2.4106  1.3197
  188SLPC  H14C21639   4.695   5.617   6.255  1.0144 -1.7513 -0.3606
  188SLPC   C1521640   4.839   5.594   6.031 -0.1229 -0.2458 -0.2719
  188SLPC  H15A21641   4.916   5.562   5.962 -0.8200 -1.5790 -0.4772
  188SLPC  H15B21642   4.775   5.659   5.972 -0.7865 -2.0264 -1.6256
  188SLPC  H15C21643   4.891   5.652   6.105  1.7910 -0.2352 -1.5714
  188SLPC   C1221644   4.840   5.399   6.188  0.3599 -0.4960  0.5371
  188SLPC  H12A21645   4.910   5.341   6.131  0.9311  1.1776 -0.5374
  188SLPC  H12B21646   4.779   5.326   6.239 -0.8145 -0.3521 -0.6151
  188SLPC   C1121647   4.925   5.465   6.301  0.6623  0.0257  0.3104
  188SLPC  H11A21648   4.942   5.397   6.386 -0.4850 -0.6129  0.0450
  188SLPC  H11B21649   4.861   5.546   6.342  0.1400  0.2725 -0.9208
  188SLPC     P21650   5.170   5.419   6.230  0.0083 -0.1376  0.4243
  188SLPC   O1321651   5.132   5.305   6.137  0.3005 -0.6108 -0.2125
  188SLPC   O1421652   5.286   5.497   6.183 -0.0161 -0.2006 -0.5363
  188SLPC   O1221653   5.045   5.516   6.251  0.2294  0.5807  0.4880
  188SLPC   O1121654   5.206   5.345   6.372  0.6963 -0.2927 -0.1213
  188SLPC    C121655   5.295   5.408   6.468  0.3362 -0.4680 -0.2668
  188SLPC    HA21656   5.365   5.331   6.507  0.8467  1.4571  2.9594
  188SLPC    HB21657   5.367   5.480   6.424  0.1732 -1.3570 -2.0912
  188SLPC    C221658   5.219   5.485   6.586  0.5192 -0.1123  0.1123
  188SLPC    HS21659   5.297   5.502   6.663 -0.4221  0.5691  0.9325
  188SLPC   O2121660   5.106   5.408   6.624  0.3920  0.1274  0.2223
  188SLPC   C2121661   5.159   5.298   6.686  0.6242 -1.3192 -0.5738
  188SLPC   O2221662   5.275   5.274   6.707  0.2886 -0.0362  0.4480
  188SLPC   C2221663   5.034   5.209   6.720 -1.4005 -0.4592 -0.8582
  188SLPC   H2R21664   4.942   5.265   6.749 -1.3912 -0.4786 -0.7918
  188SLPC   H2S21665   5.001   5.164   6.624  0.3566  1.7887 -2.6248
  188SLPC    C321666   5.178   5.626   6.547  0.5116  0.1827  0.1720
  188SLPC    HX21667   5.096   5.626   6.472  0.9729  2.4973 -0.4030
  188SLPC    HY21668   5.257   5.687   6.498  1.1433 -0.1097  0.8081
  188SLPC   O3121669   5.128   5.709   6.660  0.6353 -0.3595  0.4905
  188SLPC   C3121670   5.066   5.823   6.615 -0.2135  0.5909  0.2004
  188SLPC   O3221671   5.033   5.844   6.502  0.0880 -0.0541  0.0546
  188SLPC   C3221672   5.040   5.914   6.731 -0.0253  0.3288  0.2885
  188SLPC   H2X21673   5.103   6.005   6.729 -2.0398  1.7659 -0.4896
  188SLPC   H2Y21674   5.065   5.857   6.823  0.8650 -0.4334 -0.4080
  188SLPC   C2321675   5.067   5.097   6.825  0.3464 -0.1861 -0.0333
  188SLPC   H3R21676   5.162   5.043   6.806  0.1414 -1.0059  1.2201
  188SLPC   H3S21677   4.982   5.030   6.798 -0.7515  0.6353  1.3093
  188SLPC   C2421678   5.057   5.151   6.964 -0.6377 -0.6456  0.0613
  188SLPC   H4R21679   4.961   5.200   6.994 -1.9947 -4.0370  1.8779
  188SLPC   H4S21680   5.147   5.215   6.980 -1.3441  0.8585 -1.6557
  188SLPC   C2521681   5.065   5.041   7.069 -0.1060 -0.1489 -0.4114
  188SLPC   H5R21682   5.158   4.981   7.067  1.0711  1.5535  0.5728
  188SLPC   H5S21683   4.981   4.972   7.043  0.9475 -1.1063 -1.3876
  188SLPC   C2621684   5.052   5.088   7.216  0.0524 -0.2846 -0.2639
  188SLPC   H6R21685   4.997   5.011   7.274  2.3692 -1.0640  1.0124
  188SLPC   H6S21686   4.994   5.183   7.216  0.9236  0.3191 -2.8337
  188SLPC   C2721687   5.178   5.107   7.296 -0.0542  0.0152  0.2743
  188SLPC   H7R21688   5.213   5.204   7.253 -0.6092 -0.0645 -0.3715
  188SLPC   H7S21689   5.259   5.034   7.276  0.1332  0.2715  0.0985
  188SLPC   C2821690   5.163   5.116   7.450  0.2669 -0.0269  0.2480
  188SLPC   H8R21691   5.264   5.129   7.492 -0.4818 -0.4876  2.2915
  188SLPC   H8S21692   5.119   5.018   7.479 -0.0979  0.0560 -0.0156
  188SLPC   C2921693   5.064   5.211   7.495  0.5540 -0.8519  0.4623
  188SLPC   H9R21694   5.057   5.292   7.420  3.0673 -1.0928 -0.1235
  188SLPC  C21021695   5.001   5.217   7.613  0.1636 -0.4257 -0.7009
  188SLPC  H10R21696   4.914   5.283   7.630  0.6760  0.1821 -0.3781
  188SLPC  C21121697   5.018   5.125   7.730  0.2904 -0.0932  0.5221
  188SLPC  H11R21698   5.080   5.035   7.713  2.1761  1.3274 -0.5734
  188SLPC  H11S21699   4.917   5.088   7.757 -1.5403  1.6214 -3.1873
  188SLPC  C21221700   5.081   5.197   7.849  0.2403  0.6875 -0.5291
  188SLPC  H12R21701   5.155   5.273   7.820 -0.0748  0.4941 -1.9020
  188SLPC  C21321702   5.053   5.178   7.982 -0.5812  0.1569 -0.1813
  188SLPC  H13R21703   5.090   5.254   8.052 -0.6339  2.2116 -2.2319
  188SLPC  C21421704   4.952   5.083   8.033  0.3376  0.5038 -0.6276
  188SLPC  H14R21705   4.890   5.064   7.943 -0.2296  1.3735 -0.4298
  188SLPC  H14S21706   4.894   5.128   8.116 -0.9290 -0.8036 -0.7696
  188SLPC  C21521707   5.007   4.946   8.082 -0.2969 -0.0070  0.3428
  188SLPC  H15R21708   5.090   4.919   8.013 -2.2348 -1.2085 -1.6716
  188SLPC  H15S21709   4.927   4.869   8.073 -1.1947  1.0577 -1.4311
  188SLPC  C21621710   5.059   4.948   8.225  0.1577  0.2599  0.1814
  188SLPC  H16R21711   4.970   4.976   8.285  0.5646 -0.4707  1.1509
  188SLPC  H16S21712   5.134   5.029   8.235  0.8286 -0.0836 -1.6692
  188SLPC  C21721713   5.120   4.814   8.263 -0.1016 -0.3546  0.6238
  188SLPC  H17R21714   5.041   4.737   8.273 -0.7888  0.2357 -0.0880
  188SLPC  H17S21715   5.167   4.835   8.361  1.8800 -0.0727 -0.3200
  188SLPC  C21821716   5.231   4.767   8.161  0.4117 -0.2426 -0.1956
  188SLPC  H18R21717   5.192   4.748   8.059 -1.3574 -1.2569  0.6376
  188SLPC  H18S21718   5.279   4.679   8.208  1.4864  0.2913 -0.2461
  188SLPC  H18T21719   5.312   4.844   8.158  1.6590 -1.4509 -4.0748
  188SLPC   C3321720   4.882   5.936   6.762 -0.4514  0.6361  1.0226
  188SLPC   H3X21721   4.820   5.846   6.740 -0.6778  1.0437 -0.0789
  188SLPC   H3Y21722   4.846   6.005   6.683 -0.8682  0.1340  0.7609
  188SLPC   C3421723   4.862   5.989   6.906  0.1057 -0.5458  0.1598
  188SLPC   H4X21724   4.902   6.092   6.905  2.9069 -1.5371  0.4083
  188SLPC   H4Y21725   4.920   5.929   6.980 -0.4939  0.0576  1.1276
  188SLPC   C3521726   4.715   6.004   6.939  0.2976  0.2433 -0.1440
  188SLPC   H5X21727   4.672   5.904   6.961  0.3282  0.0426 -0.9619
  188SLPC   H5Y21728   4.660   6.050   6.854  2.0548  0.0080 -1.4865
  188SLPC   C3621729   4.686   6.090   7.069  0.1275  0.7128  0.7520
  188SLPC   H6X21730   4.577   6.110   7.057  0.3401  1.2243 -0.4539
  188SLPC   H6Y21731   4.750   6.179   7.050  1.5739 -0.7057 -1.3651
  188SLPC   C3721732   4.702   6.020   7.198 -0.5306 -0.2017  0.0835
  188SLPC   H7X21733   4.811   5.996   7.193 -0.6312 -0.3665 -2.2434
  188SLPC   H7Y21734   4.643   5.926   7.199 -0.6351 -0.1354  0.2831
  188SLPC   C3821735   4.686   6.099   7.321 -0.5834  0.0701  0.1174
  188SLPC   H8X21736   4.582   6.134   7.336  0.0787  1.9863  0.5567
  188SLPC   H8Y21737   4.748   6.190   7.312 -0.0597 -0.3025 -0.0987
  188SLPC   C3921738   4.736   6.016   7.438 -0.8095  0.2523 -0.2927
  188SLPC   H9X21739   4.843   5.990   7.420 -1.0453 -2.0979  1.1856
  188SLPC   H9Y21740   4.681   5.919   7.432 -2.8360  1.2817  0.6244
  188SLPC  C31021741   4.710   6.099   7.564 -0.7149 -0.3257  0.2507
  188SLPC  H10X21742   4.620   6.163   7.554 -0.4294  0.1528  0.7285
  188SLPC  H10Y21743   4.796   6.167   7.580 -0.0569 -1.0409 -0.1409
  188SLPC  C31121744   4.685   6.008   7.684 -0.1122 -0.6006  0.0049
  188SLPC  H11X21745   4.776   5.946   7.700  2.1877  2.9502  2.0036
  188SLPC  H11Y21746   4.591   5.951   7.666 -0.7146 -0.4540  2.4081
  188SLPC  C31221747   4.682   6.083   7.818  0.7584  0.1557 -0.7015
  188SLPC  H12X21748   4.584   6.135   7.823  1.1925  0.9412 -0.1750
  188SLPC  H12Y21749   4.773   6.147   7.813  0.3657  0.8076  0.2304
  188SLPC  C31321750   4.693   6.001   7.941 -0.9658 -0.1461 -0.3486
  188SLPC  H13X21751   4.775   5.927   7.939  0.5039  1.3489  1.1306
  188SLPC  H13Y21752   4.600   5.942   7.957 -0.7155 -0.6030 -0.5682
  188SLPC  C31421753   4.711   6.088   8.065 -0.4963 -0.4628 -0.7254
  188SLPC  H14X21754   4.609   6.128   8.086 -0.9018 -1.7004 -0.2517
  188SLPC  H14Y21755   4.783   6.172   8.049 -0.0187 -0.5824  0.6764
  188SLPC  C31521756   4.750   6.007   8.199  0.3031 -0.7738 -1.0477
  188SLPC  H15X21757   4.860   6.006   8.209  0.2630  0.8450 -0.2025
  188SLPC  H15Y21758   4.713   5.902   8.199  0.5339 -0.9146  1.3200
  188SLPC  C31621759   4.717   6.080   8.328  0.4047  0.1312  0.4298
  188SLPC  H16X21760   4.608   6.069   8.349  0.3498 -0.2408 -0.0133
  188SLPC  H16Y21761   4.748   6.184   8.308  2.6688 -0.3518  1.1784
  188SLPC  C31721762   4.801   6.035   8.452 -0.4333  0.4676 -1.0319
  188SLPC  H17X21763   4.909   6.057   8.437 -0.3709  1.1131  0.2787
  188SLPC  H17Y21764   4.792   5.925   8.463 -0.8351  0.7277  2.0490
  188SLPC  C31821765   4.758   6.094   8.578  0.0891  0.1209 -0.1294
  188SLPC  H18X21766   4.807   6.193   8.593  0.6350 -0.4094  1.8683
  188SLPC  H18Y21767   4.784   6.024   8.660  1.7647  3.2382  2.2651
  188SLPC  H18Z21768   4.648   6.104   8.586 -0.0668 -0.9572 -0.8060
  189SLPC     N21769   6.502   1.582   6.272 -0.2345  0.0201 -0.2758
  189SLPC   C1321770   6.653   1.577   6.255  0.2776  0.7823  0.6228
  189SLPC  H13A21771   6.675   1.552   6.153 -1.4051  1.0599  0.1609
  189SLPC  H13B21772   6.692   1.672   6.287 -0.7824  1.5800 -0.3742
  189SLPC  H13C21773   6.686   1.499   6.322 -1.8262 -2.7331 -2.0703
  189SLPC   C1421774   6.455   1.696   6.187 -0.1092 -0.1030 -0.3194
  189SLPC  H14A21775   6.348   1.687   6.182 -0.1264  0.4386 -1.0351
  189SLPC  H14B21776   6.473   1.790   6.238 -3.8480  1.0793 -0.9156
  189SLPC  H14C21777   6.493   1.708   6.087 -0.9852  0.6866 -0.5753
  189SLPC   C1521778   6.466   1.625   6.414 -0.5219  0.4747 -0.5930
  189SLPC  H15A21779   6.489   1.545   6.484  1.1680  0.6999 -0.8451
  189SLPC  H15B21780   6.519   1.713   6.445 -1.6006  0.7989  0.3992
  189SLPC  H15C21781   6.361   1.651   6.410 -0.9347 -1.1657 -2.6294
  189SLPC   C1221782   6.440   1.450   6.238 -0.4758  0.2686 -0.2395
  189SLPC  H12A21783   6.430   1.384   6.323 -0.0089  2.4258  1.5959
  189SLPC  H12B21784   6.497   1.401   6.161  0.3280  0.9044 -0.0739
  189SLPC   C1121785   6.297   1.455   6.178 -0.4953 -0.2718 -0.1480
  189SLPC  H11A21786   6.259   1.351   6.167 -0.4954 -0.4513  1.3492
  189SLPC  H11B21787   6.301   1.504   6.078 -1.9869  0.8115  0.2858
  189SLPC     P21788   6.068   1.570   6.222  0.1320  0.2124 -0.0389
  189SLPC   O1321789   5.991   1.633   6.330 -0.0705  0.4362 -0.1290
  189SLPC   O1421790   6.084   1.656   6.102  0.8176 -0.1778  0.4520
  189SLPC   O1221791   6.215   1.529   6.269 -0.0524 -0.4519  0.8487
  189SLPC   O1121792   6.000   1.443   6.175 -0.1650  0.5399 -0.1002
  189SLPC    C121793   5.858   1.419   6.184  0.1566  0.1319 -0.1299
  189SLPC    HA21794   5.793   1.509   6.188 -1.5257 -1.0201 -0.5550
  189SLPC    HB21795   5.825   1.365   6.092  1.0793  0.4483 -0.6568
  189SLPC    C221796   5.825   1.335   6.314  0.3975  0.1214  0.5903
  189SLPC    HS21797   5.730   1.280   6.297  1.0102 -1.2509  1.4091
  189SLPC   O2121798   5.828   1.419   6.430  0.5001 -0.5048  0.3152
  189SLPC   C2121799   5.713   1.491   6.452 -1.0408  0.0278  0.2182
  189SLPC   O2221800   5.613   1.479   6.386  0.1094 -0.2915 -0.3768
  189SLPC   C2221801   5.719   1.562   6.584 -0.6368 -0.4688  0.3255
  189SLPC   H2R21802   5.755   1.491   6.662  0.4263 -2.0213 -1.4768
  189SLPC   H2S21803   5.803   1.634   6.575 -2.0653  0.9842 -2.7775
  189SLPC    C321804   5.933   1.227   6.335 -0.4215  1.3417  0.2364
  189SLPC    HX21805   6.032   1.276   6.352 -1.1180  2.5835  0.8937
  189SLPC    HY21806   5.930   1.188   6.232  0.2061  1.0636  0.3204
  189SLPC   O3121807   5.894   1.134   6.440 -0.4632  0.0103 -0.1466
  189SLPC   C3121808   5.960   1.144   6.555 -0.0383  0.6217  0.3831
  189SLPC   O3221809   6.052   1.219   6.580 -0.0598 -0.3851 -0.3562
  189SLPC   C3221810   5.891   1.049   6.657 -0.4155 -0.6878 -0.3069
  189SLPC   H2X21811   5.946   1.055   6.754  1.2101  3.1051 -1.3131
  189SLPC   H2Y21812   5.903   0.949   6.610  3.4272  0.3110 -1.8013
  189SLPC   C2321813   5.591   1.635   6.624  0.0218  0.1901 -0.2635
  189SLPC   H3R21814   5.508   1.561   6.621 -0.2772  0.4836  0.6663
  189SLPC   H3S21815   5.560   1.719   6.559 -0.4876  0.3911  0.2327
  189SLPC   C2421816   5.584   1.675   6.772 -0.5572  0.6802 -0.5254
  189SLPC   H4R21817   5.610   1.592   6.841 -1.5671  1.5935  1.0315
  189SLPC   H4S21818   5.478   1.700   6.795 -0.3761  0.1597  0.9706
  189SLPC   C2521819   5.670   1.802   6.803 -0.3432 -0.0954 -0.3459
  189SLPC   H5R21820   5.630   1.877   6.732 -2.0705  0.4633  1.1503
  189SLPC   H5S21821   5.777   1.775   6.784  0.2374  2.5515 -1.2065
  189SLPC   C2621822   5.650   1.862   6.943  0.1258  0.3109 -0.2851
  189SLPC   H6R21823   5.541   1.869   6.965  0.2270 -1.0011  0.7281
  189SLPC   H6S21824   5.699   1.961   6.956  0.0065  0.6687 -2.2884
  189SLPC   C2721825   5.700   1.768   7.050  0.5572 -0.2871 -0.5650
  189SLPC   H7R21826   5.808   1.757   7.026  0.6420  0.8614 -0.7419
  189SLPC   H7S21827   5.659   1.664   7.046  0.9035 -0.6976  3.3114
  189SLPC   C2821828   5.680   1.817   7.194 -0.3149  0.0850  0.5946
  189SLPC   H8R21829   5.710   1.924   7.195  2.3573 -0.5026 -2.3884
  189SLPC   H8S21830   5.748   1.761   7.262  0.6331  0.2195 -0.2059
  189SLPC   C2921831   5.542   1.788   7.236  0.4413  0.1402 -0.3578
  189SLPC   H9R21832   5.463   1.837   7.177  0.1764  1.3664  0.9638
  189SLPC  C21021833   5.507   1.716   7.342  1.2222  0.4087  0.6912
  189SLPC  H10R21834   5.398   1.705   7.351  0.9178  0.9769 -1.7372
  189SLPC  C21121835   5.588   1.637   7.436  0.3592  0.0209  0.0017
  189SLPC  H11R21836   5.680   1.590   7.395 -0.1041 -1.1628  0.2681
  189SLPC  H11S21837   5.534   1.541   7.452 -0.7646  0.4148 -1.2579
  189SLPC  C21221838   5.623   1.719   7.560 -0.8170  0.3287 -0.4252
  189SLPC  H12R21839   5.675   1.815   7.544  2.0646 -1.4657 -2.7254
  189SLPC  C21321840   5.591   1.690   7.690 -0.5832 -0.1669  0.3818
  189SLPC  H13R21841   5.649   1.751   7.761  2.0699 -0.6546 -1.2241
  189SLPC  C21421842   5.527   1.558   7.731 -0.7464  0.2152  0.2282
  189SLPC  H14R21843   5.610   1.485   7.734 -1.2650 -0.3820  0.1027
  189SLPC  H14S21844   5.450   1.521   7.660 -1.1439 -0.8116  1.1646
  189SLPC  C21521845   5.455   1.555   7.865  0.1374  0.4126 -0.9828
  189SLPC  H15R21846   5.432   1.448   7.884 -0.3926  0.7412  0.3599
  189SLPC  H15S21847   5.358   1.605   7.846  0.1223 -0.1056 -2.3548
  189SLPC  C21621848   5.517   1.621   7.991  0.0673  0.2233 -0.2966
  189SLPC  H16R21849   5.442   1.684   8.043  1.7490  0.7421  1.6164
  189SLPC  H16S21850   5.599   1.689   7.959  1.3669 -2.1741 -2.4711
  189SLPC  C21721851   5.572   1.514   8.086 -0.0762 -0.6653  0.2822
  189SLPC  H17R21852   5.632   1.442   8.027 -1.8094 -2.0485  0.1367
  189SLPC  H17S21853   5.488   1.461   8.136 -0.8784  1.4228  1.2797
  189SLPC  C21821854   5.662   1.566   8.193 -0.1001 -1.0700  0.2195
  189SLPC  H18R21855   5.605   1.612   8.276 -1.0415 -0.5482 -0.6779
  189SLPC  H18S21856   5.738   1.641   8.164  0.0190 -0.5931  1.6991
  189SLPC  H18T21857   5.714   1.495   8.260 -0.5864 -1.1185  0.5541
  189SLPC   C3321858   5.740   1.079   6.699 -0.2284  0.2235  0.3665
  189SLPC   H3X21859   5.695   1.136   6.615  0.2432  0.1446  0.0578
  189SLPC   H3Y21860   5.748   1.144   6.789  0.6226 -0.8419  1.0894
  189SLPC   C3421861   5.660   0.955   6.728  0.4596 -0.2987 -0.5044
  189SLPC   H4X21862   5.666   0.892   6.636  1.8355 -0.9374 -0.0022
  189SLPC   H4Y21863   5.556   0.989   6.744  1.2055  0.9606  2.0871
  189SLPC   C3521864   5.719   0.871   6.840 -0.6810  0.1803 -0.1208
  189SLPC   H5X21865   5.817   0.833   6.803 -0.2031  0.5684  0.7226
  189SLPC   H5Y21866   5.662   0.778   6.856  0.3953 -0.7563 -1.4243
  189SLPC   C3621867   5.747   0.946   6.976  0.3261 -0.1360 -0.3650
  189SLPC   H6X21868   5.675   1.030   6.989  0.5206  0.0380 -0.4099
  189SLPC   H6Y21869   5.852   0.981   6.982  1.0035 -2.2433  1.5165
  189SLPC   C3721870   5.724   0.852   7.094 -0.2121 -1.0034  0.3381
  189SLPC   H7X21871   5.806   0.778   7.077  2.4326  1.8621 -0.3834
  189SLPC   H7Y21872   5.625   0.802   7.099  0.1381 -1.6651  0.7924
  189SLPC   C3821873   5.755   0.908   7.233 -0.4251 -0.4444 -0.1794
  189SLPC   H8X21874   5.689   0.996   7.247  1.4520  1.1568 -0.9382
  189SLPC   H8Y21875   5.859   0.947   7.237  0.0007 -1.6169  3.4598
  189SLPC   C3921876   5.739   0.808   7.348 -0.7342 -0.8004 -0.9703
  189SLPC   H9X21877   5.790   0.711   7.331 -1.0943 -1.1140 -0.2949
  189SLPC   H9Y21878   5.632   0.782   7.364 -0.8536  1.1949  2.3307
  189SLPC  C31021879   5.786   0.863   7.484  0.3216  0.1059 -0.3986
  189SLPC  H10X21880   5.754   0.969   7.493 -0.1551 -0.2040  2.2219
  189SLPC  H10Y21881   5.897   0.864   7.490  0.2689  1.7210  2.5059
  189SLPC  C31121882   5.729   0.786   7.608  0.6849 -0.1198 -0.7320
  189SLPC  H11X21883   5.740   0.678   7.581  0.4973 -0.3138 -0.0581
  189SLPC  H11Y21884   5.619   0.801   7.617  0.7059 -0.7346  0.7872
  189SLPC  C31221885   5.785   0.831   7.743  0.5847  0.4269 -0.6278
  189SLPC  H12X21886   5.769   0.936   7.776  1.7872 -0.0369  1.6764
  189SLPC  H12Y21887   5.896   0.824   7.738  0.7033  2.0218 -0.5676
  189SLPC  C31321888   5.725   0.735   7.843  0.0787 -0.7831 -0.6577
  189SLPC  H13X21889   5.771   0.638   7.813 -1.1987 -0.9273 -2.2803
  189SLPC  H13Y21890   5.615   0.722   7.840 -0.7828  4.4010 -0.9088
  189SLPC  C31421891   5.762   0.775   7.983 -0.0439  0.6505  0.1196
  189SLPC  H14X21892   5.722   0.878   7.992  1.5937  1.1845  2.0345
  189SLPC  H14Y21893   5.873   0.770   7.989 -0.1018  0.2178  0.9466
  189SLPC  C31521894   5.715   0.685   8.097 -0.0660 -1.0414  0.1889
  189SLPC  H15X21895   5.717   0.580   8.060  1.5219 -0.7078 -0.7568
  189SLPC  H15Y21896   5.608   0.713   8.112  0.1254 -0.0250 -0.2597
  189SLPC  C31621897   5.779   0.717   8.230  0.6872 -0.2369 -0.7045
  189SLPC  H16X21898   5.775   0.826   8.246 -2.4118 -0.1086 -1.6919
  189SLPC  H16Y21899   5.888   0.696   8.231  0.8207 -0.0851  2.7410
  189SLPC  C31721900   5.714   0.645   8.346 -0.1487  0.1841 -0.1442
  189SLPC  H17X21901   5.714   0.535   8.331 -1.9662  0.2646 -1.0598
  189SLPC  H17Y21902   5.609   0.676   8.363 -0.2197 -0.2771  0.2640
  189SLPC  C31821903   5.789   0.664   8.476  0.0852 -0.2784 -0.6294
  189SLPC  H18X21904   5.764   0.756   8.533 -1.7764 -1.6637  0.9374
  189SLPC  H18Y21905   5.899   0.662   8.464  0.0553 -0.3016 -0.8986
  189SLPC  H18Z21906   5.771   0.574   8.538 -0.1744  0.8494  0.9851
  190SLPC     N21907   0.518   0.277   6.639  0.1493  0.4538  0.1012
  190SLPC   C1321908   0.656   0.268   6.707  0.6851  0.1987  0.1891
  190SLPC  H13A21909   0.743   0.290   6.647 -1.1372  4.6225 -1.2534
  190SLPC  H13B21910   0.650   0.340   6.787  1.0950  0.3611  0.0735
  190SLPC  H13C21911   0.663   0.170   6.751  1.0257  0.1083 -0.0607
  190SLPC   C1421912   0.505   0.414   6.579 -0.8976  0.4042 -0.5847
  190SLPC  H14A21913   0.410   0.432   6.531 -0.6612 -1.3218 -1.8007
  190SLPC  H14B21914   0.530   0.495   6.645 -1.0178  2.1784 -2.6364
  190SLPC  H14C21915   0.579   0.418   6.501  1.7656  1.2903  1.7911
  190SLPC   C1521916   0.413   0.274   6.748 -0.2907  0.2474 -0.4396
  190SLPC  H15A21917   0.417   0.361   6.812 -1.5129  2.6284 -3.4149
  190SLPC  H15B21918   0.313   0.257   6.712  0.4632 -3.9215 -1.1702
  190SLPC  H15C21919   0.424   0.184   6.808 -2.3483  0.6692  0.6696
  190SLPC   C1221920   0.492   0.170   6.530 -0.3265 -0.5187 -0.2837
  190SLPC  H12A21921   0.571   0.170   6.456  0.3583  2.1355  0.3419
  190SLPC  H12B21922   0.401   0.200   6.480  0.5072 -0.7699 -2.0375
  190SLPC   C1121923   0.477   0.030   6.589 -0.0189  0.7181  0.4473
  190SLPC  H11A21924   0.549   0.015   6.672  1.0860 -3.0770 -0.9684
  190SLPC  H11B21925   0.515  -0.039   6.510 -0.0098  1.2809 -0.0463
  190SLPC     P21926   0.235  -0.077   6.541  0.1540 -0.4530  0.4214
  190SLPC   O1321927   0.215  -0.009   6.413  0.6894  0.1796 -0.0929
  190SLPC   O1421928   0.273  -0.213   6.531  0.6844 -0.1879  0.1848
  190SLPC   O1221929   0.340   0.010   6.616  0.0962  0.2192 -0.5391
  190SLPC   O1121930   0.095  -0.057   6.621  0.3473  0.1047  0.0833
  190SLPC    C121931  -0.024  -0.112   6.559  0.4985  0.4216 -0.2102
  190SLPC    HA21932  -0.038  -0.078   6.454 -1.1624 -0.5953 -0.3642
  190SLPC    HB21933  -0.036  -0.222   6.566 -0.8369  0.5591  0.1052
  190SLPC    C221934  -0.151  -0.067   6.636 -0.1589  0.1008  0.2641
  190SLPC    HS21935  -0.158   0.044   6.642  0.1392  0.0411  2.6923
  190SLPC   O2121936  -0.129  -0.125   6.769 -0.2252  0.0950 -0.0594
  190SLPC   C2121937  -0.147  -0.038   6.865 -0.8887  0.1320 -0.0477
  190SLPC   O2221938  -0.160   0.082   6.862  0.0596 -0.4336  0.3016
  190SLPC   C2221939  -0.136  -0.112   6.999 -0.0232  0.8877 -0.1491
  190SLPC   H2R21940  -0.205  -0.198   6.988 -1.4753  2.1637 -1.5096
  190SLPC   H2S21941  -0.036  -0.159   7.004 -1.9668 -3.5741  1.4951
  190SLPC    C321942  -0.294  -0.124   6.578 -0.5794 -1.1298  0.2975
  190SLPC    HX21943  -0.292  -0.230   6.611  1.5470 -1.2893 -0.1649
  190SLPC    HY21944  -0.279  -0.108   6.469 -1.9344  0.8004  0.3415
  190SLPC   O3121945  -0.413  -0.053   6.630 -0.4124  0.5034 -0.5481
  190SLPC   C3121946  -0.440   0.061   6.564  0.3974  0.1467  0.0009
  190SLPC   O3221947  -0.370   0.111   6.481 -0.6031 -0.1507 -0.4289
  190SLPC   C3221948  -0.578   0.115   6.600 -0.4685  0.3045 -0.7514
  190SLPC   H2X21949  -0.658   0.039   6.611 -0.5832  0.3427 -1.3060
  190SLPC   H2Y21950  -0.610   0.182   6.518  0.7303  0.2266 -1.2944
  190SLPC   C2321951  -0.173  -0.023   7.120  0.4399  0.5123  0.3435
  190SLPC   H3R21952  -0.277   0.015   7.116  0.3530  0.3058  0.6162
  190SLPC   H3S21953  -0.102   0.063   7.126  1.1524 -0.1520  2.0628
  190SLPC   C2421954  -0.155  -0.092   7.257 -0.2708 -0.4104  0.6390
  190SLPC   H4R21955  -0.054  -0.135   7.274  0.6010 -0.2690 -3.3916
  190SLPC   H4S21956  -0.225  -0.177   7.274 -0.0012 -0.1326  3.7765
  190SLPC   C2521957  -0.181   0.004   7.379 -0.3702 -0.1963  0.4788
  190SLPC   H5R21958  -0.274   0.064   7.366  0.1896  0.8518  1.1244
  190SLPC   H5S21959  -0.088   0.064   7.389 -1.0578  0.6468  2.3491
  190SLPC   C2621960  -0.189  -0.067   7.517  0.7327 -0.5515  0.4590
  190SLPC   H6R21961  -0.271  -0.142   7.512  1.6091 -1.4622 -1.6596
  190SLPC   H6S21962  -0.219   0.018   7.582 -1.8452 -0.7056 -0.3986
  190SLPC   C2721963  -0.060  -0.131   7.554  0.2862 -0.3068 -0.1709
  190SLPC   H7R21964   0.021  -0.057   7.536  0.3245  0.0992  1.5167
  190SLPC   H7S21965  -0.054  -0.206   7.472  0.5729 -0.8644  0.3526
  190SLPC   C2821966  -0.052  -0.183   7.701  0.8126 -0.3764  0.3681
  190SLPC   H8R21967   0.044  -0.236   7.718  0.5074 -1.9553 -2.3941
  190SLPC   H8S21968  -0.137  -0.253   7.715 -1.1383  1.7325 -0.1251
  190SLPC   C2921969  -0.056  -0.075   7.803 -0.1953 -0.0767 -0.1346
  190SLPC   H9R21970  -0.006   0.019   7.774 -0.1383 -0.5846 -1.7898
  190SLPC  C21021971  -0.084  -0.085   7.937 -0.6714 -0.0178  0.0531
  190SLPC  H10R21972  -0.081   0.005   8.000  1.5473  0.0469 -0.0658
  190SLPC  C21121973  -0.109  -0.221   8.010 -0.1002 -0.9028 -0.3055
  190SLPC  H11R21974  -0.010  -0.247   8.053  1.0705  2.4438 -0.7029
  190SLPC  H11S21975  -0.131  -0.299   7.934 -0.4803 -0.3738 -0.7514
  190SLPC  C21221976  -0.218  -0.213   8.103  0.0057  0.0461  0.6915
  190SLPC  H12R21977  -0.319  -0.213   8.060 -0.5429  0.9837  1.9168
  190SLPC  C21321978  -0.209  -0.192   8.235 -0.1764  0.1209  0.0803
  190SLPC  H13R21979  -0.306  -0.177   8.285  0.3846 -0.3286  1.3428
  190SLPC  C21421980  -0.093  -0.180   8.335 -0.2221 -0.6605  0.0815
  190SLPC  H14R21981  -0.118  -0.117   8.424  0.7782  0.3850 -0.3631
  190SLPC  H14S21982  -0.016  -0.114   8.291 -1.0949 -1.0383 -2.1351
  190SLPC  C21521983  -0.029  -0.314   8.366  0.0089 -0.0091 -0.2906
  190SLPC  H15R21984   0.067  -0.293   8.418 -1.0525  3.3343  0.5451
  190SLPC  H15S21985  -0.011  -0.360   8.267 -2.1617  0.1854 -0.8133
  190SLPC  C21621986  -0.120  -0.414   8.442 -0.3179  0.1875 -0.2577
  190SLPC  H16R21987  -0.214  -0.433   8.386 -0.7029  0.6467  0.2199
  190SLPC  H16S21988  -0.164  -0.374   8.536  0.4124  0.9322 -0.2167
  190SLPC  C21721989  -0.057  -0.541   8.494  0.5055  0.2932  0.1966
  190SLPC  H17R21990  -0.011  -0.597   8.409  0.4264 -0.0914  0.4064
  190SLPC  H17S21991  -0.137  -0.604   8.538  0.4750 -0.2838 -0.6532
  190SLPC  C21821992   0.063  -0.523   8.593 -0.4769 -0.4899  0.1154
  190SLPC  H18R21993   0.033  -0.513   8.699 -0.7811 -1.2676  0.1118
  190SLPC  H18S21994   0.126  -0.433   8.581 -0.5842 -0.0690  2.3782
  190SLPC  H18T21995   0.137  -0.605   8.583 -1.5966 -1.5497  0.2463
  190SLPC   C3321996  -0.568   0.190   6.732  0.1603 -0.2771 -0.4406
  190SLPC   H3X21997  -0.554   0.125   6.820  0.5334  1.8372  1.1513
  190SLPC   H3Y21998  -0.659   0.248   6.760 -0.5176 -1.0293 -1.0445
  190SLPC   C3421999  -0.457   0.291   6.740  0.5476 -0.7048 -0.8768
  190SLPC   H4X22000  -0.463   0.356   6.650 -1.4846  2.7424  1.5050
  190SLPC   H4Y22001  -0.360   0.239   6.728  1.1054 -0.7128  2.6481
  190SLPC   C3522002  -0.468   0.379   6.863  0.4522 -0.2419  0.5050
  190SLPC   H5X22003  -0.566   0.432   6.865  0.6958  0.1979  1.0765
  190SLPC   H5Y22004  -0.385   0.453   6.862 -2.1075  2.8619  0.0795
  190SLPC   C3622005  -0.466   0.296   6.998 -0.3885 -0.0205 -0.3346
  190SLPC   H6X22006  -0.377   0.231   6.984 -1.1706 -1.1476 -0.1378
  190SLPC   H6Y22007  -0.550   0.225   7.011 -1.1682  1.0429  0.7406
  190SLPC   C3722008  -0.455   0.389   7.123 -0.3642  0.1839 -0.3242
  190SLPC   H7X22009  -0.554   0.439   7.136  0.3597  1.5229  0.1921
  190SLPC   H7Y22010  -0.372   0.462   7.111 -0.2525  0.4466  1.6266
  190SLPC   C3822011  -0.415   0.307   7.245 -0.0629 -0.3914 -0.1957
  190SLPC   H8X22012  -0.315   0.268   7.217 -0.4257 -0.9868 -0.6882
  190SLPC   H8Y22013  -0.494   0.229   7.247 -1.9469  1.4159 -1.1285
  190SLPC   C3922014  -0.415   0.394   7.367  0.6676  0.4823  0.2190
  190SLPC   H9X22015  -0.519   0.427   7.389  0.0357 -2.3175  2.0146
  190SLPC   H9Y22016  -0.349   0.483   7.365  1.5340 -0.1698 -0.8534
  190SLPC  C31022017  -0.373   0.310   7.489 -0.1472  0.2157 -0.2112
  190SLPC  H10X22018  -0.270   0.278   7.462 -0.3333 -1.5894  1.0724
  190SLPC  H10Y22019  -0.424   0.212   7.493  0.6196 -0.1616  0.3391
  190SLPC  C31122020  -0.377   0.384   7.629  0.1731 -1.4478  0.5525
  190SLPC  H11X22021  -0.476   0.433   7.640 -1.1027 -3.1251 -2.1640
  190SLPC  H11Y22022  -0.298   0.462   7.624 -1.0682 -0.2166 -1.8398
  190SLPC  C31222023  -0.353   0.282   7.728 -0.7991  0.3222 -0.2838
  190SLPC  H12X22024  -0.251   0.239   7.722 -1.4310 -2.0543  3.1322
  190SLPC  H12Y22025  -0.423   0.196   7.725  0.6283 -0.8549 -1.1273
  190SLPC  C31322026  -0.354   0.335   7.875 -0.9175  0.2594  0.0101
  190SLPC  H13X22027  -0.457   0.376   7.884 -0.6360  1.4075 -1.4889
  190SLPC  H13Y22028  -0.274   0.413   7.878  1.1012 -1.7141  0.4161
  190SLPC  C31422029  -0.320   0.232   7.986 -0.3824 -0.0613  0.3828
  190SLPC  H14X22030  -0.226   0.180   7.959 -0.2009  0.5788 -0.2824
  190SLPC  H14Y22031  -0.396   0.152   7.994 -0.1137 -0.1730  2.1444
  190SLPC  C31522032  -0.315   0.310   8.117  0.1580  0.1054  0.8050
  190SLPC  H15X22033  -0.415   0.358   8.121 -0.6499 -1.0803 -2.3082
  190SLPC  H15Y22034  -0.240   0.392   8.113  0.4369 -0.1815 -0.8518
  190SLPC  C31622035  -0.276   0.217   8.236 -1.0029 -0.0432 -0.0469
  190SLPC  H16X22036  -0.177   0.172   8.214 -0.5669  1.4492 -1.2794
  190SLPC  H16Y22037  -0.352   0.136   8.234  0.8762 -1.8612 -0.9561
  190SLPC  C31722038  -0.266   0.271   8.376  0.6091 -0.3109  0.0674
  190SLPC  H17X22039  -0.364   0.311   8.410  1.3863  0.8589  1.0133
  190SLPC  H17Y22040  -0.192   0.352   8.394  0.2024  0.4277 -1.3867
  190SLPC  C31822041  -0.217   0.162   8.471  0.6749 -0.3007 -0.3940
  190SLPC  H18X22042  -0.299   0.090   8.491 -0.5191  1.3086  0.8860
  190SLPC  H18Y22043  -0.187   0.198   8.572 -2.6315 -1.4025  1.1475
  190SLPC  H18Z22044  -0.131   0.113   8.421  0.0204 -2.0300  0.0856
  191SLPC     N22045   5.971   2.473   5.942 -0.0947 -0.1143 -0.0142
  191SLPC   C1322046   6.050   2.587   6.001  0.5379  0.1587  0.1500
  191SLPC  H13A22047   6.086   2.658   5.928 -0.7413 -0.5672 -1.2558
  191SLPC  H13B22048   5.989   2.649   6.066 -0.6994 -0.5989 -0.2549
  191SLPC  H13C22049   6.136   2.561   6.060 -0.1206  0.1346  1.1212
  191SLPC   C1422050   6.038   2.409   5.824 -0.1116  0.6007  0.1008
  191SLPC  H14A22051   6.063   2.467   5.736  1.5763 -0.8331 -0.4331
  191SLPC  H14B22052   6.132   2.372   5.863  0.3457  2.5570  0.9860
  191SLPC  H14C22053   5.979   2.321   5.803 -1.2236  1.1399  0.8756
  191SLPC   C1522054   5.833   2.526   5.905 -0.3150  0.6236  0.2534
  191SLPC  H15A22055   5.852   2.606   5.835 -0.0414 -0.0140 -0.4126
  191SLPC  H15B22056   5.774   2.446   5.861  0.9727 -0.2798  0.1365
  191SLPC  H15C22057   5.782   2.567   5.991  0.5721 -1.3427  1.7935
  191SLPC   C1222058   5.961   2.373   6.063  0.2840 -0.5140  0.2832
  191SLPC  H12A22059   6.062   2.359   6.097  0.4716 -0.2571 -0.1563
  191SLPC  H12B22060   5.921   2.278   6.030 -0.0651 -0.1441 -0.3955
  191SLPC   C1122061   5.869   2.415   6.185 -0.1853 -0.5829  0.2311
  191SLPC  H11A22062   5.897   2.521   6.201 -2.3315 -0.0206  0.4446
  191SLPC  H11B22063   5.906   2.357   6.272 -0.8498 -0.3313  0.6825
  191SLPC     P22064   5.672   2.254   6.187 -0.2184 -0.2642  0.1499
  191SLPC   O1322065   5.523   2.261   6.186  0.8471  0.3746 -0.2667
  191SLPC   O1422066   5.739   2.158   6.093 -0.0086  0.2486  0.2707
  191SLPC   O1222067   5.728   2.399   6.159  0.5778 -0.0924 -0.3355
  191SLPC   O1122068   5.719   2.220   6.331 -0.9359  0.1572  0.0468
  191SLPC    C122069   5.663   2.258   6.451  0.7408  0.2840  0.4385
  191SLPC    HA22070   5.648   2.368   6.457 -0.2396  0.1227  1.1574
  191SLPC    HB22071   5.567   2.202   6.461  1.5311 -0.9145  1.5016
  191SLPC    C222072   5.740   2.206   6.580 -0.1173 -0.0711  0.0998
  191SLPC    HS22073   5.743   2.096   6.569 -1.2981 -0.0422 -0.6780
  191SLPC   O2122074   5.668   2.248   6.697  0.2050  0.3158 -0.4211
  191SLPC   C2122075   5.558   2.174   6.715  0.0185  0.1816 -0.0819
  191SLPC   O2222076   5.513   2.086   6.648 -0.7684  0.2317 -0.1519
  191SLPC   C2222077   5.497   2.226   6.847  0.4494 -0.9973  0.6555
  191SLPC   H2R22078   5.552   2.191   6.938  2.1055 -1.8081 -0.5989
  191SLPC   H2S22079   5.502   2.337   6.851 -0.9328 -0.8483 -0.8408
  191SLPC    C322080   5.882   2.257   6.586  0.2100 -0.0260 -0.5086
  191SLPC    HX22081   5.886   2.367   6.604 -2.2897  0.2057 -1.0219
  191SLPC    HY22082   5.932   2.246   6.487  0.2704 -1.1157 -0.3689
  191SLPC   O3122083   5.959   2.188   6.690  0.4160 -0.1512  0.5371
  191SLPC   C3122084   6.003   2.067   6.649  0.0207  0.3057  0.5246
  191SLPC   O3222085   6.001   2.031   6.534 -0.5122  0.0569  0.2321
  191SLPC   C3222086   6.057   1.984   6.765 -0.0039 -0.2017 -0.0172
  191SLPC   H2X22087   6.167   1.988   6.761 -0.0552  0.6253 -1.1534
  191SLPC   H2Y22088   6.015   1.883   6.744 -0.0271  0.2596 -2.4959
  191SLPC   C2322089   5.351   2.189   6.870 -0.6868 -0.5176  0.5565
  191SLPC   H3R22090   5.333   2.079   6.868 -0.2989 -0.6424  2.1615
  191SLPC   H3S22091   5.292   2.240   6.792  1.0149  0.7669  0.0555
  191SLPC   C2422092   5.292   2.236   7.002  0.3173 -0.4434 -0.3997
  191SLPC   H4R22093   5.366   2.214   7.082 -1.3744 -1.7007  0.8914
  191SLPC   H4S22094   5.206   2.168   7.020  2.4210 -3.0259  0.6939
  191SLPC   C2522095   5.251   2.389   7.003 -0.4920 -0.3607 -0.2965
  191SLPC   H5R22096   5.178   2.407   6.920 -2.5669 -1.1991  1.2597
  191SLPC   H5S22097   5.341   2.451   6.986 -1.2719  2.0170  3.2183
  191SLPC   C2622098   5.186   2.437   7.133 -0.3753  0.3508 -0.6327
  191SLPC   H6R22099   5.090   2.382   7.144  0.9479 -2.1396 -0.7260
  191SLPC   H6S22100   5.168   2.546   7.127 -1.0217  0.3091  0.2630
  191SLPC   C2722101   5.278   2.409   7.253  0.0891  0.2068  0.1391
  191SLPC   H7R22102   5.376   2.450   7.222  0.1219  0.0970  0.0982
  191SLPC   H7S22103   5.279   2.301   7.281 -0.9747 -0.0025 -0.5756
  191SLPC   C2822104   5.227   2.495   7.379 -0.2970  0.1997  0.0982
  191SLPC   H8R22105   5.125   2.474   7.416 -0.6462  0.8200 -0.4955
  191SLPC   H8S22106   5.215   2.594   7.332  1.6482  1.2493  1.6798
  191SLPC   C2922107   5.331   2.510   7.500  0.0506  0.7950 -0.2524
  191SLPC   H9R22108   5.440   2.515   7.488  0.1550 -2.5403 -1.8695
  191SLPC  C21022109   5.282   2.514   7.626  0.0676  0.1163 -0.2369
  191SLPC  H10R22110   5.359   2.534   7.702  0.0045 -0.1268 -0.1068
  191SLPC  C21122111   5.140   2.494   7.677 -0.5343  0.2249 -0.1762
  191SLPC  H11R22112   5.061   2.533   7.610 -0.5012  0.5488 -0.0273
  191SLPC  H11S22113   5.118   2.541   7.775  1.0703  0.6453  0.0120
  191SLPC  C21222114   5.116   2.340   7.684  0.8097  0.5637  0.0376
  191SLPC  H12R22115   5.158   2.279   7.603 -1.1963 -1.6826  0.5913
  191SLPC  C21322116   5.029   2.279   7.764  0.2772  0.4497 -0.0870
  191SLPC  H13R22117   5.019   2.170   7.753  0.0764  0.5618 -1.1289
  191SLPC  C21422118   4.959   2.350   7.872  0.0553 -0.0202 -0.4803
  191SLPC  H14R22119   4.889   2.428   7.835  0.1338 -0.3043 -1.2344
  191SLPC  H14S22120   5.047   2.395   7.924  1.0571 -1.3666 -0.9569
  191SLPC  C21522121   4.876   2.283   7.988 -0.1926 -0.7105  0.4966
  191SLPC  H15R22122   4.779   2.252   7.944 -0.2290 -1.0875  0.8358
  191SLPC  H15S22123   4.835   2.360   8.057  0.1403 -0.0376 -0.0487
  191SLPC  C21622124   4.961   2.174   8.065  0.2418 -0.3054 -0.4231
  191SLPC  H16R22125   5.046   2.209   8.127 -0.9152  0.7032  0.6501
  191SLPC  H16S22126   5.010   2.112   7.987 -0.0772  1.5980 -2.2138
  191SLPC  C21722127   4.875   2.088   8.155  0.4669 -0.1164  0.2551
  191SLPC  H17R22128   4.837   2.004   8.093 -0.2448  1.2603 -1.2550
  191SLPC  H17S22129   4.784   2.139   8.192  0.3125 -1.1591  1.3935
  191SLPC  C21822130   4.954   2.033   8.273 -0.5028  1.3737  0.5316
  191SLPC  H18R22131   4.872   1.977   8.322 -0.9550  1.4198 -0.1495
  191SLPC  H18S22132   4.987   2.117   8.337  0.4645  2.8323 -1.7397
  191SLPC  H18T22133   5.036   1.965   8.242 -1.3836  0.6936 -0.3556
  191SLPC   C3322134   6.015   2.032   6.904  0.3237  0.1118  0.1639
  191SLPC   H3X22135   5.908   2.002   6.896  0.4224  0.2546 -2.2081
  191SLPC   H3Y22136   6.020   2.143   6.913  2.9665  0.0604 -0.1629
  191SLPC   C3422137   6.074   1.969   7.024  0.0055 -0.0039 -0.3448
  191SLPC   H4X22138   6.180   2.000   7.034  0.3716 -1.2012 -0.3608
  191SLPC   H4Y22139   6.077   1.858   7.024  0.0232 -0.0654  2.3855
  191SLPC   C3522140   6.011   2.012   7.155  0.5137 -0.5532  0.6011
  191SLPC   H5X22141   5.904   1.985   7.152  0.3932  0.0064 -0.8676
  191SLPC   H5Y22142   6.015   2.117   7.189 -0.4280 -0.7615  1.4019
  191SLPC   C3622143   6.076   1.935   7.269  0.0953  0.3366 -0.7065
  191SLPC   H6X22144   6.180   1.974   7.271 -0.1916  1.0788  0.9963
  191SLPC   H6Y22145   6.092   1.829   7.241 -1.8614  0.1324 -1.2254
  191SLPC   C3722146   6.003   1.953   7.405 -0.2667  0.6210  0.6771
  191SLPC   H7X22147   5.902   1.908   7.407  0.3286 -0.7639  0.7219
  191SLPC   H7Y22148   6.001   2.060   7.434  0.0016  0.6758  0.4961
  191SLPC   C3822149   6.061   1.872   7.523 -0.5530  0.4314 -0.0244
  191SLPC   H8X22150   6.169   1.887   7.542 -0.5873 -0.4175  0.9228
  191SLPC   H8Y22151   6.049   1.762   7.508 -1.7064  0.2678  1.7908
  191SLPC   C3922152   5.997   1.912   7.653 -1.2567 -0.2867  0.1071
  191SLPC   H9X22153   5.888   1.893   7.647 -1.3428  0.6049 -1.6750
  191SLPC   H9Y22154   6.015   2.019   7.677 -0.3125 -0.6172  0.9349
  191SLPC  C31022155   6.052   1.841   7.777  0.9246  0.1780 -0.6794
  191SLPC  H10X22156   6.155   1.869   7.805 -0.0946  1.2780  2.3604
  191SLPC  H10Y22157   6.061   1.734   7.749 -0.9677 -0.6528  1.5152
  191SLPC  C31122158   5.958   1.849   7.904  0.3210 -0.4424  1.0649
  191SLPC  H11X22159   5.979   1.756   7.962 -0.1916  0.3171  2.5096
  191SLPC  H11Y22160   5.853   1.839   7.867 -0.0430  0.9727  1.6727
  191SLPC  C31222161   5.963   1.975   7.991 -0.2726  0.1587  0.5336
  191SLPC  H12X22162   5.964   2.070   7.934  2.3304  0.8388  1.5928
  191SLPC  H12Y22163   6.067   1.985   8.030 -0.5495  0.4800  1.2065
  191SLPC  C31322164   5.858   1.976   8.096  0.4854 -0.1224 -0.1372
  191SLPC  H13X22165   5.867   1.881   8.152 -1.1211  0.5507  1.3304
  191SLPC  H13Y22166   5.760   1.968   8.045  0.9702 -2.2468 -0.8122
  191SLPC  C31422167   5.862   2.096   8.188 -0.5140  0.1933 -0.1857
  191SLPC  H14X22168   5.806   2.168   8.124 -1.6633 -2.4640 -2.3356
  191SLPC  H14Y22169   5.964   2.138   8.198 -0.5124  0.1842 -0.1641
  191SLPC  C31522170   5.788   2.077   8.322  0.3408 -0.0773  0.4896
  191SLPC  H15X22171   5.728   1.985   8.303 -0.0675  0.5109 -1.2588
  191SLPC  H15Y22172   5.721   2.160   8.351  0.6419 -0.2673  1.7861
  191SLPC  C31622173   5.877   2.055   8.446 -0.2967  0.7491 -0.9209
  191SLPC  H16X22174   5.919   2.145   8.497 -3.2629  1.1997  0.9989
  191SLPC  H16Y22175   5.961   1.991   8.412 -2.4961 -3.4536  0.9232
  191SLPC  C31722176   5.803   1.967   8.549 -0.0381  0.2207 -0.4476
  191SLPC  H17X22177   5.753   1.885   8.493 -4.6881  2.7554 -0.5144
  191SLPC  H17Y22178   5.720   2.034   8.581 -0.1750  0.8101 -1.9705
  191SLPC  C31822179   5.894   1.905   8.649 -0.4155 -0.4076 -0.7317
  191SLPC  H18X22180   5.944   1.813   8.614  1.4696  0.9242 -1.7085
  191SLPC  H18Y22181   5.833   1.883   8.739  1.1964  0.5180  0.6637
  191SLPC  H18Z22182   5.972   1.976   8.685  0.4462 -2.9241  2.8966
  192SLPC     N22183   0.184   2.942   6.435 -0.6306  0.0844 -0.0156
  192SLPC   C1322184   0.119   3.050   6.352 -0.6757  0.0990  0.5332
  192SLPC  H13A22185   0.028   3.016   6.304  0.0633  0.1683 -0.9816
  192SLPC  H13B22186   0.100   3.138   6.411 -2.3267  0.5158 -0.5367
  192SLPC  H13C22187   0.183   3.074   6.268 -1.6435 -0.1548 -0.2962
  192SLPC   C1422188   0.203   2.819   6.351  0.0079  0.0021 -0.0364
  192SLPC  H14A22189   0.253   2.739   6.403 -0.5111 -1.6994 -2.0209
  192SLPC  H14B22190   0.111   2.785   6.305 -0.1198  1.6855 -1.1237
  192SLPC  H14C22191   0.277   2.829   6.273 -0.2047 -1.6851 -0.4869
  192SLPC   C1522192   0.079   2.913   6.543  0.0001  0.0981  0.0462
  192SLPC  H15A22193   0.081   2.981   6.627 -1.0303  1.8189 -1.2299
  192SLPC  H15B22194  -0.014   2.934   6.491 -0.4985  0.3928  1.0396
  192SLPC  H15C22195   0.078   2.810   6.575 -0.6719 -0.0690 -0.4665
  192SLPC   C1222196   0.316   2.984   6.508  0.3949 -0.5228 -0.0813
  192SLPC  H12A22197   0.388   3.011   6.432 -1.1375  0.6806 -1.1878
  192SLPC  H12B22198   0.359   2.899   6.558  2.9916  0.0239 -1.2217
  192SLPC   C1122199   0.292   3.098   6.615 -0.0145  0.4697 -0.0784
  192SLPC  H11A22200   0.389   3.103   6.670 -0.3367  2.6118  0.4016
  192SLPC  H11B22201   0.221   3.061   6.691  1.2374 -0.3742  0.7257
  192SLPC     P22202   0.362   3.294   6.454  0.5168  0.2447  0.2523
  192SLPC   O1322203   0.473   3.204   6.416  0.3652 -0.8152 -0.1817
  192SLPC   O1422204   0.281   3.347   6.343  0.0124  0.6214  0.5314
  192SLPC   O1222205   0.259   3.227   6.555 -0.3197  0.3753  0.2116
  192SLPC   O1122206   0.411   3.421   6.541  0.2332  0.0487  0.6043
  192SLPC    C122207   0.316   3.494   6.622  0.4784 -0.0639 -0.3517
  192SLPC    HA22208   0.341   3.602   6.622 -2.9488  0.8555  1.7882
  192SLPC    HB22209   0.215   3.494   6.575  1.3707  0.9648 -2.4401
  192SLPC    C222210   0.318   3.452   6.773 -0.0256 -0.9234  0.0518
  192SLPC    HS22211   0.263   3.357   6.788 -0.5051 -0.8264 -0.9479
  192SLPC   O2122212   0.252   3.552   6.852  0.5859  0.0086 -0.0762
  192SLPC   C2122213   0.122   3.541   6.867  0.7723 -0.2631  0.4247
  192SLPC   O2222214   0.048   3.452   6.824 -0.4581 -0.1166 -0.0042
  192SLPC   C2222215   0.081   3.660   6.952  0.0584 -0.0932 -0.2687
  192SLPC   H2R22216   0.153   3.743   6.932 -1.2744  0.5022 -3.0543
  192SLPC   H2S22217  -0.022   3.692   6.927 -0.3631 -0.4236  0.9741
  192SLPC    C322218   0.460   3.446   6.823  0.2256  0.5028  0.7942
  192SLPC    HX22219   0.496   3.551   6.830 -0.6104  0.7201  2.5314
  192SLPC    HY22220   0.532   3.395   6.756  0.2275  0.1511  1.0604
  192SLPC   O3122221   0.472   3.383   6.952  0.0695 -0.3084 -0.2440
  192SLPC   C3122222   0.590   3.377   7.004 -0.6767  0.0057 -0.0222
  192SLPC   O3222223   0.690   3.422   6.954 -0.7981 -0.2383 -0.7638
  192SLPC   C3222224   0.596   3.286   7.130 -0.6356  0.2149 -0.2709
  192SLPC   H2X22225   0.701   3.270   7.162 -0.1714 -1.2413 -2.2999
  192SLPC   H2Y22226   0.562   3.180   7.120  0.2343 -0.1607  0.5577
  192SLPC   C2322227   0.102   3.625   7.099  0.2166 -0.3032  0.1731
  192SLPC   H3R22228   0.065   3.524   7.125  1.7340 -1.0949 -0.6582
  192SLPC   H3S22229   0.028   3.693   7.147  0.9822 -0.2909  1.3895
  192SLPC   C2422230   0.237   3.653   7.160  0.1541 -0.1642  0.6429
  192SLPC   H4R22231   0.249   3.761   7.138  0.1564 -0.0649  1.1247
  192SLPC   H4S22232   0.312   3.607   7.093  0.2972  1.8758 -0.6887
  192SLPC   C2522233   0.244   3.612   7.312 -0.0514  0.5885  0.1117
  192SLPC   H5R22234   0.351   3.631   7.337  0.2895 -1.9185  0.8165
  192SLPC   H5S22235   0.229   3.503   7.321 -2.1525  0.7657 -0.7557
  192SLPC   C2622236   0.146   3.683   7.406  1.0808  0.2991 -0.1944
  192SLPC   H6R22237   0.061   3.718   7.344  3.1322  2.6946 -1.8751
  192SLPC   H6S22238   0.193   3.778   7.440  0.3479  0.6228 -0.0534
  192SLPC   C2722239   0.100   3.609   7.537  0.3496 -0.8282  0.0813
  192SLPC   H7R22240   0.040   3.517   7.521  1.4221 -1.8268  1.5211
  192SLPC   H7S22241   0.037   3.690   7.580 -2.4358 -2.1564 -1.2446
  192SLPC   C2822242   0.220   3.589   7.637  0.0121  0.2486  0.1089
  192SLPC   H8R22243   0.274   3.684   7.657 -0.2637  0.9690 -2.2769
  192SLPC   H8S22244   0.301   3.532   7.586  0.7152  1.2702  0.0720
  192SLPC   C2922245   0.191   3.510   7.765 -0.0462  0.1463  0.6576
  192SLPC   H9R22246   0.214   3.403   7.751 -0.9761 -0.0799  0.7806
  192SLPC  C21022247   0.145   3.556   7.879 -0.3172  0.2977  0.1485
  192SLPC  H10R22248   0.119   3.476   7.949  0.7858 -0.8534 -0.7124
  192SLPC  C21122249   0.103   3.696   7.909  0.1813  0.1639 -0.0674
  192SLPC  H11R22250   0.087   3.757   7.818  0.0468 -1.6575 -1.3100
  192SLPC  H11S22251   0.189   3.738   7.967 -0.4179  0.6193  0.5059
  192SLPC  C21222252  -0.026   3.703   8.002 -0.0089 -0.5693  0.5664
  192SLPC  H12R22253  -0.117   3.702   7.940  0.0309  0.0486  0.4897
  192SLPC  C21322254  -0.031   3.725   8.136 -0.0737  0.0652  0.3487
  192SLPC  H13R22255  -0.132   3.739   8.178 -1.2320 -0.7377 -1.9679
  192SLPC  C21422256   0.079   3.731   8.244 -0.3107  0.3127 -0.1287
  192SLPC  H14R22257   0.053   3.812   8.315 -0.0514 -0.4576  0.8554
  192SLPC  H14S22258   0.175   3.740   8.187 -0.4425 -1.7335 -0.7619
  192SLPC  C21522259   0.091   3.601   8.327 -0.7665  1.2580  0.2106
  192SLPC  H15R22260   0.186   3.608   8.384 -0.9393  1.8252  0.4325
  192SLPC  H15S22261   0.091   3.511   8.263 -0.6368  2.2395 -1.2206
  192SLPC  C21622262  -0.030   3.585   8.420 -0.8097  0.1505  0.6833
  192SLPC  H16R22263  -0.123   3.569   8.360  0.6768 -1.0688 -1.4170
  192SLPC  H16S22264  -0.030   3.679   8.480  0.0673 -0.9316  2.4533
  192SLPC  C21722265  -0.008   3.472   8.520 -0.2447  0.4166  0.2292
  192SLPC  H17R22266  -0.003   3.378   8.460 -1.0180  0.6772 -0.2585
  192SLPC  H17S22267   0.084   3.476   8.582  0.6464  0.1452 -1.0208
  192SLPC  C21822268  -0.126   3.485   8.617 -0.0416  0.4315  0.9963
  192SLPC  H18R22269  -0.099   3.561   8.693  1.9442 -0.3689  1.1692
  192SLPC  H18S22270  -0.156   3.388   8.661 -1.2414  0.8450  1.1285
  192SLPC  H18T22271  -0.218   3.519   8.564 -0.2518 -0.3525  0.8450
  192SLPC   C3322272   0.534   3.361   7.251 -0.2676  0.1762 -0.0893
  192SLPC   H3X22273   0.423   3.356   7.255 -0.2028 -1.3662  2.0242
  192SLPC   H3Y22274   0.557   3.469   7.252 -0.9397  0.3250  0.6898
  192SLPC   C3422275   0.593   3.293   7.382  0.6168 -0.3600  0.3532
  192SLPC   H4X22276   0.702   3.311   7.383  0.7496 -1.1039 -0.5667
  192SLPC   H4Y22277   0.570   3.186   7.368 -4.3118  0.6903 -1.8293
  192SLPC   C3522278   0.519   3.337   7.515  0.1376  0.0388  0.2888
  192SLPC   H5X22279   0.425   3.277   7.517 -0.9106  1.5910 -0.2010
  192SLPC   H5Y22280   0.473   3.438   7.512 -1.1134 -0.5175 -2.0010
  192SLPC   C3622281   0.600   3.317   7.642  0.0220  0.2168 -0.6193
  192SLPC   H6X22282   0.687   3.385   7.649  0.5440 -0.3422 -1.4500
  192SLPC   H6Y22283   0.648   3.217   7.646 -0.0234  0.1748 -1.0537
  192SLPC   C3722284   0.514   3.332   7.769 -0.1107 -0.3205  0.2038
  192SLPC   H7X22285   0.440   3.248   7.768 -1.2325  0.6478 -0.8585
  192SLPC   H7Y22286   0.453   3.424   7.759 -1.0529 -1.1561 -3.3654
  192SLPC   C3822287   0.598   3.316   7.898  0.1919 -0.6661  1.1746
  192SLPC   H8X22288   0.664   3.403   7.915 -0.6862  0.2129  0.1683
  192SLPC   H8Y22289   0.670   3.234   7.878  2.6659  2.3003 -3.7885
  192SLPC   C3922290   0.534   3.299   8.037  0.1377  0.5571  0.5288
  192SLPC   H9X22291   0.603   3.282   8.122 -0.3831  2.0201  1.2951
  192SLPC   H9Y22292   0.460   3.218   8.024  2.4384 -1.2866 -2.5114
  192SLPC  C31022293   0.436   3.410   8.071  0.7165  0.5601  0.3538
  192SLPC  H10X22294   0.349   3.414   8.002  0.1309 -0.1149  1.0433
  192SLPC  H10Y22295   0.505   3.497   8.062 -0.3946  1.3110 -1.3367
  192SLPC  C31122296   0.381   3.400   8.213  0.3500  0.1355  0.1704
  192SLPC  H11X22297   0.326   3.487   8.255  0.2849 -0.1391  0.6667
  192SLPC  H11Y22298   0.470   3.416   8.277  0.1492 -1.4123  0.9050
  192SLPC  C31222299   0.319   3.264   8.246 -0.0879  0.7034 -0.6057
  192SLPC  H12X22300   0.329   3.191   8.163  2.4946 -0.2089  0.3896
  192SLPC  H12Y22301   0.210   3.280   8.263  0.0910  0.4636  0.9030
  192SLPC  C31322302   0.388   3.196   8.364 -0.3209  0.0219  0.3519
  192SLPC  H13X22303   0.346   3.094   8.375 -0.7986  0.0399 -1.1484
  192SLPC  H13Y22304   0.360   3.258   8.452 -0.0127 -0.4324  0.7738
  192SLPC  C31422305   0.545   3.182   8.359 -0.0530  0.2921  0.4742
  192SLPC  H14X22306   0.598   3.279   8.352  1.3492 -0.5312 -0.8107
  192SLPC  H14Y22307   0.575   3.123   8.270  1.4053  0.3491  0.9022
  192SLPC  C31522308   0.611   3.126   8.485  0.8611  0.1005  0.0497
  192SLPC  H15X22309   0.567   3.026   8.506 -0.6014  0.1267 -2.4785
  192SLPC  H15Y22310   0.569   3.191   8.564 -1.1312 -0.6355 -0.3554
  192SLPC  C31622311   0.762   3.150   8.505 -0.1207  0.3352 -0.0617
  192SLPC  H16X22312   0.787   3.137   8.613 -0.1175 -1.2225 -0.2324
  192SLPC  H16Y22313   0.785   3.257   8.486  2.1513 -0.1632 -0.4523
  192SLPC  C31722314   0.858   3.053   8.420  0.9685 -0.5505 -0.0304
  192SLPC  H17X22315   0.838   3.055   8.311  1.6597 -1.7831 -0.1918
  192SLPC  H17Y22316   0.836   2.951   8.457 -0.3886 -0.2031  0.2008
  192SLPC  C31822317   1.006   3.080   8.441 -0.5677 -0.3991 -0.4576
  192SLPC  H18X22318   1.033   3.177   8.395  1.9456 -1.4247 -1.2918
  192SLPC  H18Y22319   1.082   3.006   8.408  0.0193 -0.0327  0.0427
  192SLPC  H18Z22320   1.024   3.092   8.550 -1.2997 -1.1455 -0.2371
  193SOD    SOD22321   1.848   1.745   5.038 -0.5668 -0.2338  0.0807
  194SOD    SOD22322   0.120   1.397  13.493 -0.1409 -0.4934 -0.2568
  195SOD    SOD22323   5.460   2.214  11.030 -0.2463  0.6489  0.3302
  196SOD    SOD22324   0.754   4.906   1.162 -0.3056 -0.0516 -0.2435
  197SOD    SOD22325   5.434   1.646  16.445 -0.0708 -0.0366  0.1224
  198SOD    SOD22326   4.798   2.290  12.073 -0.1898  0.1228 -0.6598
  199SOD    SOD22327   3.191   3.814  12.848  0.2330 -0.0802 -0.0401
  200SOD    SOD22328   2.471   5.283   3.496 -0.5297 -0.5077 -0.3404
  201SOD    SOD22329   2.363   3.219  15.878  0.0484  0.1918 -0.4277
  202SOD    SOD22330   6.197   5.532   3.522 -0.3885 -0.0082 -0.0919
  203SOD    SOD22331   6.635   1.137  11.601 -0.1503 -0.3098  0.1710
  204SOD    SOD22332   0.448   3.162  16.533  0.3214 -0.8309  0.1189
  205SOD    SOD22333   3.335   2.799  12.713 -0.3160  0.1018  0.0531
  206SOD    SOD22334   1.631   1.092   5.474  0.1119  0.6767  0.0471
  207SOD    SOD22335   4.167   5.508   4.599  0.0548 -0.0354  0.0927
  208SOD    SOD22336   2.078   6.108  15.858 -0.2001 -0.4269  0.7749
  209SOD    SOD22337   4.455   3.696  15.060  0.0060 -0.0695 -0.0138
  210SOD    SOD22338   5.248   1.263   0.102  0.0914 -0.3257  0.0279
  211SOD    SOD22339   1.022   3.003  12.529  0.1506 -0.3074 -0.3727
  212SOD    SOD22340   3.247   6.605   3.147 -0.0215 -0.4930 -0.0564
  213SOD    SOD22341   2.118   1.018   2.516  0.3528  0.0578  0.2436
  214SOD    SOD22342   5.425   2.979   4.593  0.1601  0.4807 -1.3093
  215SOD    SOD22343   4.503   2.170   4.459 -0.2130 -0.1981 -0.0937
  216SOD    SOD22344   1.621   5.312   3.720  0.1034  0.3699 -0.2448
  217SOD    SOD22345   6.263   2.246  10.763 -0.0628  0.0696  0.2868
  218SOD    SOD22346   2.351   4.701   3.284  0.1107 -0.2017 -0.2271
  219SOD    SOD22347   1.023   5.237  14.877  0.0056  0.1974 -0.0765
  220SOD    SOD22348   2.127   5.418   6.170  0.0885 -0.2865 -0.1752
  221SOD    SOD22349   0.982   2.971   0.455 -0.6325 -0.6523  0.0023
  222SOD    SOD22350   0.549   4.949  12.645 -0.4667 -0.3193 -0.2818
  223SOD    SOD22351   0.360   5.003  14.624 -0.1736  0.3358  0.1339
  224SOD    SOD22352   4.624   5.003   3.878 -0.2534  0.3612 -0.7389
  225SOD    SOD22353   1.340   6.150  15.602  0.1173 -0.2674  0.3562
  226SOD    SOD22354   3.377   6.510  14.001  0.7170  0.0832  0.6565
  227SOD    SOD22355   2.274   0.710  12.520 -0.6341  0.9187  0.2900
  228SOD    SOD22356   2.682   0.132   5.635 -0.3886  0.1768  0.2603
  229SOD    SOD22357   0.252   6.062   1.621 -0.7401  0.3349 -0.1024
  230SOD    SOD22358   0.363   4.718   2.825 -0.0707  0.2595  0.1855
  231SOD    SOD22359   2.786   0.698   0.104  0.0147 -0.4417  0.4612
  232SOD    SOD22360   2.148   0.316   5.612 -0.0353  0.3652  0.2856
  233SOD    SOD22361   5.831   1.394  11.135  0.7664 -0.3114  0.7056
  234SOD    SOD22362   5.769   2.037   5.908  0.1082  0.4037 -0.4534
  235SOD    SOD22363   2.995   4.034   5.308 -0.5123  0.1814  0.4191
  236SOD    SOD22364   2.691   3.557   5.375  0.4067  0.4902  0.4394
  237SOD    SOD22365   3.641   4.399  14.351  0.6489 -0.0305 -0.1422
  238SOD    SOD22366   0.223   0.452   0.242  0.1052  0.4325 -0.0444
  239SOD    SOD22367   0.149   1.480   1.085  0.3560 -0.0058  0.2320
  240SOD    SOD22368   1.285   1.821  15.188  0.0199  0.1061 -0.0900
  241SOD    SOD22369   5.500   3.478   2.531  0.0223 -0.1400 -0.1588
  242SOD    SOD22370   5.256   0.390  10.866 -0.2077  0.2678  0.1929
  243SOD    SOD22371   6.372   0.058   0.428 -0.3528 -0.0406  0.1071
  244SOD    SOD22372   1.691   2.535   4.242 -0.0028  0.5718  0.2669
  245SOD    SOD22373   6.773   6.118  12.821 -0.3454  0.0354 -0.5361
  246SOD    SOD22374   0.957   1.740   4.361  0.0119 -0.3551 -0.5779
  247SOD    SOD22375   2.656   4.152   4.916 -0.5547  0.1092  0.0368
  248SOD    SOD22376   4.852   2.535   5.178  0.0283  0.0726 -0.2730
  249SOD    SOD22377   0.765   4.634   3.756 -0.4705 -0.2984  0.0862
  250SOD    SOD22378   0.903   6.499   5.023 -0.1585 -0.2410  0.1566
  251SOD    SOD22379   3.107   3.243  11.720  0.2637  0.0265  0.0379
  252SOD    SOD22380   5.710   3.693   5.362  0.0062 -0.2688  0.1687
  253SOD    SOD22381   6.525   0.510  13.191 -0.0195 -0.0702  0.5286
  254SOD    SOD22382   1.303   3.312   1.192  0.1431 -0.2976  0.5815
  255SOD    SOD22383   0.275   2.411  16.727 -0.0725  0.2135 -0.2427
  256SOD    SOD22384   4.048   6.706   5.190 -0.1505  0.2623 -0.0350
  257SOD    SOD22385   3.618   5.002   5.588 -0.1441 -0.1211  0.0849
  258SOD    SOD22386   0.047   5.697   5.915  0.2959  0.0722  0.0526
  259SOD    SOD22387   6.503   4.863   1.007 -0.0300 -0.0976 -0.3724
  260SOD    SOD22388   5.673   5.496  15.902  0.1510  0.1319 -0.3715
  261SOD    SOD22389   4.812   0.082  15.595  0.2518 -0.1271  0.0298
  262SOD    SOD22390   0.857   5.631  11.604 -0.1336  0.1624  0.0156
  263SOD    SOD22391   0.419   2.427   5.575 -0.7349 -0.0929  0.0242
  264SOD    SOD22392   5.200   0.393   5.816 -0.0465  0.3035  0.0734
  265SOD    SOD22393   0.448   1.194   5.598  0.2988 -0.4313 -0.1581
  266CLA    CLA22394   4.603   1.468   0.309 -0.1019  0.4305  0.1559
  267CLA    CLA22395   0.746   5.218  14.090 -0.2942 -0.3611  0.1291
  268CLA    CLA22396   3.670   1.664   0.235  0.2253 -0.4294  0.2183
  269CLA    CLA22397   1.123   1.700   5.195  0.6702  0.5682 -0.1585
  270CLA    CLA22398   1.156   6.368   0.935 -0.2954 -0.2884  0.1974
  271CLA    CLA22399   5.391   5.283  14.912  0.0828 -0.0530  0.0495
  272CLA    CLA22400   3.286   1.677   5.402  0.2121  0.1129  0.0048
  273CLA    CLA22401   1.520   5.012   4.927 -0.0119 -0.0186  0.0280
  274CLA    CLA22402   3.815   4.724   5.319  0.2353  0.0759  0.2733
  275CLA    CLA22403   5.131   1.869  13.182 -0.4929  0.1992  0.4452
  276CLA    CLA22404   0.132   1.794  11.892 -0.2994 -0.0003 -0.1144
  277CLA    CLA22405   0.439   3.509   1.452  0.0174 -0.0684 -0.4672
  278CLA    CLA22406   0.844   5.936  16.964  0.0439  0.0295  0.3001
  279CLA    CLA22407   4.685   1.822  13.832 -0.3334 -0.1016 -0.0131
  280CLA    CLA22408   4.458   0.272  16.159 -0.1942 -0.1302 -0.1362
  281CLA    CLA22409   6.627   4.987   2.216 -0.0507  0.1677  0.6475
  282CLA    CLA22410   4.244   0.537   3.217  0.2396 -0.5000  0.2770
  283CLA    CLA22411   4.987   3.054   4.822 -0.0229 -0.0550  0.2534
  284CLA    CLA22412   2.506   3.974   4.446  0.0640  0.0310 -0.1206
  285CLA    CLA22413   3.939   0.261  13.584 -0.0753  0.2234  0.1324
  286CLA    CLA22414   4.686   3.207   2.854  0.0705  0.2479 -0.0957
  287CLA    CLA22415   0.684   4.482  12.574 -0.3458  0.4878 -0.1266
  288CLA    CLA22416   0.577   4.549   1.708 -0.0783 -0.1635  0.0518
  289CLA    CLA22417   5.852   5.997  14.219  0.1102 -0.1444 -0.0462
  290CLA    CLA22418   2.805   4.988  16.939 -0.0896 -0.3663  0.0529
  291CLA    CLA22419   1.732   5.508  14.732 -0.0011  0.0827  0.2367
  292CLA    CLA22420   4.572   5.565   4.314  0.0843 -0.2505  0.0602
  293CLA    CLA22421   0.626   4.563   5.102  0.0712  0.0048 -0.0043
  294CLA    CLA22422   5.860   4.944   4.412  0.3010 -0.2844 -0.2544
  295CLA    CLA22423   1.261   6.029   3.826 -0.1315  0.2562 -0.0078
  296CLA    CLA22424   2.773   1.163   2.426 -0.1012  0.5805  0.3754
  297CLA    CLA22425   4.302   3.871   1.604  0.1515  0.5021  0.0917
  298CLA    CLA22426   4.459   3.147  14.728  0.2238  0.0156  0.0904
  299CLA    CLA22427   3.877   3.298   4.386 -0.2463 -0.1006 -0.1059
  300CLA    CLA22428   6.386   0.012  15.013 -0.2350  0.1638 -0.3558
  301CLA    CLA22429   5.590   1.074  13.557  0.2425 -0.0090 -0.3489
  302CLA    CLA22430   3.716   0.142   5.520  0.0469  0.3066 -0.3656
  303CLA    CLA22431   0.472   2.469   1.424  0.0593  0.1350 -0.0986
  304CLA    CLA22432   1.083   5.467  15.332  0.1879  0.3989  0.3355
  305CLA    CLA22433   4.183   2.046  14.721 -0.1347  0.2231  0.0314
  306CLA    CLA22434   6.808   0.658  15.414 -0.3075 -0.3599  0.1351
  307CLA    CLA22435   0.911   0.150   1.768 -0.0315 -0.1211 -0.4397
  308CLA    CLA22436   1.085   4.220   1.351  0.2210  0.7381  0.5511
  309CLA    CLA22437   1.949   6.774   5.186  0.0704 -0.1167 -0.4772
  310CLA    CLA22438   4.643   4.336   3.876  0.2718  0.2701  0.3780
  311CLA    CLA22439   1.103   2.897  16.717  0.4243 -0.2378 -0.3025
  312CLA    CLA22440   3.191   0.619   5.163  0.2131 -0.1245 -0.0202
  313CLA    CLA22441   1.987   3.202   2.014  0.3369 -0.1687  0.1054
  314CLA    CLA22442   6.357   4.926   0.525 -0.1366  0.4243  0.3305
  315CLA    CLA22443   5.749   5.028   4.901 -0.1480 -0.6327 -0.0971
  316CLA    CLA22444   2.953   0.928  15.568  0.2593 -0.1620  0.0184
  317CLA    CLA22445   5.463   5.702  16.577 -0.0306  0.2280 -0.0962
  318CLA    CLA22446   6.300   1.315   0.484  0.1467  0.3389 -0.5969
  319TIP3   OH222447   3.749   3.651   3.811 -0.6371 -0.1842  0.4457
  319TIP3    H122448   3.779   3.715   3.876 -0.2261 -0.5093  0.5776
  319TIP3    H222449   3.824   3.594   3.797 -1.2420 -1.1095  0.8957
  320TIP3   OH222450   2.513   6.438   0.456  0.2963  0.1919 -0.9416
  320TIP3    H122451   2.544   6.444   0.547  0.2392 -1.0674 -0.8282
  320TIP3    H222452   2.434   6.384   0.461  0.0706  0.4352 -1.7039
  321TIP3   OH222453   1.139   6.130  11.805 -0.0705  0.3069 -0.6970
  321TIP3    H122454   1.189   6.102  11.728 -0.1195 -1.5844 -0.0849
  321TIP3    H222455   1.201   6.181  11.857  0.6983 -0.4878 -0.8189
  322TIP3   OH222456   0.807   1.102   1.081  0.5955 -0.0863  0.1198
  322TIP3    H122457   0.821   1.007   1.075 -0.2197 -0.1961 -0.1109
  322TIP3    H222458   0.814   1.121   1.174  0.3147 -0.4463  0.2167
  323TIP3   OH222459   5.996   0.126  11.034  0.6899 -0.3659  0.0071
  323TIP3    H122460   5.990   0.153  11.126 -0.4861 -1.6170  0.3384
  323TIP3    H222461   5.941   0.189  10.987 -1.1348 -1.4353  0.6148
  324TIP3   OH222462   1.540   6.235   0.493 -0.0923 -0.0329  0.2691
  324TIP3    H122463   1.632   6.221   0.473 -0.1443 -1.9412  1.0805
  324TIP3    H222464   1.501   6.147   0.487 -1.8155  0.7079  0.1081
  325TIP3   OH222465   5.256   3.091   1.522 -0.1022  0.2351 -0.0676
  325TIP3    H122466   5.211   3.045   1.593 -0.0986 -0.0992 -0.2809
  325TIP3    H222467   5.347   3.065   1.531  0.0374  0.8306  0.2994
  326TIP3   OH222468   6.375   3.758  13.499 -0.0589  0.4859  0.0905
  326TIP3    H122469   6.303   3.735  13.557  0.8222 -0.5676  0.8057
  326TIP3    H222470   6.441   3.796  13.556  0.8078 -0.5296 -0.2084
  327TIP3   OH222471   6.794   5.175   1.445  0.3988  0.0033 -0.1030
  327TIP3    H122472   6.743   5.256   1.441 -0.0333 -0.2940 -0.8168
  327TIP3    H222473   6.802   5.148   1.354  0.2871 -0.9209  0.1544
  328TIP3   OH222474   0.994   2.662  14.301 -0.3883 -0.4618 -0.6380
  328TIP3    H122475   1.079   2.618  14.297 -0.3485 -0.3754 -0.7300
  328TIP3    H222476   0.943   2.609  14.362 -0.1400 -0.2922 -0.2816
  329TIP3   OH222477   0.273   5.567  17.077 -0.0732  0.1614 -0.0654
  329TIP3    H122478   0.219   5.504  17.029  0.2768  0.7304 -1.2234
  329TIP3    H222479   0.295   5.521  17.158 -1.1654 -0.5921 -0.1625
  330TIP3   OH222480   4.272   0.649   0.291 -0.3330  0.5678 -0.4581
  330TIP3    H122481   4.186   0.690   0.279 -1.1334 -0.8294  0.2135
  330TIP3    H222482   4.259   0.586   0.362  1.6715  1.4903  0.8404
  331TIP3   OH222483   1.954   3.908   6.451 -0.7899 -0.6988  0.0035
  331TIP3    H122484   1.969   3.874   6.540 -2.1111 -1.3583 -0.0062
  331TIP3    H222485   1.996   3.844   6.394 -1.5854 -1.3090  0.0799
  332TIP3   OH222486   4.003   6.603   2.655 -0.0185  0.9820 -0.2754
  332TIP3    H122487   4.080   6.599   2.598 -1.0146 -1.4503 -1.5947
  332TIP3    H222488   3.934   6.560   2.604 -1.7414  1.3354  1.6501
  333TIP3   OH222489   0.091   2.741   5.749 -0.0242  0.1477  0.1105
  333TIP3    H122490   0.130   2.827   5.735  2.2625 -0.5338  1.5688
  333TIP3    H222491   0.075   2.737   5.844 -1.0125 -0.6809 -0.0696
  334TIP3   OH222492   2.029   6.484  11.221  0.2618  0.3984 -0.0324
  334TIP3    H122493   2.125   6.486  11.217  0.4583 -0.7279  2.2923
  334TIP3    H222494   2.003   6.424  11.152  1.6427 -3.1198  2.2426
  335TIP3   OH222495   1.471   5.951  12.673 -0.3140 -0.1138  0.2144
  335TIP3    H122496   1.414   5.911  12.607 -0.9919  0.4742  0.4234
  335TIP3    H222497   1.535   6.001  12.622 -0.4787 -0.1276 -0.0102
  336TIP3   OH222498   0.058   3.719   5.237  0.3454 -0.1550  0.3358
  336TIP3    H122499   0.014   3.649   5.189 -0.5352 -0.3405  1.3797
  336TIP3    H222500   0.147   3.720   5.202 -0.1460 -0.5787 -0.9670
  337TIP3   OH222501   4.463   3.415   0.824 -0.0597 -0.3086 -0.0139
  337TIP3    H122502   4.451   3.478   0.896 -0.4994  1.5720 -1.6631
  337TIP3    H222503   4.512   3.463   0.758 -1.0143 -1.4818 -1.6219
  338TIP3   OH222504   3.594   5.851  13.360  0.3789 -0.3337 -0.0577
  338TIP3    H122505   3.657   5.917  13.388  0.6111 -0.5112 -0.1605
  338TIP3    H222506   3.628   5.819  13.276  0.2638 -0.5779 -0.0124
  339TIP3   OH222507   0.246   6.306  12.618  0.5724  0.3986 -0.3827
  339TIP3    H122508   0.210   6.394  12.608  0.1337 -0.0038 -3.1909
  339TIP3    H222509   0.322   6.304  12.559  2.9187 -0.0047  2.4523
  340TIP3   OH222510   6.322   2.600   1.741 -0.1854  0.2540 -0.1389
  340TIP3    H122511   6.331   2.674   1.681  0.8112  0.0068 -0.3212
  340TIP3    H222512   6.412   2.580   1.767 -0.5952  0.3368  1.4270
  341TIP3   OH222513   1.092   4.003   1.978  0.6266 -0.5504 -0.2173
  341TIP3    H122514   1.077   4.006   1.884 -0.1713 -0.3728 -0.0874
  341TIP3    H222515   1.041   3.928   2.009  3.3428 -2.6222 -0.3480
  342TIP3   OH222516   1.793   6.000  13.140  0.4921 -0.4634  0.5730
  342TIP3    H122517   1.745   6.082  13.155  0.8676 -0.3260  1.0417
  342TIP3    H222518   1.878   6.028  13.109 -0.2212 -0.7336 -1.8047
  343TIP3   OH222519   2.625   0.148   3.309  1.0367 -0.1055 -0.9150
  343TIP3    H122520   2.630   0.239   3.279  1.5111  0.3039  0.3656
  343TIP3    H222521   2.715   0.126   3.332  0.6225 -0.2547  0.6386
  344TIP3   OH222522   5.874   1.455   5.696  0.1681  0.4877  0.5243
  344TIP3    H122523   5.927   1.415   5.765  0.0944 -0.9640 -0.2256
  344TIP3    H222524   5.794   1.402   5.693 -0.9221  2.0282  0.9547
  345TIP3   OH222525   2.593   1.388  11.710  0.5632  0.7782 -0.2731
  345TIP3    H122526   2.583   1.294  11.724 -2.8372  0.8904 -0.9552
  345TIP3    H222527   2.600   1.397  11.615  0.0709  1.2065 -0.2772
  346TIP3   OH222528   0.643   6.384  16.240  0.2038 -0.6217  0.1765
  346TIP3    H122529   0.573   6.405  16.302  0.7059  2.6627 -0.1730
  346TIP3    H222530   0.626   6.440  16.165  3.3177  0.5366  0.1887
  347TIP3   OH222531   1.269   3.847  17.159 -0.4474  0.5465  0.2172
  347TIP3    H122532   1.345   3.798  17.128 -0.6825  0.0851  0.3542
  347TIP3    H222533   1.194   3.802  17.119 -0.6859  0.5976  0.6011
  348TIP3   OH222534   5.502   1.784   3.085  0.0157 -0.0158 -0.3449
  348TIP3    H122535   5.565   1.758   3.152 -0.1681  2.4427  0.8992
  348TIP3    H222536   5.556   1.813   3.011  0.2264 -1.8317 -0.9540
  349TIP3   OH222537   4.218   6.480   0.502  0.0359 -0.1491 -0.6255
  349TIP3    H122538   4.148   6.531   0.542  0.5247  0.0697 -0.0318
  349TIP3    H222539   4.262   6.437   0.575  0.2393 -0.6521 -1.0314
  350TIP3   OH222540   4.842   0.247   5.004 -0.3161 -0.1543  0.7077
  350TIP3    H122541   4.842   0.342   5.003 -0.5988 -0.1574 -0.1591
  350TIP3    H222542   4.778   0.223   5.071  1.2405  0.2465  2.4371
  351TIP3   OH222543   2.216   0.581   3.367  0.4827  0.1531  0.1963
  351TIP3    H122544   2.295   0.627   3.396  0.7234 -0.0662 -0.0962
  351TIP3    H222545   2.227   0.492   3.401 -0.3630  0.5057  1.4532
  352TIP3   OH222546   5.033   1.238   3.321 -0.4290 -0.1825  0.8687
  352TIP3    H122547   5.049   1.327   3.353  1.3257 -0.4221  0.7561
  352TIP3    H222548   5.029   1.246   3.226  0.3510 -0.2870  0.8181
  353TIP3   OH222549   3.425   4.637   5.621  0.3446 -0.1502  0.0075
  353TIP3    H122550   3.429   4.553   5.575  2.1359 -0.7448  1.1696
  353TIP3    H222551   3.493   4.690   5.579  0.5114  0.0566  0.5395
  354TIP3   OH222552   4.097   0.207   0.262 -0.2631  0.3667  0.2969
  354TIP3    H122553   4.028   0.156   0.221 -0.5780 -0.5701  1.9023
  354TIP3    H222554   4.176   0.185   0.213 -0.9341  0.8760 -1.0793
  355TIP3   OH222555   5.514   2.130  13.501 -0.0009  0.4914  0.2622
  355TIP3    H122556   5.450   2.157  13.434 -0.3303 -2.2495 -0.6707
  355TIP3    H222557   5.466   2.068  13.556  1.6206 -1.1028 -0.0332
  356TIP3   OH222558   5.081   1.858   3.961  0.1204 -0.1601 -0.1650
  356TIP3    H122559   5.006   1.801   3.948  0.0372 -0.1462  0.2179
  356TIP3    H222560   5.151   1.799   3.990  0.0457 -0.0799  0.1926
  357TIP3   OH222561   3.492   5.067   2.376 -0.0707 -0.4445  0.1247
  357TIP3    H122562   3.422   5.002   2.372 -0.4440 -0.0002 -2.0881
  357TIP3    H222563   3.547   5.048   2.300  0.6485  0.9158  0.2722
  358TIP3   OH222564   6.388   4.677  16.222  0.0370  0.0339  0.0590
  358TIP3    H122565   6.462   4.638  16.176  0.3590 -1.3503  1.6319
  358TIP3    H222566   6.319   4.683  16.156  0.2205 -2.5754 -0.5030
  359TIP3   OH222567   5.366   4.945  15.727 -0.3139 -0.0685 -0.3804
  359TIP3    H122568   5.352   4.885  15.654  3.2543 -1.4844 -0.0517
  359TIP3    H222569   5.388   4.889  15.801 -2.9995  1.3884  1.7058
  360TIP3   OH222570   6.493   1.931  16.389  0.8014  0.6629  0.2156
  360TIP3    H122571   6.557   1.863  16.411 -1.2096 -1.1370  0.8863
  360TIP3    H222572   6.506   1.946  16.295  1.9375  0.0670  0.2534
  361TIP3   OH222573   3.159   6.544   5.295 -0.1253  0.4389  0.2159
  361TIP3    H122574   3.219   6.612   5.263  0.3740  0.0073  0.2292
  361TIP3    H222575   3.206   6.462   5.281 -1.0845  0.0105 -0.6322
  362TIP3   OH222576   6.789   0.667  16.019  0.0070  0.8360 -0.1137
  362TIP3    H122577   6.804   0.573  16.017 -0.0407  0.7146  2.4677
  362TIP3    H222578   6.808   0.696  15.930  2.4041 -1.2320 -0.3746
  363TIP3   OH222579   1.037   1.544  16.556 -0.5062 -0.2672 -0.1431
  363TIP3    H122580   1.083   1.525  16.638 -0.6303 -1.2241 -0.2916
  363TIP3    H222581   0.989   1.625  16.574  2.0886  1.4248 -0.3206
  364TIP3   OH222582   4.348   0.934  13.291 -0.2846  0.1451  0.2700
  364TIP3    H122583   4.359   0.919  13.197 -0.9320 -1.0446  0.3622
  364TIP3    H222584   4.302   1.018  13.298 -1.1470 -0.2527 -0.5222
  365TIP3   OH222585   6.028   0.696   2.767  0.0766 -0.3116  0.2491
  365TIP3    H122586   5.950   0.726   2.814 -1.1406 -1.8715 -0.6611
  365TIP3    H222587   6.068   0.633   2.826 -1.2443 -1.9920 -0.5721
  366TIP3   OH222588   1.808   5.124   4.860 -0.2986 -0.6237  0.0828
  366TIP3    H122589   1.733   5.070   4.884 -1.1823  1.0118  1.1785
  366TIP3    H222590   1.877   5.099   4.921  0.0287 -1.9943 -0.8035
  367TIP3   OH222591   0.288   6.393  15.978 -0.0327  0.3331 -0.6787
  367TIP3    H122592   0.205   6.358  15.947 -1.6909  3.5306 -0.2902
  367TIP3    H222593   0.274   6.411  16.072  1.0972  0.8382 -0.5817
  368TIP3   OH222594   1.310   0.225  12.011 -0.4313  0.0271  0.0342
  368TIP3    H122595   1.392   0.254  11.971  1.0356 -1.1896  1.9533
  368TIP3    H222596   1.278   0.155  11.954  1.1266 -1.0635  0.4355
  369TIP3   OH222597   0.474   1.093   6.234 -0.7672  0.4052  0.1296
  369TIP3    H122598   0.472   0.999   6.248 -3.4308  0.2763 -0.6438
  369TIP3    H222599   0.565   1.118   6.250  0.1899 -2.3944 -0.4808
  370TIP3   OH222600   5.195   1.069   2.122 -0.1109  0.6454  0.2253
  370TIP3    H122601   5.197   1.078   2.027  0.4123 -0.2103  0.1452
  370TIP3    H222602   5.273   1.019   2.143 -1.1819 -0.8093  0.9202
  371TIP3   OH222603   5.279   2.209  14.507 -0.2536  0.4633 -0.1784
  371TIP3    H122604   5.348   2.160  14.462  0.6269  0.5553  1.0207
  371TIP3    H222605   5.219   2.142  14.540 -0.2671  0.3327 -0.4662
  372TIP3   OH222606   0.234   3.724   2.397  0.1304 -1.2570  0.0568
  372TIP3    H122607   0.181   3.679   2.331  0.0489 -4.1750  1.9321
  372TIP3    H222608   0.323   3.722   2.361  0.0789 -2.7195 -0.0205
  373TIP3   OH222609   1.943   4.132  17.211 -0.2633 -0.2623 -0.0461
  373TIP3    H122610   1.979   4.217  17.237 -1.4932  0.8747 -1.8874
  373TIP3    H222611   1.907   4.096  17.292  1.9438  0.0575  1.1595
  374TIP3   OH222612   1.403   0.768   1.253 -0.5237 -0.0465  0.1590
  374TIP3    H122613   1.323   0.736   1.212 -0.3036  1.4169 -1.5255
  374TIP3    H222614   1.378   0.853   1.289 -0.6340 -1.1462  2.9523
  375TIP3   OH222615   3.536   6.721   2.000 -0.5692  0.3126  0.4515
  375TIP3    H122616   3.568   6.631   1.995  0.4506  0.6809  0.1070
  375TIP3    H222617   3.472   6.728   1.928 -1.0107 -0.2579  0.7760
  376TIP3   OH222618   2.225   3.716  13.141  0.0858  0.0905  0.2216
  376TIP3    H122619   2.156   3.774  13.175  0.4585  0.0652  1.0462
  376TIP3    H222620   2.199   3.699  13.050 -0.3623  1.0411  0.1572
  377TIP3   OH222621   5.479   4.616  17.033 -0.1506  0.0684 -0.8603
  377TIP3    H122622   5.499   4.698  17.079 -1.5607  0.2702 -0.5493
  377TIP3    H222623   5.415   4.641  16.967 -0.8817 -0.8249 -0.5220
  378TIP3   OH222624   0.582   0.694   5.641  0.0903 -0.2706  0.6350
  378TIP3    H122625   0.677   0.701   5.645  0.2210 -0.0804 -1.5563
  378TIP3    H222626   0.562   0.610   5.682  1.1952 -0.3648  1.0198
  379TIP3   OH222627   6.317   2.890  16.129 -0.6872  0.0716 -0.4926
  379TIP3    H122628   6.258   2.949  16.082 -0.6420  2.5975  2.3298
  379TIP3    H222629   6.402   2.902  16.087 -0.4621  2.8844  0.5775
  380TIP3   OH222630   0.054   3.668  13.664  0.3322 -0.1634 -0.1512
  380TIP3    H122631  -0.006   3.725  13.712  1.5591 -0.0355  1.3094
  380TIP3    H222632   0.088   3.722  13.594  0.2159  0.3767  0.2039
  381TIP3   OH222633   3.760   5.441   3.391  0.2888 -0.7495 -0.0945
  381TIP3    H122634   3.690   5.450   3.457  0.4336  0.0571 -0.0389
  381TIP3    H222635   3.832   5.494   3.426  0.8720 -1.4393 -0.2345
  382TIP3   OH222636   0.733   1.900  14.271  0.8656  0.5171 -0.2128
  382TIP3    H122637   0.658   1.946  14.310  1.5399  1.6241 -0.2077
  382TIP3    H222638   0.781   1.866  14.346  2.0543  2.4787 -0.0269
  383TIP3   OH222639   2.069   2.359  13.303 -0.4519 -0.3162  0.6691
  383TIP3    H122640   2.116   2.275  13.297 -1.2104 -0.7018 -0.1032
  383TIP3    H222641   2.047   2.380  13.212  0.4196  1.1385  0.7604
  384TIP3   OH222642   1.112   2.345   3.637 -0.4782 -0.0199  0.2249
  384TIP3    H122643   1.147   2.418   3.690 -0.7839  0.5748 -0.3756
  384TIP3    H222644   1.185   2.318   3.582 -0.8951  1.1951 -0.9995
  385TIP3   OH222645   4.807   5.425  11.471  0.4047 -0.2550 -0.3485
  385TIP3    H122646   4.762   5.510  11.468  0.0339 -0.3877  0.9586
  385TIP3    H222647   4.857   5.422  11.389  0.3563  1.1781 -0.4592
  386TIP3   OH222648   2.651   1.906  11.770  0.5336 -0.1435  0.1275
  386TIP3    H122649   2.653   2.001  11.782  2.2318  0.0016 -1.0563
  386TIP3    H222650   2.564   1.880  11.802 -0.0494  1.8174  0.2711
  387TIP3   OH222651   1.526   0.056   6.967 -0.3162  0.1998  0.1417
  387TIP3    H122652   1.531   0.147   6.940 -2.2020 -0.2937 -2.1491
  387TIP3    H222653   1.433   0.034   6.964  0.2198 -2.3622 -1.5360
  388TIP3   OH222654   1.159   2.438  14.182  0.1496  0.1536  0.2099
  388TIP3    H122655   1.244   2.398  14.196  0.0719 -0.0582  0.0733
  388TIP3    H222656   1.097   2.365  14.180  0.0340  0.2631 -0.2399
  389TIP3   OH222657   0.947   2.469   1.167  0.1705  0.0013 -0.0581
  389TIP3    H122658   0.863   2.425   1.153  1.3581 -2.0044 -1.4159
  389TIP3    H222659   0.930   2.561   1.145 -1.7160 -0.2879  0.0317
  390TIP3   OH222660   4.243   6.574   5.129 -0.1928 -0.1560  0.3194
  390TIP3    H122661   4.255   6.497   5.184 -1.8002 -1.1979 -0.6842
  390TIP3    H222662   4.328   6.588   5.088  0.6249 -0.2396  1.9145
  391TIP3   OH222663   6.751   3.588  16.009 -0.1043 -0.7233 -0.4947
  391TIP3    H122664   6.661   3.558  16.000 -0.4258  0.5404 -2.0716
  391TIP3    H222665   6.744   3.680  16.035  0.7481 -0.7973  0.0520
  392TIP3   OH222666   5.959   2.541   0.152  0.2834  0.2052 -0.2330
  392TIP3    H122667   5.874   2.498   0.167  0.6651 -0.9209 -1.2223
  392TIP3    H222668   5.947   2.629   0.189 -1.7921  0.5579 -1.5585
  393TIP3   OH222669   1.699   1.493   1.531  0.1887 -0.3521 -0.2964
  393TIP3    H122670   1.642   1.492   1.608 -0.6504  0.7878 -0.8686
  393TIP3    H222671   1.646   1.533   1.462  1.2590 -0.4338 -1.2022
  394TIP3   OH222672   4.497   0.098   5.932  0.7958  0.0862 -0.0740
  394TIP3    H122673   4.447   0.089   6.014 -0.0221 -1.3972 -0.6950
  394TIP3    H222674   4.574   0.043   5.945  1.7098  1.4221  0.4189
  395TIP3   OH222675   2.507   5.704   3.514 -0.6252 -0.2982  0.1446
  395TIP3    H122676   2.596   5.695   3.547  0.0361  0.9808 -1.1409
  395TIP3    H222677   2.516   5.699   3.419 -1.6408  1.6813 -0.1102
  396TIP3   OH222678   5.605   0.405  14.776  0.3498 -0.3087  0.0811
  396TIP3    H122679   5.666   0.341  14.813 -0.4105 -0.9389  0.2722
  396TIP3    H222680   5.630   0.488  14.816  0.1064 -0.8200  1.3366
  397TIP3   OH222681   1.265   5.574  16.192 -0.1879  0.2426  0.6413
  397TIP3    H122682   1.187   5.623  16.220 -0.6282 -0.2997  0.3833
  397TIP3    H222683   1.304   5.542  16.274 -1.2104 -0.9404  0.6967
  398TIP3   OH222684   0.678   5.242  12.971 -0.4211 -0.0106 -0.2244
  398TIP3    H122685   0.742   5.177  12.941  0.5792  2.3282 -3.6946
  398TIP3    H222686   0.732   5.315  13.002 -1.5068  0.3038  1.0072
  399TIP3   OH222687   1.277   3.760   1.858 -0.1688 -0.6197  0.0366
  399TIP3    H122688   1.264   3.756   1.953 -0.3387  0.1301  0.0545
  399TIP3    H222689   1.347   3.825   1.846 -0.0426 -0.8224 -0.3452
  400TIP3   OH222690   1.988   3.753   4.168  0.1909  0.0515 -0.2125
  400TIP3    H122691   1.898   3.721   4.170  0.4489 -0.7869 -0.9644
  400TIP3    H222692   1.998   3.790   4.080 -0.0265  2.0776  0.5466
  401TIP3   OH222693   4.201   2.611   4.881  0.1092  0.3927 -0.2326
  401TIP3    H122694   4.196   2.662   4.962 -0.5084 -0.8907  0.5626
  401TIP3    H222695   4.123   2.556   4.882  0.4771 -0.1801 -1.3360
  402TIP3   OH222696   0.154   1.893  16.790  0.1747  0.2407 -0.2219
  402TIP3    H122697   0.224   1.839  16.753 -1.8570 -0.6255 -3.2108
  402TIP3    H222698   0.127   1.949  16.717 -2.9817 -0.3211  0.3887
  403TIP3   OH222699   4.355   4.771   4.790 -0.8083  0.0378  0.4733
  403TIP3    H122700   4.393   4.689   4.758  2.7029  1.5593  0.3303
  403TIP3    H222701   4.359   4.764   4.885 -0.7478 -0.0470  0.4644
  404TIP3   OH222702   5.084   6.811  15.317 -0.2364 -0.1082 -0.0702
  404TIP3    H122703   5.124   6.805  15.230 -1.1870 -0.1830 -0.5106
  404TIP3    H222704   5.135   6.879  15.362 -0.1741  0.4194 -0.9219
  405TIP3   OH222705   0.709   5.847   4.589  0.2307 -0.0312  0.1729
  405TIP3    H122706   0.718   5.851   4.684  0.3193  0.5963  0.1430
  405TIP3    H222707   0.720   5.937   4.560 -0.1019 -0.1687 -0.4075
  406TIP3   OH222708   1.952   5.713   5.821 -0.5255  0.0180  0.5181
  406TIP3    H122709   1.880   5.650   5.822  0.2937 -0.9470  0.9004
  406TIP3    H222710   2.009   5.686   5.894  0.0259  0.9874  0.4663
  407TIP3   OH222711   3.497   5.291  13.550 -0.0915  0.0376  0.2981
  407TIP3    H122712   3.561   5.304  13.481 -0.4046 -0.0541 -0.0126
  407TIP3    H222713   3.544   5.245  13.619 -0.0874 -0.9610 -0.3535
  408TIP3   OH222714   6.476   1.612   3.532  0.1584 -0.0304 -0.4885
  408TIP3    H122715   6.505   1.616   3.441  0.9957  0.4101 -0.2110
  408TIP3    H222716   6.527   1.679   3.577 -1.7988  1.2972 -0.0934
  409TIP3   OH222717   4.864   6.633   5.440  0.2409  0.2430  0.6603
  409TIP3    H122718   4.792   6.631   5.503  0.9973 -1.4273  1.5317
  409TIP3    H222719   4.917   6.556   5.461  0.6262 -0.2946 -1.9065
  410TIP3   OH222720   4.064   1.734   3.404  0.6938  0.2000 -0.4328
  410TIP3    H122721   4.058   1.638   3.397  0.1606  0.0926  1.0814
  410TIP3    H222722   4.155   1.750   3.429  1.2335  0.2382 -2.2821
  411TIP3   OH222723   0.540   6.740   3.229  0.2422  0.2984  0.0637
  411TIP3    H122724   0.567   6.648   3.237  0.0904  0.1042 -1.3608
  411TIP3    H222725   0.621   6.788   3.214  0.4530  0.5777  1.8465
  412TIP3   OH222726   2.286   6.017   1.338 -0.4337 -0.3360 -0.6259
  412TIP3    H122727   2.218   6.018   1.405 -0.6087 -0.3646 -0.7983
  412TIP3    H222728   2.355   6.073   1.372 -0.6157 -0.1734 -0.5184
  413TIP3   OH222729   4.318   1.394   3.306 -0.2739  0.8104 -0.4378
  413TIP3    H122730   4.306   1.326   3.240  1.4695 -0.5795  0.5955
  413TIP3    H222731   4.411   1.389   3.329 -0.5136  2.2985  1.0188
  414TIP3   OH222732   0.891   0.749  14.774 -0.5619 -0.0486 -0.0972
  414TIP3    H122733   0.836   0.760  14.697 -1.6438 -2.7710  0.1943
  414TIP3    H222734   0.981   0.752  14.741 -1.0086 -2.2209 -1.6951
  415TIP3   OH222735   0.023   2.088   0.344 -0.3719 -0.2243 -0.4972
  415TIP3    H122736  -0.016   2.167   0.306 -0.0746  0.7859  1.2079
  415TIP3    H222737  -0.036   2.065   0.416 -1.3917 -2.5952 -1.9744
  416TIP3   OH222738   4.506   2.806  11.192 -0.6836 -0.2793 -0.2072
  416TIP3    H122739   4.534   2.858  11.267  1.8005  0.9297 -1.8374
  416TIP3    H222740   4.460   2.867  11.135  0.7617 -0.2104 -1.3557
  417TIP3   OH222741   2.544   1.573  15.108 -0.4445 -0.1543 -0.3098
  417TIP3    H122742   2.594   1.502  15.148  1.8290  1.5919  0.1287
  417TIP3    H222743   2.575   1.577  15.017  0.5267  1.1166  0.0391
  418TIP3   OH222744   4.531   3.468  13.246  0.0575  0.5765  0.1344
  418TIP3    H122745   4.610   3.503  13.204 -1.1268  1.6706 -1.2976
  418TIP3    H222746   4.460   3.488  13.184 -1.1354 -1.8118  0.6210
  419TIP3   OH222747   1.022   2.338   5.427  0.0184  0.3499  0.0098
  419TIP3    H122748   1.037   2.273   5.497 -0.5570  0.3437  0.1316
  419TIP3    H222749   0.936   2.316   5.392 -0.3836  1.3208  0.3510
  420TIP3   OH222750   0.608   3.143   1.138 -0.3478 -0.4142 -0.2490
  420TIP3    H122751   0.663   3.132   1.061  0.3267  0.3859  0.0997
  420TIP3    H222752   0.545   3.211   1.113 -0.5586 -0.6345 -0.3193
  421TIP3   OH222753   4.013   5.706   6.477  0.5831  0.0222  0.1209
  421TIP3    H122754   4.026   5.766   6.403 -0.4743  0.7248  0.4822
  421TIP3    H222755   3.924   5.724   6.507  0.3914 -1.4515  0.5083
  422TIP3   OH222756   2.049   4.167   6.725  0.6859  0.4521  0.0212
  422TIP3    H122757   1.978   4.115   6.765 -1.5785  0.8024 -3.1237
  422TIP3    H222758   2.091   4.106   6.665 -0.7975  1.6349 -2.3482
  423TIP3   OH222759   5.397   2.969   1.723  0.2232  0.1551  0.2054
  423TIP3    H122760   5.466   2.921   1.676  1.1077 -1.4479  2.9405
  423TIP3    H222761   5.338   2.901   1.755  0.0052  1.0924  1.9205
  424TIP3   OH222762   5.172   5.976   5.714 -0.3710  0.6734  0.1679
  424TIP3    H122763   5.204   5.962   5.625  1.3764 -0.5671  0.9287
  424TIP3    H222764   5.203   6.064   5.737 -1.4966  1.3197 -0.6731
  425TIP3   OH222765   1.881   3.769  11.941  0.4353  0.2098  0.2124
  425TIP3    H122766   1.844   3.687  11.908 -1.9617  0.7651  1.2828
  425TIP3    H222767   1.951   3.742  12.000 -0.1122 -1.0710  0.3084
  426TIP3   OH222768   3.964   4.288  13.021  0.4140  0.1176 -0.4562
  426TIP3    H122769   4.033   4.312  13.083  1.7761  0.5348 -2.0359
  426TIP3    H222770   3.920   4.214  13.061  0.2329  1.3093  1.6826
  427TIP3   OH222771   6.741   3.677   3.007  0.5142 -0.3297 -0.2377
  427TIP3    H122772   6.691   3.710   3.082 -0.1047  0.2615 -0.8981
  427TIP3    H222773   6.682   3.615   2.964  0.9634 -0.8635 -0.1012
  428TIP3   OH222774   6.215   3.206  10.607 -0.4890  0.0261 -0.3307
  428TIP3    H122775   6.149   3.137  10.609 -1.5366  0.9813 -0.8977
  428TIP3    H222776   6.191   3.263  10.680  0.1681 -0.0134 -0.0771
  429TIP3   OH222777   1.642   1.920   5.750  0.3025 -0.1730 -0.1601
  429TIP3    H122778   1.632   2.010   5.719 -1.1220  0.2614  1.4036
  429TIP3    H222779   1.587   1.916   5.829  0.6941 -2.2874  0.0517
  430TIP3   OH222780   5.975   4.131  14.204 -0.2412  0.1450 -0.0647
  430TIP3    H122781   5.931   4.203  14.159 -1.0634  1.3315  2.4180
  430TIP3    H222782   5.907   4.092  14.259  1.1453  0.3462  1.9244
  431TIP3   OH222783   6.315   3.644   1.870 -0.2876 -0.1966  0.0586
  431TIP3    H122784   6.242   3.585   1.887 -0.6832 -0.2408 -1.6428
  431TIP3    H222785   6.280   3.711   1.812  1.1571 -0.6240 -1.3902
  432TIP3   OH222786   0.666   6.032  15.637  0.2497 -1.0524 -0.2343
  432TIP3    H122787   0.582   5.987  15.631 -0.2600 -0.0079 -1.2545
  432TIP3    H222788   0.657   6.108  15.581  1.9120 -0.9457 -0.4147
  433TIP3   OH222789   3.028   3.447  15.466 -0.6349 -0.4890 -0.0724
  433TIP3    H122790   3.056   3.470  15.555  0.1330 -2.1036  0.1527
  433TIP3    H222791   2.949   3.497  15.451 -0.8003 -0.2249  1.5583
  434TIP3   OH222792   2.020   1.684   3.011 -0.1469  0.4198  0.1664
  434TIP3    H122793   2.097   1.648   2.967 -0.7624 -0.6964 -0.0488
  434TIP3    H222794   2.049   1.703   3.100  1.4141  3.6767 -0.9062
  435TIP3   OH222795   1.728   4.172  15.691 -0.8298  0.3955  0.3887
  435TIP3    H122796   1.714   4.086  15.653 -0.1146  0.3597  0.1959
  435TIP3    H222797   1.693   4.233  15.627  0.1828  0.3264 -0.2530
  436TIP3   OH222798   6.105   0.124   2.026  0.3515 -0.2310  0.6960
  436TIP3    H122799   6.068   0.052   2.078 -0.9788  0.3625  0.6188
  436TIP3    H222800   6.090   0.098   1.936  0.4356 -0.1377  0.6549
  437TIP3   OH222801   4.291   5.710  16.536 -0.3912 -0.2533 -0.4756
  437TIP3    H122802   4.357   5.729  16.603 -0.6497 -0.9724  0.0003
  437TIP3    H222803   4.250   5.795  16.518  0.2507  0.0925 -0.3351
  438TIP3   OH222804   6.167   4.722   0.734  0.2614 -0.5349  0.1641
  438TIP3    H122805   6.195   4.650   0.790  0.9216  0.3367  0.9766
  438TIP3    H222806   6.249   4.758   0.698 -0.0464 -0.1251 -0.1429
  439TIP3   OH222807   3.142   2.194  15.837 -0.2265  0.2831  0.5210
  439TIP3    H122808   3.223   2.244  15.827  0.0829  0.2233  2.3840
  439TIP3    H222809   3.151   2.150  15.921 -1.7676 -0.5715  0.2825
  440TIP3   OH222810   6.466   4.161  10.971 -0.1773 -0.5631 -0.0459
  440TIP3    H122811   6.372   4.146  10.984 -0.4290  0.9822  0.0609
  440TIP3    H222812   6.470   4.241  10.919  1.0755 -1.1771 -0.9326
  441TIP3   OH222813   6.461   2.875   1.182  0.1694  0.2484  0.3204
  441TIP3    H122814   6.499   2.823   1.112  0.4483  1.1802 -0.2427
  441TIP3    H222815   6.367   2.868   1.169  0.2214  0.7836 -0.4508
  442TIP3   OH222816   4.399   1.085   5.024 -0.4492 -0.4747  0.0633
  442TIP3    H122817   4.342   1.138   5.080 -0.2345 -0.5534  0.3566
  442TIP3    H222818   4.486   1.096   5.060 -0.3423 -0.7069 -0.1201
  443TIP3   OH222819   1.709   0.403  11.576  0.1302 -0.5832  0.2207
  443TIP3    H122820   1.681   0.380  11.487  0.1438 -2.7200  0.7123
  443TIP3    H222821   1.804   0.413  11.569  0.1258 -0.6881 -0.0123
  444TIP3   OH222822   4.513   4.528  13.573  0.3234 -0.4417  0.4408
  444TIP3    H122823   4.575   4.558  13.507  2.3539 -0.8186  2.1006
  444TIP3    H222824   4.554   4.452  13.613 -0.1595  0.5445  3.0387
  445TIP3   OH222825   6.168   6.002  12.522 -0.0927  0.9317  0.0416
  445TIP3    H122826   6.085   6.041  12.548 -0.1271  0.3974  0.7618
  445TIP3    H222827   6.211   6.069  12.469 -0.3927  1.7158  0.7783
  446TIP3   OH222828   4.361   0.204   5.374 -0.4840 -0.2683  0.3564
  446TIP3    H122829   4.299   0.276   5.358  0.0427  0.0613 -0.2912
  446TIP3    H222830   4.438   0.247   5.412  0.4265 -0.2248 -1.4134
  447TIP3   OH222831   2.485   1.103  14.067 -0.2037 -0.7437  0.1271
  447TIP3    H122832   2.467   1.197  14.068  0.8617 -0.4243 -2.4422
  447TIP3    H222833   2.536   1.088  14.146  1.9462  1.4523 -0.6869
  448TIP3   OH222834   3.558   5.146   6.255 -0.2098  0.4272 -0.5092
  448TIP3    H122835   3.466   5.118   6.261 -0.1169  0.2960  0.3704
  448TIP3    H222836   3.604   5.070   6.220 -0.2735  0.1281  0.0433
  449TIP3   OH222837   3.241   4.932   5.416  0.5992  0.3297 -0.0522
  449TIP3    H122838   3.268   4.977   5.335  0.8518 -1.2729 -0.9044
  449TIP3    H222839   3.199   4.851   5.385  1.3554 -0.6741  1.4411
  450TIP3   OH222840   1.931   4.277  16.321  0.1661  0.2498 -0.0022
  450TIP3    H122841   1.911   4.370  16.322  0.5525  0.3382 -0.0702
  450TIP3    H222842   2.006   4.267  16.380  0.5677  0.0963 -0.5179
  451TIP3   OH222843   6.520   6.685   2.955  0.2735  0.4515 -0.4606
  451TIP3    H122844   6.541   6.615   3.018 -2.8153  0.8001  1.1419
  451TIP3    H222845   6.594   6.745   2.961  1.0558 -0.6063  1.2896
  452TIP3   OH222846   2.425   1.157   3.874 -0.3070  0.1194 -0.0111
  452TIP3    H122847   2.404   1.098   3.947  1.5666 -0.1585  0.3658
  452TIP3    H222848   2.401   1.107   3.796 -1.1917 -0.0728  0.3689
  453TIP3   OH222849   1.069   3.721   5.824 -0.3711  0.2700  0.4470
  453TIP3    H122850   1.093   3.770   5.902 -0.4049 -0.4314  0.9054
  453TIP3    H222851   1.117   3.763   5.753  0.2837  0.4215  0.9685
  454TIP3   OH222852   3.928   4.617  11.737  0.1831 -0.4865  0.4007
  454TIP3    H122853   3.906   4.693  11.792 -1.2472 -0.5780  0.0094
  454TIP3    H222854   3.981   4.561  11.794  0.2157  0.2338  1.1036
  455TIP3   OH222855   0.885   1.856  14.493  0.2287  0.0298 -0.3140
  455TIP3    H122856   0.855   1.881  14.580 -0.5132 -1.4883 -0.1027
  455TIP3    H222857   0.980   1.861  14.498  0.1577  1.0072  0.2498
  456TIP3   OH222858   3.297   4.618  12.392 -0.0794 -0.0143  0.5116
  456TIP3    H122859   3.327   4.676  12.322 -1.1046 -0.8696 -0.6701
  456TIP3    H222860   3.357   4.636  12.465  1.9069 -0.0863 -1.0047
  457TIP3   OH222861   5.172   3.793  16.338 -0.0613 -0.0172  0.2692
  457TIP3    H122862   5.220   3.765  16.260  1.4483  0.8612  0.8509
  457TIP3    H222863   5.195   3.885  16.350  0.1113 -0.2419  2.0059
  458TIP3   OH222864   5.424   6.037   4.462 -0.0961 -0.0727  0.0535
  458TIP3    H122865   5.364   5.983   4.410  0.2384 -1.0087  0.6203
  458TIP3    H222866   5.401   6.018   4.553 -0.6164  1.4843  0.2818
  459TIP3   OH222867   5.147   6.059  15.663 -0.1198  0.1392  0.4490
  459TIP3    H122868   5.091   6.062  15.740 -1.4424  1.2689 -0.4995
  459TIP3    H222869   5.186   6.146  15.658  1.8600 -0.6446  1.1289
  460TIP3   OH222870   1.310   1.540   5.852  0.4660  0.2839 -0.3464
  460TIP3    H122871   1.243   1.493   5.902  0.8963 -0.5815 -0.5815
  460TIP3    H222872   1.393   1.500   5.878  0.9402  1.4997  0.1185
  461TIP3   OH222873   0.622   1.399   3.171  0.1885 -0.5226  0.8438
  461TIP3    H122874   0.702   1.373   3.125  0.1855  0.3763  0.3060
  461TIP3    H222875   0.652   1.443   3.250  0.2428  0.0720  0.4997
  462TIP3   OH222876   6.293   1.037   4.897  0.1977  0.2101 -0.0051
  462TIP3    H122877   6.245   1.042   4.814 -0.1860 -0.4932  0.1693
  462TIP3    H222878   6.320   0.946   4.905  2.2578  0.7425 -0.4591
  463TIP3   OH222879   6.220   1.790   3.582 -0.0070 -0.1059 -0.5392
  463TIP3    H122880   6.285   1.754   3.522  0.8773  0.2490  0.1785
  463TIP3    H222881   6.215   1.725   3.653  1.3022  0.9367  0.5611
  464TIP3   OH222882   1.924   6.501   1.603 -0.0148 -0.3240 -0.2325
  464TIP3    H122883   1.957   6.539   1.522 -2.5993 -1.5933 -2.0086
  464TIP3    H222884   1.994   6.441   1.631  0.8901  0.0502 -1.5734
  465TIP3   OH222885   2.739   5.268   2.457  0.5267 -0.3609 -0.6800
  465TIP3    H122886   2.707   5.357   2.469  1.5817  0.2046 -1.8547
  465TIP3    H222887   2.659   5.214   2.451 -0.1120  0.2805  1.2852
  466TIP3   OH222888   2.786   4.037  15.018 -0.4594  0.5188 -0.3550
  466TIP3    H122889   2.784   4.068  14.928 -2.3887  1.4051 -0.0364
  466TIP3    H222890   2.859   4.084  15.058 -0.4778  1.1673 -1.0700
  467TIP3   OH222891   5.798   4.686   2.936  0.1089 -0.2483  0.8673
  467TIP3    H122892   5.875   4.638   2.908  0.5294  0.3535  0.9688
  467TIP3    H222893   5.815   4.777   2.911  0.1013  0.1569  2.2136
  468TIP3   OH222894   2.372   2.373   5.678  0.0652 -0.1941  0.4550
  468TIP3    H122895   2.447   2.320   5.650 -0.8609 -1.4592  0.2658
  468TIP3    H222896   2.405   2.423   5.753  0.6550 -2.0011  1.4657
  469TIP3   OH222897   6.544   0.062   0.055 -0.5190  0.3296 -0.6040
  469TIP3    H122898   6.625   0.026   0.018 -0.8995 -0.0497 -1.0834
  469TIP3    H222899   6.477   0.043  -0.011 -0.7152  2.0080 -0.9192
  470TIP3   OH222900   3.227   3.549  12.102 -0.4606 -0.3923  0.6663
  470TIP3    H122901   3.269   3.629  12.134  0.2996 -0.7611  0.6038
  470TIP3    H222902   3.217   3.494  12.181  0.0186 -0.6797  0.5292
  471TIP3   OH222903   6.559   3.728  17.083  0.0785  0.0492 -0.2811
  471TIP3    H122904   6.597   3.641  17.098 -0.4769 -0.5365 -2.0772
  471TIP3    H222905   6.628   3.789  17.109  0.8961 -0.9405 -0.0615
  472TIP3   OH222906   3.246   6.425  12.150  0.1456  0.3259  0.0886
  472TIP3    H122907   3.228   6.363  12.080  1.8722 -1.7058  1.2977
  472TIP3    H222908   3.208   6.507  12.120 -1.1020 -0.9776 -2.1995
  473TIP3   OH222909   0.367   6.669  16.990 -0.4149  0.2420  0.2126
  473TIP3    H122910   0.288   6.638  17.034 -1.0077  1.6856  0.2000
  473TIP3    H222911   0.364   6.627  16.904 -0.4436 -0.7726  0.6902
  474TIP3   OH222912   5.159   0.829  14.459 -0.5219 -0.2002  0.5700
  474TIP3    H122913   5.204   0.745  14.467  1.4562  0.8224  0.8049
  474TIP3    H222914   5.160   0.849  14.366  0.5174  0.3247  0.6852
  475TIP3   OH222915   1.015   1.994   3.807  0.0862 -0.8572 -0.6735
  475TIP3    H122916   0.941   2.045   3.773  1.0173  0.4826 -0.8034
  475TIP3    H222917   1.009   2.005   3.902  0.8765  0.4417 -0.7415
  476TIP3   OH222918   0.418   1.651   3.294  0.1101  0.4912  0.3571
  476TIP3    H122919   0.333   1.675   3.257 -0.0629 -0.4778  0.0795
  476TIP3    H222920   0.482   1.689   3.234 -0.1625 -0.5003 -0.5971
  477TIP3   OH222921   2.923   2.089  14.845 -0.0546  0.4211  0.5872
  477TIP3    H122922   3.012   2.054  14.857 -0.3786 -0.7866 -0.3073
  477TIP3    H222923   2.877   2.064  14.925  0.6210  1.8248  1.4487
  478TIP3   OH222924   2.228   1.471  13.932 -0.0931  0.4468 -0.6959
  478TIP3    H122925   2.203   1.403  13.869 -0.3669  0.2305 -0.3566
  478TIP3    H222926   2.210   1.432  14.018  1.2822  0.3327 -0.4355
  479TIP3   OH222927   3.506   1.887  15.978  0.0073 -0.0364  0.6060
  479TIP3    H122928   3.562   1.877  15.900 -1.3317  1.6542 -0.6432
  479TIP3    H222929   3.426   1.840  15.955 -1.0428  1.8562  0.2229
  480TIP3   OH222930   2.056   5.649   1.861  0.8684  0.1676 -0.4312
  480TIP3    H122931   2.067   5.575   1.802 -1.2313  1.0245 -2.0581
  480TIP3    H222932   2.019   5.718   1.806 -3.9855  0.1718  2.2401
  481TIP3   OH222933   5.452   5.451  15.329 -0.3768 -0.2333 -0.5815
  481TIP3    H122934   5.447   5.477  15.421 -0.5021 -0.1118 -0.6237
  481TIP3    H222935   5.545   5.458  15.307 -0.1453 -1.5241 -0.0900
  482TIP3   OH222936   4.194   5.221  17.019  1.0587 -0.4683  0.3104
  482TIP3    H122937   4.134   5.284  16.979 -0.4957 -2.0346  0.0145
  482TIP3    H222938   4.265   5.212  16.955  0.3295 -0.4224 -0.5330
  483TIP3   OH222939   6.586   3.516   3.776  0.4564  0.2931 -0.2719
  483TIP3    H122940   6.655   3.578   3.799  0.0198  0.2989  1.1390
  483TIP3    H222941   6.514   3.537   3.836 -0.4064 -0.3488 -1.0450
  484TIP3   OH222942   1.527   5.585   4.052  0.0377 -0.4729  0.0792
  484TIP3    H122943   1.456   5.590   3.989  1.5546  0.0227 -1.6911
  484TIP3    H222944   1.601   5.551   4.001  0.6682 -2.5847  2.2413
  485TIP3   OH222945   4.085   5.071   0.495 -0.2333  0.4205 -0.4530
  485TIP3    H122946   4.167   5.093   0.537  0.8808 -0.8256 -1.8434
  485TIP3    H222947   4.102   5.080   0.401 -1.2728 -1.0384 -0.8375
  486TIP3   OH222948   2.414   1.442   0.466 -0.3279  0.0678 -0.4579
  486TIP3    H122949   2.339   1.384   0.454 -1.4575  1.2879  0.3522
  486TIP3    H222950   2.382   1.529   0.442  0.2212  0.9302  1.6506
  487TIP3   OH222951   1.923   3.310   2.560 -0.3653  0.4148  0.0050
  487TIP3    H122952   1.964   3.373   2.501  1.7879 -0.2464  0.6736
  487TIP3    H222953   1.960   3.226   2.534 -0.0440 -0.0019  1.6887
  488TIP3   OH222954   2.112   6.635  15.917  0.3107 -0.5487 -0.3623
  488TIP3    H122955   2.127   6.680  15.834  2.0848  0.2278  0.3214
  488TIP3    H222956   2.193   6.587  15.933  0.4852  0.2924  1.4953
  489TIP3   OH222957   1.718   0.715   3.347  0.7285  0.0688  0.4370
  489TIP3    H122958   1.799   0.709   3.397  0.5075 -0.5788  0.7204
  489TIP3    H222959   1.687   0.625   3.339 -0.9056  0.4422  1.9100
  490TIP3   OH222960   6.361   6.450   3.424  0.0634 -0.1098 -0.2396
  490TIP3    H122961   6.356   6.360   3.456  0.5157 -0.1733 -0.3343
  490TIP3    H222962   6.430   6.447   3.357  0.9663  0.5562  0.6261
  491TIP3   OH222963   1.561   4.604  13.386 -0.2873  0.1519  0.0589
  491TIP3    H122964   1.636   4.654  13.419 -1.3242  2.0997 -0.3961
  491TIP3    H222965   1.569   4.608  13.290 -1.0482  0.5240  0.0020
  492TIP3   OH222966   0.676   1.760   4.625  0.1827  0.0203 -0.3904
  492TIP3    H122967   0.664   1.667   4.603  1.5179 -0.1097 -0.6338
  492TIP3    H222968   0.609   1.777   4.692 -1.5768 -0.5049 -1.9295
  493TIP3   OH222969   0.127   6.749   2.697 -0.1228  0.6509 -0.1559
  493TIP3    H122970   0.218   6.761   2.724 -0.5142 -0.4735  1.8727
  493TIP3    H222971   0.126   6.768   2.604  2.0649  1.3010 -0.0801
  494TIP3   OH222972   0.821   0.289  10.712  0.1092  0.2430 -0.4106
  494TIP3    H122973   0.822   0.284  10.808  1.0999 -1.5452 -0.4663
  494TIP3    H222974   0.882   0.221  10.684  1.2870  1.9423 -2.2872
  495TIP3   OH222975   2.903   5.811   6.022 -0.3917 -0.3825 -0.2275
  495TIP3    H122976   2.964   5.885   6.029  0.3192 -0.9296 -0.6118
  495TIP3    H222977   2.882   5.806   5.928 -2.0961  0.6375  0.0423
  496TIP3   OH222978   2.949   6.151   3.481  0.0445 -0.0540  0.1690
  496TIP3    H122979   3.006   6.121   3.410 -0.1992 -0.1658  0.0163
  496TIP3    H222980   2.865   6.168   3.437  0.3681  1.5619  0.0995
  497TIP3   OH222981   1.611   0.933  13.105  0.2897 -0.1171 -0.5082
  497TIP3    H122982   1.580   0.916  13.016 -0.9811  2.0853 -0.5635
  497TIP3    H222983   1.578   1.021  13.126 -0.6459 -1.0657  2.6523
  498TIP3   OH222984   6.786   1.235  11.110 -0.0035 -0.0128  0.1779
  498TIP3    H122985   6.785   1.173  11.037 -0.7421  2.5136 -2.1390
  498TIP3    H222986   6.711   1.292  11.094  0.9151  1.8054  1.8732
  499TIP3   OH222987   3.703   4.315   0.793  0.1274  0.4902 -0.1174
  499TIP3    H122988   3.676   4.302   0.702  0.4543 -1.2430  0.0057
  499TIP3    H222989   3.780   4.259   0.804  0.9336  1.7072  0.8669
  500TIP3   OH222990   0.183   0.291   6.022  0.4569  0.4423  0.1794
  500TIP3    H122991   0.100   0.274   6.068  0.7834 -3.4019 -0.3272
  500TIP3    H222992   0.235   0.340   6.086 -0.1950 -2.0660  2.8671
  501TIP3   OH222993   1.209   5.249  10.736 -0.0383  0.1363  0.4760
  501TIP3    H122994   1.300   5.257  10.765 -0.0791  0.8083  0.4201
  501TIP3    H222995   1.157   5.260  10.816 -0.1794  2.6574  0.1069
  502TIP3   OH222996   5.950   5.449   5.501  0.0824  0.4722 -0.0597
  502TIP3    H122997   6.012   5.390   5.545 -0.6559 -1.1817 -1.1400
  502TIP3    H222998   5.866   5.431   5.543  0.2338  2.5800  1.2733
  503TIP3   OH222999   2.515   2.882   0.247 -0.2180  0.1341  0.0486
  503TIP3    H123000   2.525   2.790   0.272 -0.9079  0.3558  1.2102
  503TIP3    H223001   2.460   2.920   0.315 -0.2307  1.3396 -0.5975
  504TIP3   OH223002   6.812   4.160  15.271  0.6802  0.4882 -0.2102
  504TIP3    H123003   6.767   4.075  15.272  0.5635  0.5025 -1.8345
  504TIP3    H223004   6.898   4.142  15.309 -0.1479  0.1617  1.6123
  505TIP3   OH223005   4.430   4.769  16.557 -0.4497  0.2038  0.3318
  505TIP3    H123006   4.490   4.705  16.520 -1.7524 -2.3015  2.2851
  505TIP3    H223007   4.406   4.824  16.482  1.4883 -0.9215 -1.2256
  506TIP3   OH223008   2.771   6.212   5.533 -1.0997  0.4024 -0.2331
  506TIP3    H123009   2.811   6.244   5.452 -1.5926  1.8523  0.0716
  506TIP3    H223010   2.752   6.291   5.583 -1.0535 -0.4608  1.1925
  507TIP3   OH223011   4.759   1.190  15.414  0.4955  0.3598 -0.3044
  507TIP3    H123012   4.765   1.187  15.509 -1.0031  0.0052 -0.2094
  507TIP3    H223013   4.708   1.269  15.395 -1.9523 -1.2254 -0.6398
  508TIP3   OH223014   3.459   6.412   0.695  0.0086 -0.0906 -0.1077
  508TIP3    H123015   3.521   6.477   0.662 -0.1921  0.1357 -0.0419
  508TIP3    H223016   3.497   6.381   0.777 -0.1437  0.3087  0.1119
  509TIP3   OH223017   3.087   2.398   4.385 -0.3036  0.3232 -0.4286
  509TIP3    H123018   3.091   2.400   4.289 -2.3565  0.7407 -0.5511
  509TIP3    H223019   3.077   2.305   4.406 -2.8969  0.4408 -0.8584
  510TIP3   OH223020   6.111   2.486   1.556  0.5411 -0.5360  0.8048
  510TIP3    H123021   6.115   2.546   1.482 -0.5124  0.4613  1.5038
  510TIP3    H223022   6.195   2.498   1.601  1.2123 -1.2046 -0.2505
  511TIP3   OH223023   1.025   2.065   2.826  0.5569  0.2570 -0.8759
  511TIP3    H123024   1.047   2.157   2.839  1.2129  0.0326 -0.3926
  511TIP3    H223025   0.935   2.067   2.793  0.3435  1.0428 -0.2785
  512TIP3   OH223026   3.752   5.239  10.856 -0.1861 -0.0039  0.2428
  512TIP3    H123027   3.816   5.176  10.825 -1.8773 -0.9261 -1.5985
  512TIP3    H223028   3.787   5.324  10.831 -0.8815 -0.6307 -3.3400
  513TIP3   OH223029   2.773   2.242   2.232  0.2488 -0.2065  0.3432
  513TIP3    H123030   2.794   2.168   2.288 -0.2957 -0.5914  0.0503
  513TIP3    H223031   2.701   2.211   2.178  0.3369  0.3776 -0.1177
  514TIP3   OH223032   1.062   2.749  12.301 -0.0813 -0.4944 -0.0731
  514TIP3    H123033   1.106   2.723  12.220  1.9365 -1.6433  1.3231
  514TIP3    H223034   1.127   2.801  12.349  0.2763 -3.0775  2.4964
  515TIP3   OH223035   4.023   4.395  11.954 -0.0171 -0.0585 -0.0604
  515TIP3    H123036   3.957   4.330  11.979 -1.0614  0.5696 -1.1408
  515TIP3    H223037   4.005   4.470  12.010 -0.6883  0.3786 -0.8518
  516TIP3   OH223038   1.229   6.048  11.425 -0.3625  0.3156 -0.3014
  516TIP3    H123039   1.182   5.968  11.405 -1.3963  1.3562 -2.2409
  516TIP3    H223040   1.268   6.032  11.512  0.4964 -2.7013 -1.1349
  517TIP3   OH223041   5.687   5.853  14.964 -0.2198 -0.1998 -0.1865
  517TIP3    H123042   5.726   5.790  15.025 -2.6021 -0.1715  1.5314
  517TIP3    H223043   5.604   5.813  14.939 -0.7958  1.2917 -0.7755
  518TIP3   OH223044   4.893   2.206  14.832  0.2636 -0.6455 -0.3403
  518TIP3    H123045   4.827   2.146  14.867 -1.0611  0.4967 -0.7838
  518TIP3    H223046   4.879   2.205  14.737  0.5725 -0.0444 -0.4004
  519TIP3   OH223047   0.951   5.719   1.068  0.4534  0.6316  0.1331
  519TIP3    H123048   1.001   5.639   1.080  0.2794  0.3071 -1.1850
  519TIP3    H223049   0.869   5.691   1.027  0.2131  1.4305  0.0439
  520TIP3   OH223050   4.461   2.759  10.766 -0.1745  0.2880  0.1153
  520TIP3    H123051   4.419   2.678  10.736  0.4755  0.5985 -1.7739
  520TIP3    H223052   4.535   2.771  10.706 -0.6713  2.6664 -0.1060
  521TIP3   OH223053   3.113   1.031   1.495  0.6019  0.3823 -0.1239
  521TIP3    H123054   3.086   1.013   1.405  0.5614  0.8154 -0.1981
  521TIP3    H223055   3.053   0.979   1.549  0.1809  0.6665 -0.3211
  522TIP3   OH223056   4.147   6.802  14.228 -1.2903  0.5371  0.2137
  522TIP3    H123057   4.165   6.739  14.298  0.1693  1.1412  0.4059
  522TIP3    H223058   4.202   6.773  14.155  0.3414  2.2362  0.7062
  523TIP3   OH223059   3.791   3.875  11.976  0.1513  0.0045 -0.4559
  523TIP3    H123060   3.857   3.812  12.003 -0.7485 -0.7228  0.1050
  523TIP3    H223061   3.712   3.849  12.023 -0.1284  1.8279  0.1615
  524TIP3   OH223062   0.360   6.132  13.448  0.4021  0.1014  0.1069
  524TIP3    H123063   0.302   6.204  13.424 -0.8733 -0.3208  1.7044
  524TIP3    H223064   0.435   6.174  13.489  1.1518  0.6474 -1.7637
  525TIP3   OH223065   3.325   3.705   1.619 -0.4633 -0.0548  0.5457
  525TIP3    H123066   3.346   3.611   1.622 -0.0462  0.0397  0.5248
  525TIP3    H223067   3.317   3.724   1.525 -1.9183 -0.3746  0.5815
  526TIP3   OH223068   3.000   0.852   5.099 -0.2331 -0.0914  0.1598
  526TIP3    H123069   3.060   0.779   5.117 -0.1540  0.4252  2.1531
  526TIP3    H223070   3.028   0.921   5.158 -0.8238  1.3107 -1.1393
  527TIP3   OH223071   2.061   0.180  11.474 -0.1305 -0.1306 -0.3707
  527TIP3    H123072   2.098   0.105  11.428 -1.2380 -0.6606 -0.4401
  527TIP3    H223073   2.122   0.198  11.545 -0.1457 -1.4768  0.0041
  528TIP3   OH223074   2.899   6.367  16.982 -0.0212  0.4416 -0.5402
  528TIP3    H123075   2.825   6.310  16.959  0.6997 -1.0663  0.6870
  528TIP3    H223076   2.868   6.415  17.059  0.6388 -1.1010  0.7500
  529TIP3   OH223077   1.201   3.370  15.414  0.3814  0.2944 -0.2812
  529TIP3    H123078   1.116   3.328  15.399  1.0337 -0.9434 -0.6516
  529TIP3    H223079   1.255   3.341  15.341  1.8163 -0.8860  1.1785
  530TIP3   OH223080   0.440   2.837  13.103 -0.5723  0.1564  0.1108
  530TIP3    H123081   0.419   2.762  13.048 -0.7270 -0.2177  0.6710
  530TIP3    H223082   0.357   2.859  13.146 -0.0708 -0.7280  1.6089
  531TIP3   OH223083   4.837   5.135   5.185  0.0774 -0.3079 -0.1376
  531TIP3    H123084   4.783   5.074   5.134  0.4462 -1.5377  0.8758
  531TIP3    H223085   4.915   5.149   5.132  0.2762 -1.2526 -0.1166
  532TIP3   OH223086   6.679   1.495   4.692 -0.0947 -0.1507 -0.1235
  532TIP3    H123087   6.618   1.426   4.718 -0.2880  0.3069  0.6715
  532TIP3    H223088   6.678   1.493   4.597 -1.4317 -0.0903 -0.1301
  533TIP3   OH223089   4.943   6.357  16.170 -0.8301  0.6903  0.1211
  533TIP3    H123090   4.855   6.333  16.141 -0.9365 -0.5512  1.3641
  533TIP3    H223091   5.001   6.302  16.117 -1.0104 -1.3286  1.8762
  534TIP3   OH223092   2.632   6.649  12.066 -0.5747  0.1594 -0.2186
  534TIP3    H123093   2.636   6.555  12.087  2.4094  0.4319  1.0453
  534TIP3    H223094   2.682   6.657  11.984  2.8309  0.9352  1.7263
  535TIP3   OH223095   0.236   1.019  15.934 -0.4063 -0.0645  0.3711
  535TIP3    H123096   0.230   0.960  15.859  0.0563 -0.0791  0.3432
  535TIP3    H223097   0.149   1.016  15.975 -1.8601  2.6019 -2.1486
  536TIP3   OH223098   0.944   2.783   2.414  0.0576  0.0422  0.3163
  536TIP3    H123099   0.994   2.864   2.424  2.3456 -1.3314  0.6780
  536TIP3    H223100   0.958   2.758   2.323  0.2258 -0.4881  0.4873
  537TIP3   OH223101   5.097   5.755  13.447  0.3039 -0.5176 -0.4421
  537TIP3    H123102   5.138   5.739  13.532 -0.4094  1.3511  0.3111
  537TIP3    H223103   5.170   5.762  13.385  1.0357  0.8794  0.5373
  538TIP3   OH223104   6.264   2.675   4.274  0.1196  0.6875 -0.5993
  538TIP3    H123105   6.311   2.753   4.247 -1.4336  1.6436 -0.6763
  538TIP3    H223106   6.298   2.605   4.218  2.3080  1.0473  0.2086
  539TIP3   OH223107   2.286   6.587   2.950 -0.1623  0.3477  0.7392
  539TIP3    H123108   2.371   6.623   2.924  1.0118 -1.3847  1.9719
  539TIP3    H223109   2.246   6.558   2.868  0.1984  1.6010  0.0897
  540TIP3   OH223110   0.378   2.266   3.427  0.0079 -0.1305 -0.0884
  540TIP3    H123111   0.359   2.176   3.453 -0.5509 -0.5242 -1.7459
  540TIP3    H223112   0.292   2.309   3.424  0.0813 -0.0231 -0.9441
  541TIP3   OH223113   4.269   1.793   0.325 -0.5176 -0.4667  0.8337
  541TIP3    H123114   4.201   1.728   0.307 -0.7644  0.1514 -0.6029
  541TIP3    H223115   4.242   1.871   0.277  0.8712  0.0060  0.7646
  542TIP3   OH223116   3.383   4.342   1.688 -0.0422  0.1528  0.5049
  542TIP3    H123117   3.477   4.324   1.690  0.1768  1.1238 -0.3030
  542TIP3    H223118   3.375   4.422   1.635 -1.3551 -0.1598  0.1984
  543TIP3   OH223119   1.060   0.272  12.144 -0.6043  0.2025 -0.2045
  543TIP3    H123120   1.007   0.266  12.065  1.0066 -0.6591 -1.2873
  543TIP3    H223121   1.150   0.259  12.113  0.3453  2.2795  1.4301
  544TIP3   OH223122   1.941   6.403  12.009  0.2665 -0.3192  0.2423
  544TIP3    H123123   2.015   6.425  12.065  0.8801 -1.2460 -0.1970
  544TIP3    H223124   1.864   6.417  12.065  0.8560 -1.0661  1.2670
  545TIP3   OH223125   5.023   2.520   3.409 -0.3841 -0.0687 -0.2012
  545TIP3    H123126   5.110   2.533   3.446 -0.3593 -1.0151  0.0822
  545TIP3    H223127   4.965   2.572   3.466  0.3318  3.4402 -2.3515
  546TIP3   OH223128   2.503   5.188  12.486  0.0162  0.4828 -0.3298
  546TIP3    H123129   2.411   5.175  12.464 -0.1333 -1.5723  1.2383
  546TIP3    H223130   2.552   5.142  12.418 -0.0969  1.3822 -1.0354
  547TIP3   OH223131   2.566   5.184  15.806  0.1516 -0.4388  0.3005
  547TIP3    H123132   2.587   5.093  15.827 -0.1763 -0.6702 -0.3587
  547TIP3    H223133   2.540   5.182  15.714 -0.2951  0.2514  0.4063
  548TIP3   OH223134   3.898   1.049  13.985 -0.5372 -0.4894  0.0495
  548TIP3    H123135   3.842   1.023  13.912 -1.5682  1.0861  0.2421
  548TIP3    H223136   3.953   1.118  13.950  0.5431 -1.2707  0.1699
  549TIP3   OH223137   5.062   3.913  11.387 -0.0245 -0.4641  0.2729
  549TIP3    H123138   5.145   3.953  11.414 -1.1964  0.7453  2.3472
  549TIP3    H223139   5.065   3.914  11.292  2.7586 -1.4375  0.2611
  550TIP3   OH223140   2.372   1.583   5.300 -0.2353 -0.4851  0.0008
  550TIP3    H123141   2.359   1.588   5.395 -0.1193 -0.7941  0.0352
  550TIP3    H223142   2.386   1.490   5.283 -1.1115 -0.5474 -0.4364
  551TIP3   OH223143   4.502   1.252  16.088  0.1499 -0.0426  0.6401
  551TIP3    H123144   4.535   1.322  16.144  1.2166 -1.0884  1.3673
  551TIP3    H223145   4.572   1.236  16.026 -1.0062  1.0726 -1.0291
  552TIP3   OH223146   4.257   5.912   5.939 -0.2506  0.2081  0.1131
  552TIP3    H123147   4.256   5.830   5.989  0.7399  0.1644  0.0826
  552TIP3    H223148   4.168   5.921   5.906 -0.2435 -1.1369 -0.3223
  553TIP3   OH223149   1.469   0.564  10.503  0.0225 -0.3101 -0.0694
  553TIP3    H123150   1.523   0.593  10.577  1.8013  0.8114 -1.7068
  553TIP3    H223151   1.397   0.627  10.501 -0.2672 -0.5942  0.9371
  554TIP3   OH223152   3.241   3.310  16.097 -0.3616  0.0552 -0.6281
  554TIP3    H123153   3.255   3.224  16.137 -0.7310  0.6105  0.7488
  554TIP3    H223154   3.308   3.316  16.029  1.1003 -0.4533  0.6899
  555TIP3   OH223155   3.902   3.982   2.584 -0.2867 -0.2896 -0.3722
  555TIP3    H123156   3.868   3.906   2.632  1.7685 -0.8903  0.2498
  555TIP3    H223157   3.851   3.984   2.503 -1.2510 -1.5609  0.1700
  556TIP3   OH223158   0.900   6.305   1.504 -0.0249 -0.2461 -0.3224
  556TIP3    H123159   0.915   6.273   1.415  0.3435  0.0021 -0.3531
  556TIP3    H223160   0.979   6.356   1.525  0.3410 -1.1432  0.5379
  557TIP3   OH223161   2.826   0.789   4.477 -0.4544 -0.2282 -0.0188
  557TIP3    H123162   2.919   0.812   4.482 -0.0121 -1.4636 -1.9122
  557TIP3    H223163   2.785   0.867   4.440  0.6156 -1.2520 -3.7388
  558TIP3   OH223164   5.557   1.464   0.279 -0.0814  0.8061  0.3296
  558TIP3    H123165   5.561   1.466   0.183 -2.4534 -1.4511  0.0771
  558TIP3    H223166   5.637   1.419   0.305 -0.7050 -1.1096 -0.8542
  559TIP3   OH223167   4.934   5.706   3.338 -0.3056 -1.1061 -0.4626
  559TIP3    H123168   4.949   5.753   3.256 -1.2075  0.5633  0.2777
  559TIP3    H223169   4.850   5.663   3.326  0.4512 -2.4901 -1.0846
  560TIP3   OH223170   4.621   6.190  16.864 -0.0922  1.0352 -0.2284
  560TIP3    H123171   4.549   6.234  16.818 -1.3858  0.5950  1.2465
  560TIP3    H223172   4.683   6.167  16.796 -0.8329  2.4152 -1.4288
  561TIP3   OH223173   2.054   0.995   3.560 -0.1805 -0.5823 -0.0898
  561TIP3    H123174   2.057   0.916   3.507 -1.0559 -0.1105 -0.8886
  561TIP3    H223175   2.139   1.037   3.547 -0.9582  0.4019 -2.5764
  562TIP3   OH223176   0.157   4.703  15.277  0.6222  0.1083  0.2731
  562TIP3    H123177   0.169   4.703  15.372 -0.6133 -3.2276  0.5920
  562TIP3    H223178   0.235   4.657  15.244  1.0855  1.3273 -0.3686
  563TIP3   OH223179   6.334   3.436  11.661 -0.4745 -0.2842 -0.0179
  563TIP3    H123180   6.318   3.345  11.685 -2.1716  0.1669  0.7485
  563TIP3    H223181   6.299   3.444  11.572  1.2191 -0.7497 -0.7635
  564TIP3   OH223182   1.501   2.273   2.924  0.1316  0.0544 -0.0324
  564TIP3    H123183   1.579   2.239   2.969 -0.3863 -1.1437  0.0109
  564TIP3    H223184   1.527   2.280   2.832  0.2980 -0.3173 -0.0151
  565TIP3   OH223185   3.493   3.465   0.792 -0.2208 -0.5891 -0.4708
  565TIP3    H123186   3.547   3.387   0.787  1.0057  0.0566  1.5522
  565TIP3    H223187   3.467   3.482   0.702  0.9101 -2.3288 -1.1732
  566TIP3   OH223188   2.856   5.463   1.057  0.1857 -0.3662 -0.3990
  566TIP3    H123189   2.852   5.394   0.991 -1.2452  0.7512 -1.5474
  566TIP3    H223190   2.771   5.506   1.052  0.9877  1.4112  0.3471
  567TIP3   OH223191   4.686   5.725  12.245 -0.3045 -0.4306  0.3949
  567TIP3    H123192   4.743   5.783  12.295  0.8577 -1.7240  0.6369
  567TIP3    H223193   4.739   5.699  12.170 -0.6857 -1.4147  0.4561
  568TIP3   OH223194   1.493   0.255  17.283  0.7571  0.4789 -0.3109
  568TIP3    H123195   1.525   0.185  17.227 -1.3354  1.4170 -2.9201
  568TIP3    H223196   1.509   0.335  17.232 -0.8209  1.4419  0.6216
  569TIP3   OH223197   4.271   2.901  17.120  0.1096 -0.0384 -0.2458
  569TIP3    H123198   4.269   2.987  17.162 -2.3635 -0.5527  0.8887
  569TIP3    H223199   4.265   2.840  17.193 -1.8639 -1.0474 -1.1931
  570TIP3   OH223200   0.905   5.750  11.791 -0.0953 -0.0569 -0.1189
  570TIP3    H123201   0.899   5.825  11.850 -2.5698  0.1813 -0.5708
  570TIP3    H223202   0.943   5.680  11.844  0.9036  1.0825  0.7287
  571TIP3   OH223203   4.925   1.898   0.064  0.4613 -0.5546 -0.1587
  571TIP3    H123204   4.914   1.803   0.057  0.4728 -0.4448 -3.1943
  571TIP3    H223205   4.979   1.911   0.141  0.6017 -3.0374  0.2273
  572TIP3   OH223206   2.351   6.632  13.403 -0.2354 -0.1059  0.3732
  572TIP3    H123207   2.436   6.599  13.435 -0.4552 -0.3311  0.7292
  572TIP3    H223208   2.344   6.596  13.314  0.2956  0.3750  0.1270
  573TIP3   OH223209   1.950   5.526   0.193 -0.3213 -0.7368  0.5498
  573TIP3    H123210   1.859   5.543   0.218 -0.3484 -0.3232  0.1811
  573TIP3    H223211   1.968   5.438   0.225 -0.5883 -0.5055  1.3562
  574TIP3   OH223212   2.519   3.135  11.740  0.2025  0.2160 -0.0030
  574TIP3    H123213   2.509   3.230  11.746 -0.3936  0.2431 -1.2255
  574TIP3    H223214   2.435   3.099  11.770  0.7567  0.0064  1.4200
  575TIP3   OH223215   5.696   4.868  17.035 -0.1071 -0.3365 -0.0694
  575TIP3    H123216   5.736   4.943  17.079 -2.3313  1.9606 -1.6362
  575TIP3    H223217   5.761   4.798  17.042  2.7860  2.1659  0.1723
  576TIP3   OH223218   4.427   0.987   0.909  0.1075 -0.0190 -1.0404
  576TIP3    H123219   4.494   1.018   0.970 -1.3232 -2.8753  2.2885
  576TIP3    H223220   4.366   1.061   0.902  1.1287  0.9362 -0.3142
  577TIP3   OH223221   1.406   6.473   1.762 -0.4492  0.2174 -0.0235
  577TIP3    H123222   1.391   6.382   1.789  0.8684  0.6420  2.5134
  577TIP3    H223223   1.423   6.468   1.668  0.4965 -2.2936  0.2011
  578TIP3   OH223224   0.699   1.513   3.383  0.0917  0.5131 -0.2176
  578TIP3    H123225   0.628   1.538   3.442  1.2097  0.2711  1.2810
  578TIP3    H223226   0.778   1.514   3.438  1.0623 -0.4700 -1.5284
  579TIP3   OH223227   2.593   5.063   3.508 -0.0620 -0.0387  0.0468
  579TIP3    H123228   2.688   5.059   3.506 -0.1297 -2.2423 -0.4022
  579TIP3    H223229   2.569   5.036   3.597 -0.3142 -1.9032 -0.5589
  580TIP3   OH223230   1.410   1.567  16.760 -0.5956 -0.4616 -0.4300
  580TIP3    H123231   1.430   1.486  16.806  0.0524  1.2543  2.6192
  580TIP3    H223232   1.378   1.539  16.675  0.6893 -3.8385  0.0400
  581TIP3   OH223233   5.324   0.343  16.453  0.2556  0.1873 -1.2538
  581TIP3    H123234   5.270   0.296  16.390  0.2583 -0.8347 -0.5313
  581TIP3    H223235   5.267   0.355  16.529  0.3870  1.0133 -1.2810
  582TIP3   OH223236   1.592   1.847  14.822  0.1066  0.1987  0.2023
  582TIP3    H123237   1.671   1.877  14.867  0.5124 -0.6548  0.0702
  582TIP3    H223238   1.538   1.809  14.891 -0.0921  0.5739  0.2556
  583TIP3   OH223239   4.384   1.392  17.248 -0.0743 -0.4024 -0.3806
  583TIP3    H123240   4.338   1.331  17.306 -0.7899 -0.0194 -0.5334
  583TIP3    H223241   4.402   1.468  17.302 -0.0800 -0.3451 -0.4605
  584TIP3   OH223242   1.527   6.712   3.626  0.2287 -0.1870 -0.4755
  584TIP3    H123243   1.568   6.738   3.709  1.9597 -2.0502 -0.6708
  584TIP3    H223244   1.470   6.639   3.650 -0.1374  0.0022 -0.7690
  585TIP3   OH223245   5.573   1.571   0.023 -0.1651  0.3161 -0.8343
  585TIP3    H123246   5.636   1.534  -0.040  0.7400  0.3264  0.0504
  585TIP3    H223247   5.610   1.655   0.049  0.1369 -0.2618  0.6859
  586TIP3   OH223248   5.731   6.238  14.465  0.0916 -0.4758  0.1116
  586TIP3    H123249   5.826   6.250  14.474  0.3626 -0.2088 -2.3946
  586TIP3    H223250   5.722   6.147  14.436 -0.3326 -0.2572 -0.4581
  587TIP3   OH223251   4.479   6.583   4.951 -0.4049  0.4792 -0.3403
  587TIP3    H123252   4.574   6.573   4.942 -0.1697  0.1549  1.9456
  587TIP3    H223253   4.447   6.592   4.861  1.6684 -0.3978 -1.2205
  588TIP3   OH223254   0.252   1.807   6.785 -0.1716 -0.1534  0.4177
  588TIP3    H123255   0.165   1.792   6.749 -0.7605  2.2479  0.6615
  588TIP3    H223256   0.309   1.816   6.708 -0.5539  0.4188  0.1981
  589TIP3   OH223257   6.344   4.319   4.343  0.0606  0.0160  0.4891
  589TIP3    H123258   6.368   4.403   4.305  0.9078 -0.5383 -0.2449
  589TIP3    H223259   6.282   4.281   4.281  0.3981 -0.2954  0.3342
  590TIP3   OH223260   6.501   5.125   1.415  0.1435  0.1767  0.4664
  590TIP3    H123261   6.531   5.202   1.463 -0.1579  0.1515  0.7011
  590TIP3    H223262   6.522   5.051   1.472  0.1310  0.1140  0.3899
  591TIP3   OH223263   3.707   5.555  11.085  0.3832  0.9461 -0.5989
  591TIP3    H123264   3.776   5.489  11.084 -1.5072 -1.1189 -1.1505
  591TIP3    H223265   3.722   5.606  11.005  0.8975  0.1261 -1.0411
  592TIP3   OH223266   4.856   4.770  16.229  0.0561  0.1146 -0.3103
  592TIP3    H123267   4.848   4.856  16.270 -1.1272 -0.0793 -0.1208
  592TIP3    H223268   4.770   4.751  16.193 -0.5649 -2.1716  2.0146
  593TIP3   OH223269   6.135   5.846  16.241  0.1128  0.2827 -0.0534
  593TIP3    H123270   6.048   5.819  16.272 -0.6476 -0.8207 -2.8842
  593TIP3    H223271   6.117   5.910  16.172  1.4231 -1.1891 -1.8424
  594TIP3   OH223272   2.795   2.731   2.341  0.1147 -0.2245 -0.2716
  594TIP3    H123273   2.842   2.648   2.338  0.7959  0.1811 -1.5126
  594TIP3    H223274   2.778   2.752   2.249 -1.3007  0.3236  0.0859
  595TIP3   OH223275   1.298   0.668  14.828  0.7117  0.3004 -0.0805
  595TIP3    H123276   1.247   0.688  14.907 -0.5495  0.9283 -1.0253
  595TIP3    H223277   1.281   0.575  14.813  1.7627 -0.0751  0.9325
  596TIP3   OH223278   0.011   0.758  16.396 -0.3248 -1.0950 -0.6063
  596TIP3    H123279   0.032   0.818  16.324  0.2250 -0.7714 -0.1790
  596TIP3    H223280  -0.083   0.770  16.410  0.1169  1.3066  0.9086
  597TIP3   OH223281   5.839   2.932  16.690 -0.1917  0.5088 -0.1376
  597TIP3    H123282   5.898   2.868  16.731  0.0473  1.0134  0.3281
  597TIP3    H223283   5.897   3.002  16.660 -0.4821  0.6748 -0.3184
  598TIP3   OH223284   3.462   4.256  10.984  0.0378  0.2912  0.1613
  598TIP3    H123285   3.481   4.291  10.897 -1.3267  1.0503  0.1511
  598TIP3    H223286   3.540   4.276  11.036  0.8378 -0.1148 -0.8555
  599TIP3   OH223287   5.653   6.814  13.614 -0.3009 -0.6058 -0.3485
  599TIP3    H123288   5.741   6.827  13.579 -0.3985 -0.2185 -0.4500
  599TIP3    H223289   5.606   6.895  13.592 -0.0537  0.1184  1.5898
  600TIP3   OH223290   4.046   5.268  13.248  0.1188  0.0899  0.3828
  600TIP3    H123291   3.952   5.257  13.263  0.1844 -0.9748  0.0979
  600TIP3    H223292   4.061   5.362  13.256 -1.1767  0.4254 -0.6699
  601TIP3   OH223293   0.280   5.148  16.790  0.6677  0.4074 -0.0419
  601TIP3    H123294   0.330   5.227  16.809  2.2067 -0.2689 -1.0133
  601TIP3    H223295   0.214   5.176  16.727  1.7714  0.8093 -1.0763
  602TIP3   OH223296   0.235   1.977   3.802  0.2576  0.1638 -0.0510
  602TIP3    H123297   0.142   1.969   3.822 -0.1981  1.4469 -1.4745
  602TIP3    H223298   0.272   2.021   3.879 -0.3474 -0.0709  0.3875
  603TIP3   OH223299   4.174   5.666   1.266  0.1305 -0.4670 -0.4657
  603TIP3    H123300   4.119   5.743   1.278  1.3622  0.4504 -0.4701
  603TIP3    H223301   4.242   5.694   1.205  1.3644 -1.1344  0.5389
  604TIP3   OH223302   2.697   0.886  13.539  0.7540 -0.0964 -0.0898
  604TIP3    H123303   2.741   0.969  13.520 -0.0231  0.2936 -0.2138
  604TIP3    H223304   2.681   0.887  13.633 -0.1490  0.3487 -0.2400
  605TIP3   OH223305   2.724   4.945   4.071 -0.2996 -0.0471 -0.2145
  605TIP3    H123306   2.649   4.912   4.121 -0.1746  0.6471  0.4438
  605TIP3    H223307   2.774   4.866   4.049 -0.4500 -0.3816  0.6040
  606TIP3   OH223308   1.900   5.593  15.881 -0.0085  0.2509  0.0883
  606TIP3    H123309   1.905   5.689  15.875  1.7168  0.2613  1.1284
  606TIP3    H223310   1.908   5.574  15.974 -1.5580 -0.9014  0.0425
  607TIP3   OH223311   3.874   2.567  10.481 -0.0422 -0.3756  0.4755
  607TIP3    H123312   3.968   2.581  10.482 -0.0926  0.0646 -0.2290
  607TIP3    H223313   3.840   2.633  10.420 -0.6898 -1.2133 -0.0885
  608TIP3   OH223314   2.104   6.384  12.263  0.6207  0.3395  0.3403
  608TIP3    H123315   2.106   6.468  12.309 -1.4040  0.4936  0.2269
  608TIP3    H223316   2.042   6.331  12.314  1.2028 -0.7840 -0.0990
  609TIP3   OH223317   0.385   0.180  14.233  0.0866  0.1411  1.0758
  609TIP3    H123318   0.458   0.131  14.272 -0.7984 -0.5884  1.8627
  609TIP3    H223319   0.382   0.261  14.284  0.0789 -0.0175  1.3314
  610TIP3   OH223320   3.560   0.380  15.439 -0.4034 -0.1234  0.6735
  610TIP3    H123321   3.482   0.435  15.431 -0.3007 -0.0145  0.3936
  610TIP3    H223322   3.611   0.421  15.509 -1.1681 -0.9044  1.7188
  611TIP3   OH223323   3.731   5.636   0.221  0.2455  0.1694  0.5008
  611TIP3    H123324   3.774   5.721   0.213  0.4598  0.0931  0.8520
  611TIP3    H223325   3.638   5.655   0.209  0.2598  0.5013  0.9003
  612TIP3   OH223326   3.309   6.380   0.159 -0.6797  0.1487  0.4074
  612TIP3    H123327   3.288   6.383   0.253  1.3966 -0.2805  0.9312
  612TIP3    H223328   3.292   6.289   0.134  0.7066 -0.2702  0.8959
  613TIP3   OH223329   4.380   3.539   4.034  0.1328  0.4601  0.1457
  613TIP3    H123330   4.397   3.446   4.022  0.7793  0.3846  1.4447
  613TIP3    H223331   4.380   3.576   3.946  2.6596 -0.2978 -0.2425
  614TIP3   OH223332   1.460   4.253   3.862  0.2687  0.4764  0.2806
  614TIP3    H123333   1.467   4.307   3.942  2.2669  0.3473  0.2407
  614TIP3    H223334   1.485   4.313   3.791  0.0296  0.1628 -0.0704
  615TIP3   OH223335   2.723   4.039  14.377 -0.1756  0.1090 -0.1861
  615TIP3    H123336   2.695   4.117  14.328 -1.6158 -0.8563 -0.9684
  615TIP3    H223337   2.643   3.988  14.388  0.4924 -0.6059  1.5585
  616TIP3   OH223338   3.246   3.469   5.578  0.2739 -0.1231 -0.2307
  616TIP3    H123339   3.260   3.381   5.611 -1.9703 -0.4568 -0.0296
  616TIP3    H223340   3.262   3.463   5.484 -3.1397 -1.6499 -0.8451
  617TIP3   OH223341   3.476   2.707  11.730 -0.3907  0.1992 -0.0374
  617TIP3    H123342   3.509   2.617  11.723 -1.7191 -0.2046 -1.7840
  617TIP3    H223343   3.398   2.708  11.676 -0.8165  2.2491  0.5292
  618TIP3   OH223344   5.142   6.297  15.111 -0.4641  0.2378  0.5650
  618TIP3    H123345   5.127   6.203  15.124 -1.6687  0.3870  0.4357
  618TIP3    H223346   5.198   6.323  15.183  0.9903 -0.8254 -0.1264
  619TIP3   OH223347   4.934   2.636   3.663  0.6228  0.3581  0.2584
  619TIP3    H123348   5.018   2.672   3.690  0.3723  0.6967  0.5856
  619TIP3    H223349   4.869   2.691   3.706  0.2280 -0.9894  1.4576
  620TIP3   OH223350   2.239   3.634   4.149  0.4352 -0.0800  0.0462
  620TIP3    H123351   2.305   3.701   4.135 -1.5485  1.7972 -0.8946
  620TIP3    H223352   2.158   3.682   4.164 -1.3215 -2.2408 -1.7928
  621TIP3   OH223353   0.148   2.453  10.626  0.0004  0.0618 -0.1000
  621TIP3    H123354   0.188   2.516  10.567  1.4875 -0.1853  0.5940
  621TIP3    H223355   0.204   2.375  10.621 -1.0549 -0.7348  0.0421
  622TIP3   OH223356   1.220   5.167  12.441 -0.3244 -0.9924  0.5537
  622TIP3    H123357   1.282   5.120  12.497  0.3363  0.7020  1.3245
  622TIP3    H223358   1.174   5.226  12.501  2.7577  3.4131 -0.9144
  623TIP3   OH223359   2.833   3.519  17.151  0.2581  0.2234  0.0072
  623TIP3    H123360   2.877   3.467  17.217 -0.4385  0.4545  0.6684
  623TIP3    H223361   2.848   3.472  17.069  1.5604  0.2031  0.2293
  624TIP3   OH223362   6.484   5.799  13.528  0.8167  0.0443  0.2239
  624TIP3    H123363   6.528   5.765  13.450 -1.6783 -0.5187 -1.0526
  624TIP3    H223364   6.453   5.721  13.574 -0.2828  0.4307  0.1669
  625TIP3   OH223365   6.117   0.174   0.089 -1.1318 -0.5454  0.4752
  625TIP3    H123366   6.200   0.219   0.077 -2.2162  2.1096  2.1103
  625TIP3    H223367   6.116   0.106   0.021  1.2064  1.0267 -1.2696
  626TIP3   OH223368   3.357   2.095   0.896 -0.1503  0.5130 -0.1207
  626TIP3    H123369   3.413   2.142   0.959 -1.4416  1.1763  0.5809
  626TIP3    H223370   3.269   2.125   0.917 -0.8109 -0.7942 -0.9520
  627TIP3   OH223371   6.791   4.738   5.322  0.6900  0.3293 -0.5062
  627TIP3    H123372   6.880   4.753   5.354  1.2232 -2.2053 -0.5648
  627TIP3    H223373   6.789   4.779   5.235  1.8353  0.3438 -0.5353
  628TIP3   OH223374   4.925   1.878  13.653  0.6189  0.0965  0.5346
  628TIP3    H123375   4.903   1.968  13.632 -0.7715 -0.5354 -0.9581
  628TIP3    H223376   4.857   1.850  13.715  0.8698 -0.0051  0.7633
  629TIP3   OH223377   5.697   3.733  12.304 -0.4829 -0.1611 -0.3956
  629TIP3    H123378   5.749   3.800  12.349  0.3904 -0.6502 -0.6442
  629TIP3    H223379   5.699   3.657  12.362 -0.3751 -0.3947 -0.6965
  630TIP3   OH223380   1.321   2.585  14.033 -0.4108  0.5388 -0.3658
  630TIP3    H123381   1.382   2.511  14.027  1.6295  1.9773  1.0971
  630TIP3    H223382   1.249   2.552  14.087  0.7566 -0.2100  0.7921
  631TIP3   OH223383   4.720   5.990  15.366  0.1419 -0.0922 -0.3368
  631TIP3    H123384   4.720   5.974  15.460  0.9923  2.0399  0.0679
  631TIP3    H223385   4.638   5.951  15.335 -0.4545 -0.2606  1.3675
  632TIP3   OH223386   0.385   1.232   0.988 -0.4590  0.0373 -0.2429
  632TIP3    H123387   0.294   1.213   0.967 -0.2459 -0.1820 -1.0004
  632TIP3    H223388   0.434   1.205   0.911  0.3157 -0.3786  0.3726
  633TIP3   OH223389   0.620   6.092  13.776  0.2028 -0.1040 -0.1556
  633TIP3    H123390   0.643   6.052  13.692  0.0217 -1.1103  0.2572
  633TIP3    H223391   0.702   6.132  13.806  0.6255 -0.9208 -0.1825
  634TIP3   OH223392   4.174   2.136   6.554  0.4906  0.3274  0.2561
  634TIP3    H123393   4.160   2.110   6.463 -1.9652 -0.2896  0.7232
  634TIP3    H223394   4.164   2.055   6.604 -1.4064  1.0984  1.2722
  635TIP3   OH223395   5.094   6.322  16.897 -0.0896 -0.1914  0.0926
  635TIP3    H123396   5.050   6.407  16.890  1.2714  0.5827  0.5215
  635TIP3    H223397   5.070   6.290  16.984  0.1067  0.1842  0.2904
  636TIP3   OH223398   5.566   4.226   3.834 -0.3121 -0.1270 -0.1440
  636TIP3    H123399   5.627   4.290   3.871 -0.7304  0.3568 -0.2933
  636TIP3    H223400   5.482   4.271   3.830 -0.8746 -1.0383  0.8031
  637TIP3   OH223401   0.609   1.881  11.345  0.1141 -0.4728 -0.1054
  637TIP3    H123402   0.523   1.918  11.322 -1.1126 -2.6386  0.6915
  637TIP3    H223403   0.672   1.943  11.308 -1.7677  1.5283 -0.2114
  638TIP3   OH223404   3.874   0.365   3.486 -0.2117  0.2778 -0.3577
  638TIP3    H123405   3.892   0.405   3.401  2.5491 -1.9051 -0.9422
  638TIP3    H223406   3.802   0.304   3.470 -0.4942  0.7321 -0.8273
  639TIP3   OH223407   1.804   5.961   4.061 -0.1951 -0.3588  0.0631
  639TIP3    H123408   1.723   5.944   4.012 -0.2615 -2.0872  0.7251
  639TIP3    H223409   1.783   6.037   4.116 -0.3446  1.1700 -1.9980
  640TIP3   OH223410   0.853   1.236   5.172 -0.2268  0.5488  0.0707
  640TIP3    H123411   0.939   1.274   5.153  0.8149 -0.8406  1.6919
  640TIP3    H223412   0.804   1.244   5.090  1.2599  1.8137 -0.7502
  641TIP3   OH223413   2.833   3.698   1.012 -0.2518 -0.2048 -0.7439
  641TIP3    H123414   2.753   3.647   1.011 -0.7766  0.6176 -1.8150
  641TIP3    H223415   2.894   3.645   1.064 -1.7550 -0.3917  0.9563
  642TIP3   OH223416   1.716   3.076   0.816 -0.3667 -0.1927 -0.6475
  642TIP3    H123417   1.776   3.070   0.890 -0.8623  0.6410 -0.1604
  642TIP3    H223418   1.739   3.159   0.773 -0.3408 -0.4828 -1.1957
  643TIP3   OH223419   6.189   0.061   2.601 -0.4421 -0.2377 -0.4413
  643TIP3    H123420   6.196   0.141   2.652  1.3802 -0.3842 -0.4089
  643TIP3    H223421   6.222  -0.008   2.659 -0.2938 -0.7243 -1.0906
  644TIP3   OH223422   5.447   5.574  15.604  0.1733  0.3298  0.4564
  644TIP3    H123423   5.398   5.507  15.652  2.4588 -0.6303  1.6073
  644TIP3    H223424   5.397   5.654  15.616 -2.4390 -1.0353 -0.6114
  645TIP3   OH223425   0.017   5.680   3.209  0.0501  0.2936 -0.1201
  645TIP3    H123426  -0.076   5.673   3.189 -0.0923 -1.6310  0.9532
  645TIP3    H223427   0.059   5.615   3.152  0.5014 -0.0732  0.6109
  646TIP3   OH223428   4.778   0.829   5.245  0.6310  0.3674  0.2909
  646TIP3    H123429   4.722   0.751   5.248  1.5870 -0.3175  2.4501
  646TIP3    H223430   4.724   0.895   5.202 -0.5869 -1.1745 -0.6967
  647TIP3   OH223431   2.530   5.809   4.205  0.3498  0.0301  1.2684
  647TIP3    H123432   2.464   5.741   4.195  0.8899 -0.9500  3.6554
  647TIP3    H223433   2.583   5.803   4.125 -1.0746 -0.6334  0.3249
  648TIP3   OH223434   2.582   2.807   1.570 -0.0892  0.2114 -0.0818
  648TIP3    H123435   2.633   2.762   1.503  1.2409 -0.4059  1.2833
  648TIP3    H223436   2.630   2.889   1.584  0.0965 -0.0103  0.6375
  649TIP3   OH223437   4.397   1.999   4.328 -0.6310  0.1374 -0.4014
  649TIP3    H123438   4.419   1.983   4.236  0.9474  0.6414 -0.1376
  649TIP3    H223439   4.428   1.922   4.375 -0.9989  0.0943 -0.2232
  650TIP3   OH223440   4.777   5.889   2.126  0.1472  0.3871 -0.0391
  650TIP3    H123441   4.843   5.946   2.088 -1.4631  0.2852 -3.2774
  650TIP3    H223442   4.805   5.800   2.102  1.4279 -0.1520  3.0082
  651TIP3   OH223443   6.328   4.085  15.323  0.0208  0.0906 -0.3386
  651TIP3    H123444   6.392   4.047  15.383  0.3158  0.2412 -0.5555
  651TIP3    H223445   6.290   4.157  15.372 -1.7522 -1.4825  0.7094
  652TIP3   OH223446   0.211   3.084   1.179 -0.1766  0.2666 -0.4473
  652TIP3    H123447   0.241   3.119   1.095  1.5961  0.0474  0.0631
  652TIP3    H223448   0.263   3.005   1.192 -2.4647 -1.3429 -0.4720
  653TIP3   OH223449   4.205   4.273  11.185 -0.2065  0.3618  0.1195
  653TIP3    H123450   4.232   4.310  11.101 -1.2551  1.4603  0.2487
  653TIP3    H223451   4.112   4.254  11.175  0.1099 -1.4893  0.3539
  654TIP3   OH223452   3.510   6.442  15.576 -0.1504  0.1247  0.0180
  654TIP3    H123453   3.509   6.364  15.521 -0.5069 -0.4596  0.8385
  654TIP3    H223454   3.559   6.507  15.524  0.6725 -0.8185 -0.4221
  655TIP3   OH223455   3.336   1.211   0.894  0.4086  0.6589 -0.3171
  655TIP3    H123456   3.294   1.297   0.897 -0.2015  0.4427 -1.6796
  655TIP3    H223457   3.313   1.170   0.977  0.2154  1.5795  0.1016
  656TIP3   OH223458   4.580   3.408   5.592 -0.2854  0.1577  0.0024
  656TIP3    H123459   4.513   3.416   5.659  0.2216  0.1608  0.5222
  656TIP3    H223460   4.532   3.401   5.510 -0.9089  2.6187  0.0813
  657TIP3   OH223461   4.020   1.705  13.479  0.7291 -0.3609 -0.3595
  657TIP3    H123462   4.043   1.792  13.448 -0.1145  0.2020  0.5416
  657TIP3    H223463   4.044   1.705  13.571 -0.2816 -0.7057 -0.0863
  658TIP3   OH223464   4.689   1.219   4.964 -0.4370 -0.6964  0.0316
  658TIP3    H123465   4.747   1.174   5.024  1.8580  1.1317 -0.6368
  658TIP3    H223466   4.702   1.175   4.880 -2.0173 -1.8806  0.3562
  659TIP3   OH223467   3.528   0.497   4.666  0.2709 -0.2474 -0.2296
  659TIP3    H123468   3.548   0.578   4.713  0.5667  0.4607 -1.5198
  659TIP3    H223469   3.579   0.430   4.711 -0.2560  0.1978  1.0808
  660TIP3   OH223470   6.183   1.285  11.800 -0.1919  0.4203 -0.4585
  660TIP3    H123471   6.089   1.273  11.808 -0.2152  0.7089 -0.2689
  660TIP3    H223472   6.222   1.203  11.830 -0.3789  0.3292 -0.4682
  661TIP3   OH223473   1.818   0.623  14.693 -0.2221 -0.0214  0.4020
  661TIP3    H123474   1.903   0.664  14.673 -0.7284  0.4652 -0.8597
  661TIP3    H223475   1.772   0.688  14.745 -0.4681  0.4282 -0.3675
  662TIP3   OH223476   3.817   1.057   4.544  0.4448  0.0483  0.3295
  662TIP3    H123477   3.746   0.993   4.540  1.0186 -0.6758  1.1342
  662TIP3    H223478   3.884   1.014   4.598  1.0264  1.1624  0.5188
  663TIP3   OH223479   3.752   5.211   3.577  0.0090 -0.0431 -0.2273
  663TIP3    H123480   3.668   5.173   3.603  0.1584 -0.3486 -0.1860
  663TIP3    H223481   3.744   5.225   3.482  0.0919 -0.5397 -0.3101
  664TIP3   OH223482   6.446   1.458  14.955  0.1023  0.1500  0.1696
  664TIP3    H123483   6.534   1.487  14.928  0.1965 -0.1921  0.0993
  664TIP3    H223484   6.413   1.410  14.879 -0.9203  1.8907 -0.5507
  665TIP3   OH223485   5.539   2.763   5.406 -0.5883  0.2615 -0.2291
  665TIP3    H123486   5.546   2.850   5.446 -0.2485 -0.1523  0.6422
  665TIP3    H223487   5.461   2.768   5.352 -0.8514  0.9637  0.2007
  666TIP3   OH223488   1.761   1.775  11.073  0.0544  0.2747  0.3962
  666TIP3    H123489   1.759   1.870  11.056  0.0431  0.3850  0.9786
  666TIP3    H223490   1.669   1.751  11.084 -0.2011 -0.3166 -2.3279
  667TIP3   OH223491   3.992   4.989  10.814  0.1460  0.1345 -0.1711
  667TIP3    H123492   3.940   4.913  10.788  0.1203  0.6069 -1.5956
  667TIP3    H223493   4.068   4.987  10.755 -0.4619  1.8661 -1.0927
  668TIP3   OH223494   1.417   2.569  13.320  0.0238 -0.5818  0.0057
  668TIP3    H123495   1.364   2.637  13.361  2.8562  0.9929  1.3247
  668TIP3    H223496   1.379   2.487  13.350 -1.8572  0.4436  0.5770
  669TIP3   OH223497   1.736   2.797   1.000 -0.4358  0.1892 -0.2245
  669TIP3    H123498   1.717   2.739   0.926  0.9368  1.0231 -1.2862
  669TIP3    H223499   1.808   2.852   0.969  0.5591  0.2052  1.9522
  670TIP3   OH223500   4.879   4.131  12.538 -0.1306  0.0045 -0.0113
  670TIP3    H123501   4.872   4.081  12.620 -0.1048  0.0629  0.0263
  670TIP3    H223502   4.788   4.144  12.511 -0.1281 -1.0196 -0.5973
  671TIP3   OH223503   6.138   3.547  14.034  0.7842  0.0423 -0.4034
  671TIP3    H123504   6.088   3.483  13.983  2.8429 -2.5532  0.5853
  671TIP3    H223505   6.072   3.610  14.064 -1.3938 -1.5857 -1.4493
  672TIP3   OH223506   4.546   0.289  14.081 -0.2640 -0.3442  0.8439
  672TIP3    H123507   4.561   0.348  14.154 -3.5069  0.6844  0.8454
  672TIP3    H223508   4.487   0.337  14.022  0.5389 -1.9267 -1.4227
  673TIP3   OH223509   0.974   4.931  15.589 -0.0026  0.1918 -0.1603
  673TIP3    H123510   0.972   4.894  15.500  0.7202 -0.6179  0.1504
  673TIP3    H223511   1.066   4.950  15.605 -0.2562  1.2656  0.0552
  674TIP3   OH223512   4.032   4.860  13.227  0.4367  0.4125 -0.1999
  674TIP3    H123513   4.099   4.793  13.215 -0.6595 -0.6352 -0.8025
  674TIP3    H223514   4.069   4.922  13.290  1.5280 -0.7023  0.2831
  675TIP3   OH223515   4.652   5.946   6.071  0.0997 -0.1987  0.0628
  675TIP3    H123516   4.721   5.965   6.134  0.7089 -2.2937  0.0826
  675TIP3    H223517   4.578   5.916   6.124 -0.0329 -0.1798 -0.1091
  676TIP3   OH223518   6.317   3.527  14.935 -0.1079  0.4989  0.0058
  676TIP3    H123519   6.237   3.565  14.971 -0.4768 -0.8483  0.6666
  676TIP3    H223520   6.352   3.595  14.878 -1.8530  1.0151 -0.5011
  677TIP3   OH223521   3.872   6.025  13.960  0.5503  0.2251  0.1490
  677TIP3    H123522   3.885   5.943  13.913  3.4481  0.1788  0.8573
  677TIP3    H223523   3.806   6.005  14.027 -2.0269 -0.2780 -2.3293
  678TIP3   OH223524   2.454   1.756   4.667  0.4617  0.0776  0.1707
  678TIP3    H123525   2.544   1.723   4.670  0.1835 -0.8070 -0.6829
  678TIP3    H223526   2.400   1.678   4.678 -0.2030  0.4579 -0.3316
  679TIP3   OH223527   3.656   2.105  15.262 -0.4966 -0.0957 -0.0904
  679TIP3    H123528   3.617   2.176  15.211  0.4724  0.5145 -0.0268
  679TIP3    H223529   3.733   2.079  15.212 -0.0107 -0.0726  0.6247
  680TIP3   OH223530   5.133   4.050   1.848 -0.1369  0.0204  0.0079
  680TIP3    H123531   5.201   3.984   1.840  0.1942  0.4023 -0.3863
  680TIP3    H223532   5.176   4.132   1.824 -1.0396  0.0951 -1.4558
  681TIP3   OH223533   2.428   4.583  12.052  0.5381  0.1673  0.5158
  681TIP3    H123534   2.482   4.651  12.012 -0.3821  1.1802  0.9596
  681TIP3    H223535   2.469   4.565  12.136  0.6749  0.3154  0.4800
  682TIP3   OH223536   0.242   4.211  15.384 -0.1447  0.1080 -0.4131
  682TIP3    H123537   0.236   4.300  15.419  1.0877  0.5979 -1.3565
  682TIP3    H223538   0.335   4.197  15.369 -0.5087 -0.2832 -2.8281
  683TIP3   OH223539   0.635   1.661  16.571  0.2774 -0.3817  0.0460
  683TIP3    H123540   0.662   1.693  16.485 -1.4132  1.8156  0.2544
  683TIP3    H223541   0.715   1.663  16.623  0.3896  4.3318  0.1816
  684TIP3   OH223542   0.825   5.200   3.033  0.2612 -0.4901 -0.5909
  684TIP3    H123543   0.761   5.142   3.074 -0.7316  0.0877 -1.2652
  684TIP3    H223544   0.832   5.167   2.943  3.2917 -2.4859  0.2227
  685TIP3   OH223545   3.119   6.003  11.524 -0.3437 -0.9140 -0.4867
  685TIP3    H123546   3.160   5.945  11.460  0.0205  1.0618 -2.1685
  685TIP3    H223547   3.115   6.088  11.479  0.7303  0.8070  2.4109
  686TIP3   OH223548   3.301   0.796  11.987  0.5938 -0.3527 -0.0262
  686TIP3    H123549   3.326   0.763  11.901 -1.1241 -0.6119 -0.4669
  686TIP3    H223550   3.335   0.885  11.990 -0.1314 -0.0097 -1.3661
  687TIP3   OH223551   6.689   6.590   2.094  0.4177  0.7331  0.0077
  687TIP3    H123552   6.764   6.531   2.082  0.3007 -0.0117  2.4388
  687TIP3    H223553   6.716   6.650   2.164 -1.2232  0.4448  0.9346
  688TIP3   OH223554   1.713   2.192   5.372  0.3491 -0.5556 -0.4773
  688TIP3    H123555   1.740   2.102   5.395  0.2645 -0.0583  1.8315
  688TIP3    H223556   1.789   2.228   5.327  2.2038 -0.4558  2.4464
  689TIP3   OH223557   6.178   2.769  16.315 -0.8763  0.2479  0.0519
  689TIP3    H123558   6.108   2.735  16.261  1.1845  0.3606 -2.9247
  689TIP3    H223559   6.232   2.820  16.255  1.1466  1.1115  2.4226
  690TIP3   OH223560   3.560   5.244  13.117  0.4464 -0.0628 -0.8956
  690TIP3    H123561   3.610   5.169  13.148 -1.1828 -0.8302  0.0177
  690TIP3    H223562   3.574   5.246  13.022  1.7643 -0.5456 -0.7206
  691TIP3   OH223563   2.737   5.049  12.980 -0.2208  0.1695  0.0972
  691TIP3    H123564   2.656   5.100  12.983 -0.3573 -0.0917  0.8582
  691TIP3    H223565   2.806   5.114  12.997 -0.3590  0.1772  0.6231
  692TIP3   OH223566   1.614   0.090   1.830 -0.6356  0.0841 -0.2223
  692TIP3    H123567   1.671   0.023   1.791 -1.6959  0.2747 -2.2304
  692TIP3    H223568   1.527   0.050   1.830 -0.6963  0.0752  2.1221
  693TIP3   OH223569   1.879   5.439  16.467  0.1004  0.2372 -0.0397
  693TIP3    H123570   1.946   5.398  16.522  0.6004  1.1364  0.0485
  693TIP3    H223571   1.900   5.411  16.378 -0.5407 -0.9967  0.1785
  694TIP3   OH223572   4.970   2.276  11.430  0.0168  0.5084 -0.0680
  694TIP3    H123573   4.934   2.361  11.405  0.3855  0.9432  0.8202
  694TIP3    H223574   5.043   2.261  11.370 -0.7818  0.2520 -0.9997
  695TIP3   OH223575   0.211   5.927  15.750  0.1519  0.2818  0.7749
  695TIP3    H123576   0.126   5.967  15.736 -0.0632 -0.5473 -0.4323
  695TIP3    H223577   0.236   5.954  15.839 -1.4072  0.4309  1.1920
  696TIP3   OH223578   5.573   4.707  13.303 -0.1747  0.6696  0.0148
  696TIP3    H123579   5.595   4.794  13.338 -1.1173  0.9816 -0.1345
  696TIP3    H223580   5.596   4.646  13.373  2.9598  0.7447 -0.8326
  697TIP3   OH223581   5.879   6.136   2.472  0.0660 -0.1418 -0.0426
  697TIP3    H123582   5.787   6.116   2.457  0.3896 -1.2758 -0.6058
  697TIP3    H223583   5.883   6.163   2.564 -0.5618 -1.8532  0.5320
  698TIP3   OH223584   2.103   3.541   6.634 -0.0270 -0.6575  0.4840
  698TIP3    H123585   2.012   3.537   6.606 -0.2569 -0.0509  1.1280
  698TIP3    H223586   2.143   3.606   6.576  0.0001 -0.9193  0.2061
  699TIP3   OH223587   6.765   2.173  15.809  0.3018 -0.2789 -0.4077
  699TIP3    H123588   6.675   2.149  15.787  0.8423 -0.8526 -2.2441
  699TIP3    H223589   6.761   2.206  15.898 -1.7613 -0.0849 -0.5310
  700TIP3   OH223590   2.378   5.872  14.246 -0.4836  0.2001 -0.6404
  700TIP3    H123591   2.431   5.804  14.204 -1.2092 -0.6662 -0.1812
  700TIP3    H223592   2.442   5.927  14.292  0.2779  0.8340 -2.3600
  701TIP3   OH223593   5.084   3.062  15.563  0.4240 -0.4256  0.1400
  701TIP3    H123594   5.054   3.152  15.579  0.2724 -0.2007 -1.2833
  701TIP3    H223595   5.173   3.072  15.528  0.2149 -0.7908 -0.5126
  702TIP3   OH223596   0.745   2.373   6.168 -0.4792  0.2027 -0.1548
  702TIP3    H123597   0.823   2.330   6.206 -0.1415  0.5759 -0.4191
  702TIP3    H223598   0.683   2.302   6.155 -0.2395 -0.0785  0.2039
  703TIP3   OH223599   1.992   3.204   1.592 -1.2006 -0.1027 -0.6380
  703TIP3    H123600   1.950   3.126   1.628 -2.0208  0.8715  0.6151
  703TIP3    H223601   1.927   3.273   1.603 -0.2828  0.8868 -1.2110
  704TIP3   OH223602   0.333   0.674   1.789  0.1527 -0.4508  0.1000
  704TIP3    H123603   0.347   0.687   1.883  1.3569  0.2740 -0.1608
  704TIP3    H223604   0.355   0.582   1.774  1.2913 -0.2267  0.3099
  705TIP3   OH223605   2.859   0.153  15.196  0.5778  0.6802  0.3960
  705TIP3    H123606   2.853   0.160  15.291  0.8063  3.2246  0.3037
  705TIP3    H223607   2.769   0.161  15.166  0.3909 -1.1117  0.3948
  706TIP3   OH223608   1.096   2.725   1.250 -0.5863  0.3506  0.1511
  706TIP3    H123609   1.108   2.650   1.307 -0.1786 -0.1333 -0.5584
  706TIP3    H223610   1.183   2.742   1.214 -1.1051 -0.3419 -1.5317
  707TIP3   OH223611   5.748   2.229  11.453 -0.1565 -0.3568  0.4162
  707TIP3    H123612   5.822   2.169  11.450  0.8331  0.7745 -3.2337
  707TIP3    H223613   5.774   2.303  11.398 -2.9930  1.3916  1.1619
  708TIP3   OH223614   3.918   1.012   3.253  0.4148  0.4387 -0.6664
  708TIP3    H123615   3.988   0.980   3.310  0.8328  1.9188 -0.3119
  708TIP3    H223616   3.916   0.950   3.180  1.6179 -0.0136 -0.3390
  709TIP3   OH223617   6.458   2.677  15.406 -0.1058 -0.0161 -0.4048
  709TIP3    H123618   6.386   2.729  15.371 -0.3653 -0.4446 -0.5139
  709TIP3    H223619   6.537   2.718  15.371 -0.3677 -0.6067 -1.7228
  710TIP3   OH223620   1.555   3.923   0.426 -0.3807  0.3301 -0.9644
  710TIP3    H123621   1.576   3.894   0.515  0.0969  1.9887 -0.5091
  710TIP3    H223622   1.486   3.988   0.438  2.0560  3.2317 -1.3852
  711TIP3   OH223623   4.627   3.425  11.082  0.3737 -0.4106 -0.6551
  711TIP3    H123624   4.580   3.344  11.102 -1.3112  0.3431 -1.4232
  711TIP3    H223625   4.641   3.423  10.988  0.4056  0.1579 -0.6673
  712TIP3   OH223626   4.120   1.418  11.948 -0.5064 -0.0941 -0.2281
  712TIP3    H123627   4.193   1.465  11.906 -2.8844  3.1187 -1.2143
  712TIP3    H223628   4.141   1.422  12.041  0.2933  1.4468 -0.4228
  713TIP3   OH223629   4.376   2.634  15.518 -0.2412 -0.5529  0.4880
  713TIP3    H123630   4.433   2.698  15.474  0.1272 -1.6892 -0.7197
  713TIP3    H223631   4.434   2.593  15.583 -0.2357 -0.3223  0.6335
  714TIP3   OH223632   4.822   3.587   5.408  0.1975  0.3233 -0.0686
  714TIP3    H123633   4.845   3.677   5.384  2.4863 -0.5714 -1.4813
  714TIP3    H223634   4.833   3.584   5.503  1.2179  1.2379 -0.1451
  715TIP3   OH223635   6.177   1.289  12.110  0.0470 -0.5652 -0.1128
  715TIP3    H123636   6.193   1.335  12.193 -0.1420 -2.0347  0.7623
  715TIP3    H223637   6.261   1.293  12.065  0.5726 -0.9978  0.7956
  716TIP3   OH223638   4.547   2.981   3.671 -0.7407  0.1479  0.3055
  716TIP3    H123639   4.639   2.973   3.697 -0.2852  1.8180 -0.6144
  716TIP3    H223640   4.500   2.991   3.753 -0.0907 -0.5139  0.7799
  717TIP3   OH223641   3.087   6.329   2.677 -0.0962 -0.0655  0.1453
  717TIP3    H123642   3.022   6.310   2.609  0.8858  1.4155 -1.2884
  717TIP3    H223643   3.154   6.262   2.665 -1.7311 -2.3158  2.3626
  718TIP3   OH223644   4.206   1.738  12.985  0.0601  0.3550 -0.1356
  718TIP3    H123645   4.281   1.795  12.965 -0.7554  2.8654  3.0460
  718TIP3    H223646   4.243   1.650  12.986  2.0941  1.0798 -2.3271
  719TIP3   OH223647   2.991   4.954   4.410  0.1221  0.0868 -0.4121
  719TIP3    H123648   2.941   4.995   4.339  0.2064  1.8893  0.5219
  719TIP3    H223649   2.926   4.936   4.478  0.6941  2.9564  1.0416
  720TIP3   OH223650   6.484   3.370   4.619  0.0725  0.0497  0.2676
  720TIP3    H123651   6.551   3.311   4.586  0.5118 -0.4008  1.8497
  720TIP3    H223652   6.520   3.404   4.701 -2.3724 -1.7903  2.2674
  721TIP3   OH223653   0.481   2.180   1.552 -0.1433  0.3349 -0.3758
  721TIP3    H123654   0.513   2.124   1.481 -0.1950 -0.1248 -0.0377
  721TIP3    H223655   0.463   2.264   1.510  1.9325  0.7672 -0.5182
  722TIP3   OH223656   1.995   2.164  11.935  0.0420  0.2521 -0.1480
  722TIP3    H123657   2.061   2.122  11.879  0.5941  0.9774 -0.0598
  722TIP3    H223658   1.922   2.183  11.876  1.3324  2.6831 -1.1301
  723TIP3   OH223659   4.916   1.841  14.566 -1.0425 -0.2761  0.0360
  723TIP3    H123660   4.842   1.780  14.575 -0.3676 -1.1817 -0.3985
  723TIP3    H223661   4.948   1.827  14.477  0.8465 -1.3313  0.8074
  724TIP3   OH223662   5.734   4.106  14.323  0.1064  0.0839 -0.0026
  724TIP3    H123663   5.690   4.026  14.352 -0.6996  0.6623  0.4140
  724TIP3    H223664   5.779   4.140  14.400  2.2744 -1.0806 -0.6690
  725TIP3   OH223665   4.199   6.399  15.701  0.1965 -0.3989  0.1440
  725TIP3    H123666   4.244   6.375  15.620 -1.4267  0.0925 -0.9518
  725TIP3    H223667   4.219   6.491  15.713 -0.3470 -0.2244 -0.2477
  726TIP3   OH223668   4.893   0.925  11.521 -0.2423  0.0507  0.5260
  726TIP3    H123669   4.926   0.931  11.610  1.6471  1.2004 -0.1788
  726TIP3    H223670   4.902   0.833  11.497  0.0724 -0.0985  1.2130
  727TIP3   OH223671   5.432   0.564  16.072  0.6130  0.4117  1.0020
  727TIP3    H123672   5.366   0.509  16.030 -0.8779  1.6351  1.6653
  727TIP3    H223673   5.472   0.507  16.138 -0.1648 -0.1827  0.9758
  728TIP3   OH223674   1.122   2.579   3.013 -0.0951  0.5337  0.0977
  728TIP3    H123675   1.087   2.655   3.059  0.2749  1.0870 -0.5130
  728TIP3    H223676   1.194   2.549   3.067  0.0320  0.8842  0.1236
  729TIP3   OH223677   2.210   6.817   2.282 -0.1512 -0.1072  0.2427
  729TIP3    H123678   2.229   6.723   2.280  1.9097  0.2592 -0.6835
  729TIP3    H223679   2.200   6.841   2.190  0.0178  0.6950  0.4239
  730TIP3   OH223680   6.283   1.188   5.945 -0.3383  0.0424  0.4472
  730TIP3    H123681   6.359   1.179   5.889 -0.7849  0.9002 -0.3093
  730TIP3    H223682   6.313   1.159   6.031  0.6480 -0.2555  0.0119
  731TIP3   OH223683   0.733   5.645   0.917 -0.2083  0.2910  0.0165
  731TIP3    H123684   0.643   5.661   0.946  0.7510  1.5742  2.6002
  731TIP3    H223685   0.744   5.550   0.925 -1.2539  0.1431 -0.1340
  732TIP3   OH223686   4.154   5.006  13.697 -0.0412 -0.3898 -0.4993
  732TIP3    H123687   4.222   5.054  13.650  0.5031 -1.7365 -1.1317
  732TIP3    H223688   4.154   5.045  13.784  0.1506  0.9659 -1.0724
  733TIP3   OH223689   6.686   2.931   1.601 -0.0984 -0.4959  0.4483
  733TIP3    H123690   6.737   3.012   1.609 -0.4236 -0.4125  1.9974
  733TIP3    H223691   6.607   2.957   1.554  0.6804 -0.3590 -0.8355
  734TIP3   OH223692   3.819   0.601   3.941  0.0929  0.0129  0.0577
  734TIP3    H123693   3.901   0.551   3.933  0.1928  0.2869 -0.6515
  734TIP3    H223694   3.751   0.539   3.917  0.0697 -0.2722  0.8341
  735TIP3   OH223695   5.164   3.197   3.066 -0.2703 -0.1851  0.0458
  735TIP3    H123696   5.101   3.196   3.137 -0.8702  1.2229 -0.4486
  735TIP3    H223697   5.161   3.108   3.030 -1.6364 -0.2593  0.3150
  736TIP3   OH223698   2.220   0.131   1.443 -0.5742 -0.3507 -0.5833
  736TIP3    H123699   2.272   0.193   1.393  0.9420 -0.3326  0.9314
  736TIP3    H223700   2.239   0.046   1.403  0.4977 -0.3143 -0.1985
  737TIP3   OH223701   5.083   4.692   5.815  0.5704 -0.0592  0.4314
  737TIP3    H123702   5.035   4.650   5.886  0.3446 -0.5358 -0.0028
  737TIP3    H223703   5.172   4.658   5.822  1.0543  1.3530  1.6721
  738TIP3   OH223704   1.383   4.060  12.120  0.3616 -0.0562 -0.1331
  738TIP3    H123705   1.470   4.022  12.110  1.0519  0.9180  1.7712
  738TIP3    H223706   1.324   3.996  12.079  1.7629 -1.7392  0.3673
  739TIP3   OH223707   5.467   6.552  17.206  0.4071  0.4422 -0.2801
  739TIP3    H123708   5.387   6.540  17.257  1.4062 -0.1244  1.2299
  739TIP3    H223709   5.441   6.533  17.116 -0.9412 -0.7032  0.3075
  740TIP3   OH223710   2.653   6.178  12.507 -0.7038  0.4186  0.1589
  740TIP3    H123711   2.600   6.227  12.445  0.6369  1.0293 -0.5552
  740TIP3    H223712   2.675   6.096  12.462 -1.5845 -0.1388  0.7171
  741TIP3   OH223713   6.563   0.148   5.266 -0.8906  0.1377  0.5318
  741TIP3    H123714   6.482   0.103   5.290 -0.9620  0.6937  1.3992
  741TIP3    H223715   6.568   0.222   5.327  1.3932 -1.1298  2.0609
  742TIP3   OH223716   4.641   2.848   3.099  0.3404  0.1863 -0.0536
  742TIP3    H123717   4.640   2.930   3.050  0.4549  0.9558  1.2112
  742TIP3    H223718   4.556   2.846   3.144 -0.0647 -0.8599 -0.8091
  743TIP3   OH223719   4.984   3.223   1.201  0.1616 -0.1049  0.4321
  743TIP3    H123720   4.912   3.286   1.206 -1.4311 -1.6260 -1.7798
  743TIP3    H223721   5.022   3.224   1.289 -1.3110  2.1371  1.1435
  744TIP3   OH223722   3.149   5.514  13.492 -0.5014 -0.2907 -0.5977
  744TIP3    H123723   3.064   5.551  13.470 -0.0216  1.7374  0.6796
  744TIP3    H223724   3.139   5.480  13.581  0.6183  2.3164  0.6179
  745TIP3   OH223725   2.516   6.720   2.820 -0.1120  0.3595 -0.4137
  745TIP3    H123726   2.507   6.814   2.839  0.2507 -0.1176  2.7202
  745TIP3    H223727   2.466   6.707   2.740 -1.1784  3.0269 -0.3057
  746TIP3   OH223728   1.388   2.125   4.119 -0.5201 -0.1029  0.1931
  746TIP3    H123729   1.321   2.139   4.052 -1.1058  1.0692  0.9927
  746TIP3    H223730   1.339   2.097   4.196 -0.3415  2.4237  1.3026
  747TIP3   OH223731   3.409   3.689   4.526  0.5133 -0.3577 -0.4077
  747TIP3    H123732   3.382   3.631   4.455 -1.5924  0.3423 -0.2460
  747TIP3    H223733   3.423   3.631   4.600  2.4214 -1.0588 -1.2487
  748TIP3   OH223734   5.150   2.636  11.476 -0.3459  0.1510 -0.1092
  748TIP3    H123735   5.126   2.728  11.482 -0.6326  0.1090 -0.5421
  748TIP3    H223736   5.066   2.589  11.474 -0.2038 -0.1873  0.9713
  749TIP3   OH223737   2.032   1.986   1.249 -0.1943  0.0476  0.0063
  749TIP3    H123738   2.099   1.924   1.221 -0.4696 -0.1738 -0.1774
  749TIP3    H223739   1.986   2.009   1.169 -2.5434 -2.4235  0.4901
  750TIP3   OH223740   4.084   5.281   4.541 -0.1151 -0.0042 -0.3067
  750TIP3    H123741   4.162   5.240   4.504 -0.3503 -1.6596  0.9268
  750TIP3    H223742   4.016   5.266   4.476  0.0431 -0.6855 -0.3237
  751TIP3   OH223743   3.940   6.232  14.254  0.1021  0.4413  0.2569
  751TIP3    H123744   4.023   6.276  14.275  0.3478  0.0143  0.1896
  751TIP3    H223745   3.914   6.269  14.170  0.4926  0.2042  0.0272
  752TIP3   OH223746   4.845   6.211  16.655  0.1185  0.0002 -0.0519
  752TIP3    H123747   4.897   6.250  16.726 -1.0317  0.8706  0.3553
  752TIP3    H223748   4.886   6.243  16.575 -0.4416  1.6563  0.2724
  753TIP3   OH223749   3.322   0.836   4.996 -0.0244 -1.2823 -0.4255
  753TIP3    H123750   3.239   0.826   4.949  0.1878 -1.2212 -0.8151
  753TIP3    H223751   3.314   0.778   5.071 -0.6235 -0.8972 -0.1853
  754TIP3   OH223752   2.527   0.258  13.559  0.5236  0.7601  0.6829
  754TIP3    H123753   2.539   0.218  13.645  1.5817 -0.0201  0.1962
  754TIP3    H223754   2.616   0.283  13.532  0.4729 -0.6404 -0.9256
  755TIP3   OH223755   4.565   1.009  17.070 -0.3635  0.0048  0.5410
  755TIP3    H123756   4.501   0.960  17.122  0.4612 -0.1695  1.4210
  755TIP3    H223757   4.517   1.086  17.040 -1.6333 -1.2072 -0.7116
  756TIP3   OH223758   3.645   6.624   0.609  0.0849 -0.1325 -0.7254
  756TIP3    H123759   3.664   6.589   0.522  1.6608 -1.1252 -0.0283
  756TIP3    H223760   3.607   6.711   0.593  1.8438  0.3905 -2.3676
  757TIP3   OH223761   1.460   2.159   0.657  0.2169  0.6212  0.0877
  757TIP3    H123762   1.410   2.079   0.669 -1.1317  1.4073 -0.1563
  757TIP3    H223763   1.477   2.190   0.746  0.7322  0.0828  0.1823
  758TIP3   OH223764   1.769   0.257   5.987  0.2023  0.0168 -0.1565
  758TIP3    H123765   1.718   0.201   6.046  1.2024 -0.6380  0.1138
  758TIP3    H223766   1.860   0.237   6.008  0.5769  0.8615 -0.9155
  759TIP3   OH223767   1.865   3.763   0.032 -0.1707  0.0902 -0.3888
  759TIP3    H123768   1.774   3.784   0.015 -0.4715 -0.3136  0.6709
  759TIP3    H223769   1.901   3.741  -0.054 -0.5890  1.9715 -1.0964
  760TIP3   OH223770   2.502   2.309  16.787  0.1616 -0.1176 -0.4699
  760TIP3    H123771   2.582   2.361  16.796  0.1038 -0.1663  0.4200
  760TIP3    H223772   2.441   2.365  16.739  0.3846  0.3122 -0.2528
  761TIP3   OH223773   6.539   0.481  10.482 -0.1344 -0.0917 -0.2828
  761TIP3    H123774   6.595   0.559  10.472 -0.9322  0.3775 -1.2493
  761TIP3    H223775   6.461   0.514  10.526  0.1372 -0.6622  0.6637
  762TIP3   OH223776   1.049   3.907   1.368  0.5988 -0.2310 -0.0175
  762TIP3    H123777   0.991   3.897   1.443  1.5677 -0.8623  0.6767
  762TIP3    H223778   1.063   4.002   1.360  1.0301 -0.1861  1.0522
  763TIP3   OH223779   5.721   3.736   4.000  0.1933 -0.2828 -0.1370
  763TIP3    H123780   5.669   3.788   3.939  0.6304 -2.4748 -2.5424
  763TIP3    H223781   5.657   3.692   4.056 -0.2978  0.4882 -0.0833
  764TIP3   OH223782   5.665   6.582  16.863 -0.6270 -0.2921 -0.1209
  764TIP3    H123783   5.579   6.580  16.820 -0.7103 -5.4119 -0.3673
  764TIP3    H223784   5.663   6.508  16.923  2.5137  1.5348  2.5480
  765TIP3   OH223785   1.953   1.076   1.855 -0.1247 -0.4795  0.3826
  765TIP3    H123786   1.966   1.114   1.768 -0.0088 -1.4773 -0.0474
  765TIP3    H223787   2.042   1.060   1.888 -0.1374  0.7689  1.1015
  766TIP3   OH223788   1.194   3.035   2.151 -0.2158  0.2801 -0.1278
  766TIP3    H123789   1.238   3.115   2.122 -0.8507 -0.5594 -3.8679
  766TIP3    H223790   1.233   2.966   2.099 -1.6038 -1.4694  1.0238
  767TIP3   OH223791   4.537   0.665  13.109 -0.2463  0.2392  0.5486
  767TIP3    H123792   4.591   0.620  13.044 -0.8566  1.4143 -0.8351
  767TIP3    H223793   4.467   0.602  13.129 -0.3089  0.0256 -0.2948
  768TIP3   OH223794   3.934   3.102  15.098  0.6477  0.1829  0.2086
  768TIP3    H123795   3.892   3.101  15.184  0.1395 -0.3161 -0.0376
  768TIP3    H223796   4.021   3.067  15.113 -0.2007 -2.0789  0.1546
  769TIP3   OH223797   4.657   4.657  16.073 -0.2234  0.5561  0.2951
  769TIP3    H123798   4.574   4.628  16.110 -0.4813 -0.2766 -0.8796
  769TIP3    H223799   4.716   4.583  16.086 -0.5472 -0.1040 -1.6253
  770TIP3   OH223800   1.318   0.808   6.912  0.0799  0.5551  0.6669
  770TIP3    H123801   1.348   0.819   6.822 -2.7510  4.1887 -0.0659
  770TIP3    H223802   1.398   0.803   6.963  1.7846 -0.4180 -1.8915
  771TIP3   OH223803   3.025   4.390  13.254 -0.2487  0.1462 -0.1876
  771TIP3    H123804   2.943   4.341  13.250  0.0748 -0.5761  1.2358
  771TIP3    H223805   3.032   4.417  13.346  0.3713  1.4973 -0.6101
  772TIP3   OH223806   6.609   4.854   1.393 -0.4336  0.9305 -0.0372
  772TIP3    H123807   6.595   4.797   1.317 -1.6993  1.0831  0.0460
  772TIP3    H223808   6.703   4.869   1.396 -0.3866  1.1917 -1.7795
  773TIP3   OH223809   4.612   4.966   2.063  0.3553  0.3693  0.4309
  773TIP3    H123810   4.693   4.916   2.052  0.7061  0.4518  2.2945
  773TIP3    H223811   4.623   5.043   2.007  0.6224 -0.6483 -0.9782
  774TIP3   OH223812   0.842   2.665   0.734  0.3452  0.3107  0.2198
  774TIP3    H123813   0.900   2.734   0.704  1.6394 -0.3893  1.0167
  774TIP3    H223814   0.894   2.585   0.729 -0.3467 -0.2636  1.4868
  775TIP3   OH223815   0.616   3.129  14.419 -0.1868 -0.4767 -0.3371
  775TIP3    H123816   0.567   3.088  14.349 -0.0252 -0.9810 -0.1623
  775TIP3    H223817   0.699   3.156  14.378 -0.3749 -0.1394 -0.4985
  776TIP3   OH223818   1.835   0.454   2.402 -0.2054  0.4876 -0.3702
  776TIP3    H123819   1.925   0.461   2.371  0.0759 -1.1509 -0.0175
  776TIP3    H223820   1.808   0.544   2.417  1.7271  0.9767  0.5031
  777TIP3   OH223821   4.293   4.773   0.426 -0.1500 -0.0232  0.0003
  777TIP3    H123822   4.378   4.765   0.382 -1.0080 -0.5449 -1.6172
  777TIP3    H223823   4.235   4.811   0.361 -1.1887  0.3171  1.0830
  778TIP3   OH223824   6.708   0.029  15.638  0.9676  0.6122  0.1787
  778TIP3    H123825   6.685   0.086  15.711 -0.6901 -0.9357  0.9415
  778TIP3    H223826   6.643   0.048  15.571 -0.0163 -0.7616  0.6884
  779TIP3   OH223827   2.326   2.335   4.726  0.1482  0.8899  0.1364
  779TIP3    H123828   2.318   2.253   4.775 -0.3530  1.1364  0.4797
  779TIP3    H223829   2.245   2.340   4.674  1.0644  0.1878 -1.4398
  780TIP3   OH223830   3.862   1.121   4.176  0.2450 -0.1476 -0.4259
  780TIP3    H123831   3.896   1.100   4.263  1.2456  2.1867 -0.1735
  780TIP3    H223832   3.769   1.137   4.191  0.2403 -0.5616  0.0432
  781TIP3   OH223833   0.584   6.300   4.949  0.0592  0.1760 -0.2075
  781TIP3    H123834   0.640   6.338   5.016 -1.8395  0.7339  1.1543
  781TIP3    H223835   0.495   6.315   4.981 -0.8649 -1.6026 -1.7500
  782TIP3   OH223836   5.774   3.208   2.374  0.1265  0.3564  0.1936
  782TIP3    H123837   5.783   3.297   2.342  1.2550  0.4768  0.7850
  782TIP3    H223838   5.728   3.217   2.458 -1.0138  0.2346 -0.4036
  783TIP3   OH223839   6.405   4.624  16.606  0.9515  0.3387  0.2887
  783TIP3    H123840   6.444   4.551  16.557  1.8186  1.1971 -0.3494
  783TIP3    H223841   6.470   4.646  16.672  0.9629  0.9039  0.0977
  784TIP3   OH223842   3.106   0.387  15.877  0.4206  0.1558 -0.1335
  784TIP3    H123843   3.028   0.334  15.891  0.9351 -1.2588 -2.0317
  784TIP3    H223844   3.095   0.463  15.933 -1.1471 -1.1788  1.4889
  785TIP3   OH223845   0.123   1.955   3.420  0.4821 -0.2328 -0.4055
  785TIP3    H123846   0.036   1.977   3.452  0.3213  0.3392 -1.1860
  785TIP3    H223847   0.180   2.020   3.462  0.5190 -0.5330  0.0132
  786TIP3   OH223848   3.959   1.268   4.472  0.2440  0.0552  0.0972
  786TIP3    H123849   3.871   1.305   4.484 -0.6843 -1.3860 -1.8189
  786TIP3    H223850   3.953   1.180   4.510  0.9555  0.0570  0.2187
  787TIP3   OH223851   2.230   4.498  17.244  0.2236 -0.1326 -0.0353
  787TIP3    H123852   2.215   4.591  17.227 -1.1075 -0.3026  0.1113
  787TIP3    H223853   2.258   4.495  17.335 -2.4534 -0.0733  0.8701
  788TIP3   OH223854   2.063   1.706   2.431  0.3164  0.1236 -0.4078
  788TIP3    H123855   2.085   1.799   2.425 -1.3740  0.5852  0.0653
  788TIP3    H223856   1.983   1.704   2.483  0.4951 -1.6373 -0.1567
  789TIP3   OH223857   4.830   1.278   0.222 -0.2847  0.0528 -0.4910
  789TIP3    H123858   4.897   1.268   0.290  0.3154  0.4548 -1.0176
  789TIP3    H223859   4.770   1.344   0.258 -0.2610 -0.1184 -0.1282
  790TIP3   OH223860   0.289   4.571   1.819 -0.7818 -0.2614 -0.5012
  790TIP3    H123861   0.378   4.576   1.786 -0.3888  0.8980  0.6336
  790TIP3    H223862   0.277   4.480   1.845  0.1302 -0.3819 -0.4966
  791TIP3   OH223863   0.032   5.060  12.107 -0.2983  0.0911 -0.1867
  791TIP3    H123864  -0.019   5.123  12.159 -0.8504  0.3235 -0.9832
  791TIP3    H223865   0.105   5.036  12.164 -0.9258  0.2747  0.7283
  792TIP3   OH223866   2.681   5.002  14.949  0.4258 -0.2531  0.6580
  792TIP3    H123867   2.755   5.031  15.003  1.3659  0.1787 -0.8139
  792TIP3    H223868   2.703   5.030  14.861 -2.3135  1.4616  0.3889
  793TIP3   OH223869   4.247   0.308   3.515  0.2834 -0.3452 -0.6268
  793TIP3    H123870   4.245   0.375   3.447  0.3449  0.7514  0.4412
  793TIP3    H223871   4.183   0.336   3.579 -0.6421 -1.9983 -0.7708
  794TIP3   OH223872   6.721   2.102  12.708  0.8662  0.4219 -0.7382
  794TIP3    H123873   6.812   2.130  12.711  0.9055  0.2549  1.0144
  794TIP3    H223874   6.682   2.140  12.787 -0.1823 -0.7938 -0.6374
  795TIP3   OH223875   2.468   5.985   5.840  0.2205  0.6543 -0.2647
  795TIP3    H123876   2.551   6.018   5.874 -0.2124 -0.5760  2.2109
  795TIP3    H223877   2.478   5.989   5.745  2.4251  2.1593 -0.0591
  796TIP3   OH223878   6.459   2.582   0.800  0.4990  0.0228 -0.1300
  796TIP3    H123879   6.368   2.551   0.799  0.2103  0.8514 -0.3620
  796TIP3    H223880   6.503   2.527   0.736 -0.5580  1.6517 -2.3991
  797TIP3   OH223881   3.078   4.281  17.214 -0.1088 -0.4623  0.2451
  797TIP3    H123882   3.135   4.232  17.154 -0.5872 -0.1999 -0.4455
  797TIP3    H223883   3.011   4.319  17.157 -0.8388 -0.5672  1.0115
  798TIP3   OH223884   3.739   1.967   0.497 -0.1902 -0.4545 -0.4506
  798TIP3    H123885   3.653   1.971   0.454  0.2522 -1.6202 -1.5223
  798TIP3    H223886   3.782   1.891   0.457  0.9529 -0.5084  0.8056
  799TIP3   OH223887   1.363   4.375   1.746  0.3905  0.4259  0.1935
  799TIP3    H123888   1.429   4.436   1.780  1.3738 -0.3360 -0.2944
  799TIP3    H223889   1.313   4.349   1.824  1.3808  0.1762  0.7687
  800TIP3   OH223890   5.802   6.051   3.363  0.1800 -0.6124  0.7429
  800TIP3    H123891   5.889   6.036   3.326 -0.2598 -0.9488 -0.1974
  800TIP3    H223892   5.794   6.146   3.368  1.2976 -0.5684  2.5934
  801TIP3   OH223893   0.163   4.938  15.036 -0.3828 -0.0802  0.0846
  801TIP3    H123894   0.212   4.866  14.997 -0.3990 -0.3747  0.5954
  801TIP3    H223895   0.082   4.898  15.067 -1.0792  0.4603 -1.0007
  802TIP3   OH223896   2.391   4.774  11.070  0.2617 -0.2829 -0.3921
  802TIP3    H123897   2.328   4.831  11.027 -0.6140  0.1730  1.4066
  802TIP3    H223898   2.349   4.749  11.152  1.1704 -2.4676 -0.5119
  803TIP3   OH223899   2.274   3.734  14.470  0.3532  0.3821 -0.0285
  803TIP3    H123900   2.266   3.663  14.534  0.0560  0.3325 -0.1198
  803TIP3    H223901   2.226   3.807  14.509  0.6407  0.5306  0.0551
  804TIP3   OH223902   1.755   1.884  14.265  0.1693  0.0662  0.2388
  804TIP3    H123903   1.846   1.867  14.241  0.5127  0.4456  1.2050
  804TIP3    H223904   1.742   1.976  14.245 -0.7694 -0.5175 -2.1593
  805TIP3   OH223905   1.479   0.924   2.506  0.1320 -0.2874  0.0349
  805TIP3    H123906   1.559   0.971   2.529  2.1799 -2.5620 -1.8611
  805TIP3    H223907   1.425   0.988   2.460  0.2739  1.6079  2.3384
  806TIP3   OH223908   4.314   6.294  13.059 -0.3133  0.1253 -0.3294
  806TIP3    H123909   4.262   6.230  13.009 -0.4844  0.2139 -0.2663
  806TIP3    H223910   4.257   6.370  13.067 -0.8387 -0.3854  1.1926
  807TIP3   OH223911   2.298   2.145  16.444  0.4306  0.3835 -0.2811
  807TIP3    H123912   2.364   2.203  16.480  0.4904 -0.1116  0.4372
  807TIP3    H223913   2.269   2.093  16.519  0.1235 -0.2561 -0.8333
  808TIP3   OH223914   6.285   3.200   3.766 -0.3151  0.6315  0.3673
  808TIP3    H123915   6.293   3.259   3.841  1.5629  0.5836  0.2586
  808TIP3    H223916   6.196   3.166   3.771 -0.3596  0.9453  2.3448
  809TIP3   OH223917   2.315   0.638  12.301  0.1742  0.4177 -0.1145
  809TIP3    H123918   2.304   0.543  12.303 -2.2683  0.4844 -2.9242
  809TIP3    H223919   2.378   0.654  12.231  1.2897  0.9070  0.9576
  810TIP3   OH223920   4.816   1.590  11.554  0.0252  0.2762 -0.1439
  810TIP3    H123921   4.755   1.628  11.618 -0.7268 -1.2183  0.0688
  810TIP3    H223922   4.897   1.639  11.567 -0.0956  0.0091  1.9851
  811TIP3   OH223923   5.570   2.163  15.543 -0.2339 -0.2548 -0.6969
  811TIP3    H123924   5.580   2.162  15.448 -1.2086 -0.6008 -0.8118
  811TIP3    H223925   5.631   2.230  15.573 -1.0959  1.0456 -1.7170
  812TIP3   OH223926   0.441   4.834   1.627  0.2653  0.3922  0.7644
  812TIP3    H123927   0.349   4.815   1.647 -0.1717 -0.4582 -1.6954
  812TIP3    H223928   0.489   4.760   1.663 -0.5140 -1.2259 -1.2979
  813TIP3   OH223929   0.608   3.122  15.205  0.6413 -0.3534  0.1727
  813TIP3    H123930   0.561   3.168  15.275  1.0844  0.7268 -0.2135
  813TIP3    H223931   0.676   3.184  15.178  0.0483 -0.4712 -1.6999
  814TIP3   OH223932   6.078   2.970  12.905 -0.1459 -0.0544 -0.5751
  814TIP3    H123933   6.171   2.962  12.887  0.7972  0.7658  3.1510
  814TIP3    H223934   6.071   2.966  13.000 -3.3886  4.1174 -0.3238
  815TIP3   OH223935   0.010   0.110  11.221  0.5141 -0.1684  0.1953
  815TIP3    H123936  -0.040   0.032  11.197 -0.1703  0.3618 -0.1201
  815TIP3    H223937  -0.033   0.143  11.300  0.8528 -0.1496  0.3759
  816TIP3   OH223938   0.750   1.300   6.558  0.1705  0.4363  0.2844
  816TIP3    H123939   0.818   1.360   6.528 -0.1943  1.0729  0.7182
  816TIP3    H223940   0.683   1.356   6.597 -0.5208 -0.1926  0.0325
  817TIP3   OH223941   4.570   6.308   5.747 -0.5761 -0.8579 -0.0425
  817TIP3    H123942   4.527   6.261   5.818 -0.1087 -0.3632  0.5753
  817TIP3    H223943   4.652   6.259   5.732 -0.3349 -0.5477  0.2498
  818TIP3   OH223944   4.455   2.353  16.273 -1.2387  0.3385  0.0299
  818TIP3    H123945   4.454   2.272  16.324  0.4313 -0.8582 -1.7314
  818TIP3    H223946   4.402   2.334  16.196  2.6245 -0.7488 -2.6015
  819TIP3   OH223947   6.779   5.985   2.517  1.1590  0.4964 -0.6756
  819TIP3    H123948   6.825   5.926   2.457  0.5555 -0.1552 -0.5096
  819TIP3    H223949   6.689   5.988   2.484  0.7580 -0.0596  0.3179
  820TIP3   OH223950   4.814   5.620   0.563 -0.0167 -0.3246  0.6068
  820TIP3    H123951   4.844   5.684   0.628  1.1399 -0.4161  0.1885
  820TIP3    H223952   4.755   5.670   0.507 -0.9449 -0.2214  1.6591
  821TIP3   OH223953   3.938   1.124  16.069  0.4432 -0.8361  0.0417
  821TIP3    H123954   3.986   1.134  15.987 -1.8387 -2.1072 -1.5586
  821TIP3    H223955   3.972   1.043  16.107  0.4636 -1.0416 -0.4086
  822TIP3   OH223956   3.448   1.958  13.997 -0.1513 -0.4254 -0.1271
  822TIP3    H123957   3.511   1.914  14.054 -0.5253 -1.5589 -0.5484
  822TIP3    H223958   3.475   2.050  13.998  0.0303 -0.4647  1.6030
  823TIP3   OH223959   4.532   2.658  17.103 -0.2311  0.4030  0.3495
  823TIP3    H123960   4.584   2.599  17.050  0.5600  1.7578 -0.4349
  823TIP3    H223961   4.470   2.601  17.149  0.6538 -1.0336 -0.1811
  824TIP3   OH223962   0.102   5.975   6.304 -0.6585 -0.1642 -0.4152
  824TIP3    H123963   0.186   6.010   6.275  0.0345 -0.0814  1.5459
  824TIP3    H223964   0.044   6.051   6.308 -0.2970  0.0937 -0.0145
  825TIP3   OH223965   4.972   3.276   4.416 -0.4069  0.3597 -0.0909
  825TIP3    H123966   4.947   3.272   4.508 -0.6424  0.7868 -0.1333
  825TIP3    H223967   4.889   3.280   4.369 -0.3862 -2.2543 -0.4771
  826TIP3   OH223968   0.172   4.336   0.861 -0.5900  0.5695 -0.5911
  826TIP3    H123969   0.241   4.391   0.899 -0.4491  1.0057 -1.4661
  826TIP3    H223970   0.203   4.247   0.876 -0.7802  0.7106  0.7676
  827TIP3   OH223971   4.095   6.613   4.762  0.4242  0.4996  0.1118
  827TIP3    H123972   4.132   6.526   4.774 -1.2635 -0.0888  1.5592
  827TIP3    H223973   4.051   6.610   4.678 -0.0525 -0.2254  0.3851
  828TIP3   OH223974   5.663   4.231  12.923  0.4291  0.3379  0.6129
  828TIP3    H123975   5.686   4.305  12.979  0.4041 -0.0761  1.1823
  828TIP3    H223976   5.587   4.191  12.965 -1.3178  1.5932 -1.1745
  829TIP3   OH223977   3.825   4.911  17.022  0.0890 -0.3821  0.4186
  829TIP3    H123978   3.805   5.000  17.048 -0.6287 -0.5387  0.4139
  829TIP3    H223979   3.741   4.872  16.999  0.4663 -0.8601 -0.2126
  830TIP3   OH223980   4.166   5.433  16.772  0.0702 -0.1942  0.5800
  830TIP3    H123981   4.091   5.492  16.780 -0.0929 -0.5914  2.3368
  830TIP3    H223982   4.174   5.417  16.678 -1.0452  1.1244  0.2309
  831TIP3   OH223983   6.016   0.477  11.460 -0.0496  0.2946  0.6081
  831TIP3    H123984   6.014   0.556  11.407  0.2914  0.8020  1.3321
  831TIP3    H223985   6.063   0.503  11.540  0.6853 -0.8095  0.5615
  832TIP3   OH223986   4.416   0.012   2.351  0.3339  0.4915  0.3334
  832TIP3    H123987   4.356  -0.058   2.378  1.8170 -0.2615  1.8518
  832TIP3    H223988   4.395   0.027   2.259 -1.8970 -0.0025  0.7000
  833TIP3   OH223989   5.983   6.248   1.226 -0.7484  0.0165 -0.5741
  833TIP3    H123990   6.029   6.169   1.254  1.2905  1.4683  0.4980
  833TIP3    H223991   5.891   6.230   1.245 -0.2451 -1.7846  0.4325
  834TIP3   OH223992   6.069   5.874   5.610 -0.7294 -0.0004 -0.2357
  834TIP3    H123993   6.031   5.899   5.695 -0.0347  2.1199 -0.4800
  834TIP3    H223994   6.159   5.849   5.630 -1.0952 -1.2863 -0.1400
  835TIP3   OH223995   5.711   4.539   4.171  0.4798  0.1742 -0.2107
  835TIP3    H123996   5.722   4.595   4.248  2.7149  0.5324 -0.7144
  835TIP3    H223997   5.783   4.564   4.113  1.0846 -2.6098 -0.8308
  836TIP3   OH223998   1.731   6.243  14.252  0.0394  0.4880  0.0318
  836TIP3    H123999   1.802   6.296  14.215 -0.1584 -0.9860 -2.7118
  836TIP3    H224000   1.775   6.164  14.285 -0.2485 -0.6348 -2.0804
  837TIP3   OH224001   2.130   3.664  12.589  0.0792 -0.3783  0.7065
  837TIP3    H124002   2.068   3.736  12.602  0.5762 -0.0888  1.4874
  837TIP3    H224003   2.194   3.699  12.526  1.1148  0.3797  2.1372
  838TIP3   OH224004   2.177   5.689   4.515  0.2306  0.7499 -0.4435
  838TIP3    H124005   2.168   5.733   4.430  0.6039  0.7227 -0.5021
  838TIP3    H224006   2.158   5.597   4.496 -1.6579  1.0285 -0.1064
  839TIP3   OH224007   0.871   3.096  13.565  0.6794 -0.5774 -0.1284
  839TIP3    H124008   0.909   3.146  13.637  2.0069 -1.4367 -0.1901
  839TIP3    H224009   0.947   3.058  13.520 -0.1597 -0.6754 -1.5265
  840TIP3   OH224010   3.057   1.484   2.246  0.2011 -0.2860 -1.0932
  840TIP3    H124011   3.105   1.538   2.183  0.8324  1.0550  0.4526
  840TIP3    H224012   3.108   1.404   2.253  2.1556  0.9805  0.2816
  841TIP3   OH224013   6.355   6.748   3.447  0.3869  0.0422 -0.7805
  841TIP3    H124014   6.378   6.760   3.539  2.3934  1.0817 -1.3634
  841TIP3    H224015   6.325   6.657   3.441 -0.3365  0.1419  0.9856
  842TIP3   OH224016   5.805   6.487   4.334  0.0388  0.2178 -0.5294
  842TIP3    H124017   5.758   6.503   4.416 -0.5917  1.3382 -1.0756
  842TIP3    H224018   5.883   6.439   4.360 -0.9303 -0.8658  0.5256
  843TIP3   OH224019   5.557   5.018  14.928 -0.0111 -0.1521  0.8586
  843TIP3    H124020   5.537   4.957  14.999  1.0611 -0.5718  0.8196
  843TIP3    H224021   5.494   5.089  14.938 -0.0152 -0.3167  2.1018
  844TIP3   OH224022   2.750   5.098  13.302 -0.4720 -0.3338 -0.4382
  844TIP3    H124023   2.760   5.006  13.278 -0.5406 -0.2775 -0.6837
  844TIP3    H224024   2.742   5.144  13.218 -0.1669 -0.0736 -0.3251
  845TIP3   OH224025   3.847   1.706  13.255  0.1900  0.4335 -0.2233
  845TIP3    H124026   3.894   1.714  13.337 -2.0047  1.1480  1.0507
  845TIP3    H224027   3.799   1.624  13.262 -1.6904  1.5055  0.2092
  846TIP3   OH224028   6.555   6.486   2.759  0.2857 -0.4771  0.1074
  846TIP3    H124029   6.612   6.531   2.696  0.3261 -1.8954 -0.9161
  846TIP3    H224030   6.559   6.540   2.838  2.9152 -0.4481  0.0189
  847TIP3   OH224031   6.439   2.153  12.060 -0.2544 -0.3950 -0.2585
  847TIP3    H124032   6.523   2.126  12.024 -0.7892  0.2190 -2.0540
  847TIP3    H224033   6.461   2.221  12.125  0.8529 -2.7885  2.0561
  848TIP3   OH224034   3.902   1.457  16.557  0.1147  0.7753 -0.2153
  848TIP3    H124035   3.822   1.428  16.514  0.8804 -1.1461 -0.4669
  848TIP3    H224036   3.892   1.428  16.648  1.2184 -1.1816 -0.6436
  849TIP3   OH224037   0.003   0.002  16.128 -0.4148  0.6416 -0.3817
  849TIP3    H124038  -0.062   0.008  16.058 -0.0368  0.2367 -0.7787
  849TIP3    H224039   0.011   0.091  16.161 -0.3274  0.9117 -1.1101
  850TIP3   OH224040   4.746   6.398  13.993  0.3226  0.1963 -0.8430
  850TIP3    H124041   4.712   6.366  13.909  2.2576  1.3781 -2.1612
  850TIP3    H224042   4.691   6.473  14.014  0.3703  0.4282 -1.5233
  851TIP3   OH224043   2.637   0.307   3.821 -0.1950 -0.8408  0.1493
  851TIP3    H124044   2.730   0.290   3.803  0.5972  0.8687  2.2106
  851TIP3    H224045   2.612   0.239   3.882  0.0722 -0.5967  0.5375
  852TIP3   OH224046   5.590   2.324   1.033  0.7903 -0.4905 -0.0343
  852TIP3    H124047   5.670   2.331   1.085  0.7707  0.7203 -0.1407
  852TIP3    H224048   5.523   2.369   1.085  0.5639 -0.0465 -0.6919
  853TIP3   OH224049   6.069   0.602  13.761  0.7242  0.1400  0.0939
  853TIP3    H124050   6.112   0.684  13.738  0.1306  0.2062 -0.8469
  853TIP3    H224051   6.039   0.614  13.851  1.5485  0.5606  0.3187
  854TIP3   OH224052   3.817   5.515   2.570 -0.2777  0.3038 -0.0460
  854TIP3    H124053   3.799   5.602   2.533  1.8130  0.6889 -0.2874
  854TIP3    H224054   3.818   5.457   2.494 -2.7990 -0.2086  0.2269
  855TIP3   OH224055   6.695   5.732  16.630  0.4306  0.3002  0.0927
  855TIP3    H124056   6.611   5.771  16.654 -1.1682 -2.8439  0.1016
  855TIP3    H224057   6.712   5.764  16.541 -0.3053  1.6739  0.4264
  856TIP3   OH224058   3.357   0.636  15.166  0.0258 -0.0347 -0.2459
  856TIP3    H124059   3.326   0.663  15.253 -1.0986  0.9163 -0.9312
  856TIP3    H224060   3.389   0.547  15.180 -1.4507 -0.4312  0.8513
  857TIP3   OH224061   2.578   1.555  17.215  0.2296  0.0564 -0.2085
  857TIP3    H124062   2.555   1.636  17.261 -1.4972  0.8381 -2.2989
  857TIP3    H224063   2.672   1.562  17.198  0.3229  1.0581  0.6443
  858TIP3   OH224064   6.081   4.430   0.384  0.2582  0.3311  0.1842
  858TIP3    H124065   6.089   4.510   0.435  1.0704  0.9814 -0.9296
  858TIP3    H224066   6.103   4.360   0.446 -3.3535  0.6215  2.0038
  859TIP3   OH224067   3.279   0.620  13.048  0.3698  0.2852 -0.1244
  859TIP3    H124068   3.190   0.620  13.084  0.2321  0.4155 -0.4588
  859TIP3    H224069   3.304   0.713  13.045 -1.3668  0.8920 -4.5605
  860TIP3   OH224070   5.824   4.296  14.807  0.0300 -0.3628 -0.0082
  860TIP3    H124071   5.757   4.302  14.740  0.8131 -1.5774 -0.9346
  860TIP3    H224072   5.777   4.275  14.887 -1.0762  2.4655  0.1839
  861TIP3   OH224073   4.355   1.696   3.374  0.1066 -0.2709  0.1060
  861TIP3    H124074   4.344   1.719   3.282 -1.0060  2.6738  0.8316
  861TIP3    H224075   4.341   1.602   3.378  0.6066 -0.5517 -2.7572
  862TIP3   OH224076   5.452   3.551  16.480 -0.5395 -0.0966  0.3669
  862TIP3    H124077   5.515   3.623  16.471  0.7789 -1.3903 -1.5180
  862TIP3    H224078   5.390   3.566  16.408 -1.9609  0.6786  1.6878
  863TIP3   OH224079   4.451   5.294   5.497  0.1439 -0.2673 -0.0882
  863TIP3    H124080   4.380   5.260   5.551  0.7658 -0.2677  0.7510
  863TIP3    H224081   4.503   5.348   5.557 -1.5071  3.3583 -1.5869
  864TIP3   OH224082   3.031   0.896  15.255 -0.3840  0.6742 -0.7027
  864TIP3    H124083   3.039   0.914  15.348  1.3162  0.6619 -0.8163
  864TIP3    H224084   3.021   0.982  15.214 -0.6078  0.7178 -0.5553
  865TIP3   OH224085   1.575   5.862  13.121 -0.0141  0.1166 -0.3336
  865TIP3    H124086   1.665   5.893  13.109  0.0544 -0.0314 -0.2158
  865TIP3    H224087   1.529   5.888  13.042 -0.2313  1.4816  0.2184
  866TIP3   OH224088   1.147   6.204  15.486 -0.2436  0.6900 -0.4896
  866TIP3    H124089   1.141   6.158  15.402  0.6402  2.4797 -1.5952
  866TIP3    H224090   1.065   6.182  15.531 -0.1717 -1.3374 -1.2461
  867TIP3   OH224091   0.622   5.996   2.038  0.0520 -0.0610  0.3657
  867TIP3    H124092   0.624   6.059   1.966  0.4960 -0.1167  0.3248
  867TIP3    H224093   0.710   6.000   2.076 -0.4557  0.6783  1.5275
  868TIP3   OH224094   6.474   1.342   4.391 -0.1981 -0.0050  0.0018
  868TIP3    H124095   6.418   1.392   4.450 -0.0742 -0.8456  0.8590
  868TIP3    H224096   6.431   1.346   4.306 -0.6177  0.8477  0.2529
  869TIP3   OH224097   1.227   1.938  16.055  0.3198  0.1422  0.1797
  869TIP3    H124098   1.315   1.905  16.070  0.5824  0.2641 -1.0462
  869TIP3    H224099   1.221   1.952  15.961 -0.5591  1.4030  0.3881
  870TIP3   OH224100   3.284   2.352  15.320 -0.1252  0.1382  0.0213
  870TIP3    H124101   3.311   2.433  15.362  1.4208  0.3284 -1.2557
  870TIP3    H224102   3.192   2.366  15.298  0.1797  1.6470 -0.3817
  871TIP3   OH224103   4.525   1.295   0.762  0.8369 -0.1766  0.6177
  871TIP3    H124104   4.561   1.383   0.765  1.6035 -0.4314 -0.1859
  871TIP3    H224105   4.505   1.273   0.853  1.8426  0.3480  0.9812
  872TIP3   OH224106   2.357   6.810  11.284  0.2326  0.5965  0.3406
  872TIP3    H124107   2.376   6.857  11.365  2.2943  0.6486 -0.1318
  872TIP3    H224108   2.441   6.803  11.239 -0.6387 -0.5142 -1.2330
  873TIP3   OH224109   3.268   1.887  17.276 -0.3331 -0.1786 -0.5008
  873TIP3    H124110   3.336   1.952  17.295  1.6718 -1.9314 -1.1810
  873TIP3    H224111   3.215   1.884  17.356 -0.9151  2.6763 -0.6846
  874TIP3   OH224112   1.174   2.806   1.609  0.0336 -0.8259 -0.2108
  874TIP3    H124113   1.221   2.829   1.688 -1.3227 -1.1400  0.7237
  874TIP3    H224114   1.238   2.761   1.554  1.1999  0.0874  0.3563
  875TIP3   OH224115   5.449   4.959  12.617 -0.4503  0.9199  0.0882
  875TIP3    H124116   5.511   4.886  12.614 -0.1452  1.1815 -0.1086
  875TIP3    H224117   5.482   5.021  12.552 -1.5154  0.6058 -0.7885
  876TIP3   OH224118   6.265   3.480   6.282  0.4607 -0.6200 -0.0758
  876TIP3    H124119   6.278   3.552   6.344  0.9440 -1.1988  0.5054
  876TIP3    H224120   6.276   3.401   6.335 -2.3998 -1.1846 -0.1615
  877TIP3   OH224121   4.753   2.762  14.641  0.0419  0.4679 -0.2046
  877TIP3    H124122   4.762   2.791  14.550  0.0669 -1.1754 -0.7680
  877TIP3    H224123   4.688   2.692  14.637 -0.5164  0.8717  1.1813
  878TIP3   OH224124   1.222   5.489   2.845  0.1262  0.2604 -0.1312
  878TIP3    H124125   1.196   5.507   2.935  1.2057 -0.6777  0.3801
  878TIP3    H224126   1.178   5.407   2.823  1.2129 -0.4161  0.1451
  879TIP3   OH224127   2.212   4.461   1.663  0.1374  0.0408 -0.4173
  879TIP3    H124128   2.266   4.416   1.728  3.1493  0.9129 -2.1028
  879TIP3    H224129   2.248   4.550   1.659 -1.6061  0.7530 -1.5146
  880TIP3   OH224130   4.909   2.336   3.219  1.0055  0.0206 -0.1894
  880TIP3    H124131   4.943   2.370   3.302  0.1809  0.0500  0.1527
  880TIP3    H224132   4.883   2.414   3.170  0.2513 -0.0456  0.0884
  881TIP3   OH224133   6.364   0.391  11.492 -0.1229  0.0684  0.6296
  881TIP3    H124134   6.274   0.378  11.521  0.0910 -0.7091  0.9633
  881TIP3    H224135   6.357   0.457  11.423 -0.6429  2.1503  2.5260
  882TIP3   OH224136   3.701   0.023  11.246 -0.1385 -0.3236  0.0684
  882TIP3    H124137   3.790   0.027  11.211 -1.5289  2.0859 -3.9289
  882TIP3    H224138   3.655  -0.038  11.187 -1.8904  1.3702 -0.4301
  883TIP3   OH224139   0.802   0.986  11.085  0.3007  0.5433 -0.0306
  883TIP3    H124140   0.875   1.010  11.141 -0.1527  2.2483 -0.1054
  883TIP3    H224141   0.838   0.985  10.996  0.9529 -1.8849  0.1836
  884TIP3   OH224142   2.848   2.242  10.411  1.0057  0.3355 -0.3339
  884TIP3    H124143   2.882   2.332  10.406  0.5528  0.4912 -0.7098
  884TIP3    H224144   2.861   2.216  10.502  1.0590  0.8180 -0.2021
  885TIP3   OH224145   5.444   0.462  11.264 -0.1413 -0.3676 -0.2994
  885TIP3    H124146   5.359   0.449  11.308  0.2607  0.6944  0.8467
  885TIP3    H224147   5.484   0.375  11.265 -1.4204 -1.0018 -1.3416
  886TIP3   OH224148   0.751   0.469   4.667  0.1516 -0.1025 -0.2109
  886TIP3    H124149   0.664   0.505   4.685  0.4476  0.6610 -0.2551
  886TIP3    H224150   0.745   0.436   4.577 -0.4313 -1.1337  0.1924
  887TIP3   OH224151   1.061   0.320  16.918  0.9015 -0.2859  0.5052
  887TIP3    H124152   1.022   0.234  16.902 -1.1906  0.3920  1.5223
  887TIP3    H224153   1.008   0.380  16.865  3.7849  0.2293 -2.0887
  888TIP3   OH224154   1.046   4.527  15.595 -0.0103  0.6040  0.0857
  888TIP3    H124155   1.107   4.600  15.584  0.7587 -0.2506 -1.9197
  888TIP3    H224156   0.970   4.551  15.543 -0.3002  0.5242  0.4677
  889TIP3   OH224157   1.018   2.745   4.267  0.2837 -0.6666 -0.0131
  889TIP3    H124158   1.106   2.711   4.249 -0.3255 -1.5310 -1.4522
  889TIP3    H224159   0.977   2.754   4.182 -1.4025 -1.2698  0.6946
  890TIP3   OH224160   2.256   1.202   3.359 -0.4331 -0.3343  0.0679
  890TIP3    H124161   2.260   1.296   3.342 -2.5006  0.0166  1.0987
  890TIP3    H224162   2.168   1.177   3.331 -0.4109 -1.6627  1.0817
  891TIP3   OH224163   0.769   6.718   2.177  0.0947  0.3419  0.3684
  891TIP3    H124164   0.815   6.662   2.115  0.4187  1.1784 -0.1735
  891TIP3    H224165   0.677   6.693   2.169  0.0447  0.8280 -0.8982
  892TIP3   OH224166   2.109   1.527   5.308  0.0626  0.2560 -0.1489
  892TIP3    H124167   2.082   1.608   5.351  1.3635 -0.4686  2.2037
  892TIP3    H224168   2.204   1.534   5.300  0.2075 -1.0661  0.1664
  893TIP3   OH224169   2.937   5.477  15.119  0.1218 -0.1143 -0.0043
  893TIP3    H124170   2.890   5.513  15.044  1.1344  0.1501 -0.5269
  893TIP3    H224171   2.890   5.396  15.139 -1.6023  0.9828  0.5931
  894TIP3   OH224172   2.457   0.750  16.517  0.3837 -0.0700 -0.4785
  894TIP3    H124173   2.447   0.710  16.604 -0.5325  0.5261 -0.2992
  894TIP3    H224174   2.509   0.828  16.533 -0.1224  0.2538 -0.3961
  895TIP3   OH224175   0.317   4.811   2.174  0.1835  0.2442 -0.3062
  895TIP3    H124176   0.294   4.840   2.262  1.3491 -0.4369  0.2460
  895TIP3    H224177   0.317   4.892   2.122 -0.0365  0.7285  0.4282
  896TIP3   OH224178   0.165   5.613   6.693  0.9965  0.1132  0.2077
  896TIP3    H124179   0.191   5.524   6.718  1.3202  0.1599  0.0460
  896TIP3    H224180   0.242   5.648   6.648  0.4049 -0.0165 -0.9433
  897TIP3   OH224181   6.671   3.368   5.072  0.3710 -0.6673 -0.4102
  897TIP3    H124182   6.590   3.410   5.044  0.2707 -0.9922 -0.6110
  897TIP3    H224183   6.655   3.275   5.062  0.3383 -0.7962  0.7461
  898TIP3   OH224184   6.245   3.619  17.195 -0.2900  0.5849  0.3529
  898TIP3    H124185   6.176   3.683  17.180 -1.5357 -0.7876 -0.0226
  898TIP3    H224186   6.303   3.628  17.120 -0.3861  1.3352  0.3605
  899TIP3   OH224187   4.380   0.788   2.363  0.0042  0.3109 -0.2851
  899TIP3    H124188   4.436   0.771   2.439  1.3308  0.9957 -1.0624
  899TIP3    H224189   4.295   0.812   2.400  0.3019 -0.4763  0.9406
  900TIP3   OH224190   2.083   2.029   3.413  0.3298 -0.2785 -0.2324
  900TIP3    H124191   2.081   1.952   3.355  0.3111 -0.4289 -0.0327
  900TIP3    H224192   2.121   2.098   3.359  2.4680 -0.9917  0.2780
  901TIP3   OH224193   0.579   1.259  13.196  0.1762  0.3309 -0.2143
  901TIP3    H124194   0.650   1.201  13.169  0.7696  1.4116 -1.0957
  901TIP3    H224195   0.623   1.331  13.242 -0.2758  1.1920 -1.0780
  902TIP3   OH224196   3.724   5.858  15.498 -0.0775 -0.3453 -0.5430
  902TIP3    H124197   3.667   5.930  15.524  0.7438  0.7837 -1.7119
  902TIP3    H224198   3.668   5.800  15.448 -0.8517 -0.7738  0.7801
  903TIP3   OH224199   1.366   1.096  11.778 -0.1173  0.3454 -0.3187
  903TIP3    H124200   1.397   1.140  11.699 -1.4344  0.2830 -0.9016
  903TIP3    H224201   1.334   1.166  11.834 -0.4764  0.2847 -0.4449
  904TIP3   OH224202   5.307   4.396  16.029 -0.6201  0.4075 -0.1003
  904TIP3    H124203   5.214   4.408  16.049 -1.0758 -0.5665 -1.4739
  904TIP3    H224204   5.318   4.301  16.023  0.1965  0.5494 -1.0694
  905TIP3   OH224205   5.692   4.684   4.416 -0.0092  0.3095  0.4619
  905TIP3    H124206   5.617   4.718   4.465  0.4477  0.1225  1.3040
  905TIP3    H224207   5.749   4.759   4.404 -0.2269  0.4049  0.0090
  906TIP3   OH224208   2.389   1.573   4.943  0.0664 -0.3331  0.1166
  906TIP3    H124209   2.448   1.504   4.972  0.1112 -0.1099  0.5586
  906TIP3    H224210   2.304   1.552   4.981 -0.1268 -0.6086 -0.4517
  907TIP3   OH224211   6.779   2.464   3.002 -0.0132  0.1801  0.0606
  907TIP3    H124212   6.859   2.430   2.962 -0.8100 -1.0840 -0.5171
  907TIP3    H224213   6.721   2.482   2.928 -1.1588 -1.2756  0.5645
  908TIP3   OH224214   0.214   6.182   1.147 -0.0207  0.0161 -0.1261
  908TIP3    H124215   0.131   6.168   1.103  0.9123 -0.3337 -1.8402
  908TIP3    H224216   0.190   6.220   1.232 -1.8512  1.8403 -1.3598
  909TIP3   OH224217   6.552   5.026  13.143 -0.5801 -0.8931 -0.2611
  909TIP3    H124218   6.554   5.091  13.213  0.2222 -1.5308  0.3206
  909TIP3    H224219   6.556   5.077  13.062  0.3330 -0.2272  0.1931
  910TIP3   OH224220   5.682   0.132  11.479 -0.8291 -0.2748 -0.0646
  910TIP3    H124221   5.737   0.209  11.467 -1.7332  0.5384  0.8027
  910TIP3    H224222   5.598   0.156  11.439 -0.9982 -0.9685 -0.1429
  911TIP3   OH224223   6.226   2.522   0.533 -0.6851  0.2566 -0.3584
  911TIP3    H124224   6.321   2.513   0.521 -0.5955 -1.2287  1.0928
  911TIP3    H224225   6.209   2.486   0.620 -2.6420  0.0788 -0.7638
  912TIP3   OH224226   4.117   2.512   1.577  0.4580  0.0210  0.1427
  912TIP3    H124227   4.207   2.540   1.592  0.9764 -1.6362  0.3058
  912TIP3    H224228   4.103   2.441   1.639 -0.3257 -1.0032 -1.1658
  913TIP3   OH224229   4.763   0.463   2.452  0.3256 -0.0723  0.2994
  913TIP3    H124230   4.713   0.418   2.520 -1.0295  0.3536 -0.3799
  913TIP3    H224231   4.765   0.401   2.379 -1.0524  0.7100 -0.4314
  914TIP3   OH224232   0.236   6.444   5.794 -0.2013 -0.2493 -0.0897
  914TIP3    H124233   0.210   6.406   5.710 -1.5126  0.7258 -0.1664
  914TIP3    H224234   0.331   6.432   5.798 -0.1967 -0.8415 -1.4297
  915TIP3   OH224235   4.456   2.811  14.751 -0.8168  0.0829  0.3236
  915TIP3    H124236   4.450   2.902  14.724  0.0719  0.4020  1.1491
  915TIP3    H224237   4.517   2.811  14.825 -1.6441 -1.0336  1.0452
  916TIP3   OH224238   1.247   3.473   2.001  0.7560  0.1308 -0.2831
  916TIP3    H124239   1.261   3.409   1.931  2.0271 -0.5754  0.5832
  916TIP3    H224240   1.176   3.529   1.968  2.2448  0.7343 -2.7849
  917TIP3   OH224241   2.339   2.051  14.266  0.6622 -0.2609  0.3976
  917TIP3    H124242   2.428   2.073  14.290  0.9940  0.3891 -1.2620
  917TIP3    H224243   2.349   1.987  14.195 -0.1548  0.4500 -0.3802
  918TIP3   OH224244   3.752   5.297   4.940  0.4929 -0.4731  0.2178
  918TIP3    H124245   3.818   5.341   4.993  0.9796 -0.6115 -0.2597
  918TIP3    H224246   3.677   5.357   4.939  1.0556  0.2375 -0.2241
  919TIP3   OH224247   4.242   1.661  16.912  0.3025  0.7147  0.5229
  919TIP3    H124248   4.235   1.603  16.987  0.9125  1.1904  0.9545
  919TIP3    H224249   4.183   1.734  16.932 -0.0973  0.4821  0.2017
  920TIP3   OH224250   0.661   2.210  12.666  0.2063  0.5008 -0.0149
  920TIP3    H124251   0.734   2.208  12.604 -1.1605  1.0631 -1.7131
  920TIP3    H224252   0.583   2.214  12.611 -1.2977 -2.4249  1.6788
  921TIP3   OH224253   4.662   4.270   1.754 -0.5722  0.0160 -0.0654
  921TIP3    H124254   4.757   4.259   1.757 -0.3843  1.5474  1.7307
  921TIP3    H224255   4.636   4.233   1.669  1.5145 -1.0646 -0.2954
  922TIP3   OH224256   4.152   0.113  13.364 -0.0184 -0.6763  0.0123
  922TIP3    H124257   4.228   0.163  13.392  1.0067 -2.8537  1.3683
  922TIP3    H224258   4.077   0.160  13.401  0.5659  1.5109 -1.3670
  923TIP3   OH224259   4.995   3.577  16.766  0.4530 -0.2078 -0.4270
  923TIP3    H124260   5.060   3.506  16.764 -0.0361 -0.6756 -0.1367
  923TIP3    H224261   5.015   3.625  16.847  0.3796 -0.4180 -0.2807
  924TIP3   OH224262   0.020   3.294  12.757  0.2249  0.1532  0.2862
  924TIP3    H124263   0.024   3.209  12.801  0.4979 -1.0728 -1.9548
  924TIP3    H224264  -0.004   3.356  12.826  0.0889 -1.7163  2.0023
  925TIP3   OH224265   5.833   2.210   1.111 -0.3609 -0.4088  0.3058
  925TIP3    H124266   5.928   2.204   1.101 -0.6393 -1.9059 -2.2335
  925TIP3    H224267   5.815   2.166   1.194  1.1348 -0.2472  0.7418
  926TIP3   OH224268   5.958   5.945  13.307 -0.2234  0.0565 -0.2230
  926TIP3    H124269   5.908   6.019  13.342  0.0592 -0.6960  1.9740
  926TIP3    H224270   5.927   5.870  13.357  2.5495 -0.5513  0.7696
  927TIP3   OH224271   2.568   6.245  14.332  0.1241  0.1918  0.1927
  927TIP3    H124272   2.609   6.256  14.418 -1.4901 -0.2642  1.0614
  927TIP3    H224273   2.493   6.305  14.334  0.4969  0.7249 -1.1946
  928TIP3   OH224274   6.038   6.304   5.824 -0.6944  0.1915 -0.1372
  928TIP3    H124275   6.007   6.279   5.737  3.5434  2.0745 -2.5080
  928TIP3    H224276   6.010   6.395   5.834 -1.6214 -0.1709  0.8151
  929TIP3   OH224277   5.364   4.978  13.048  0.3501 -0.1094  0.5616
  929TIP3    H124278   5.365   5.062  13.094 -1.8425  0.6649 -0.6050
  929TIP3    H224279   5.440   4.981  12.990  1.2135  0.3408  1.6804
  930TIP3   OH224280   0.564   5.823   2.744 -0.0817  0.6075  0.4072
  930TIP3    H124281   0.505   5.863   2.807 -1.4099 -1.9759  0.9317
  930TIP3    H224282   0.641   5.880   2.744 -1.5433  2.7158  1.5476
  931TIP3   OH224283   0.621   5.838   0.718 -0.4654  0.3373 -0.6835
  931TIP3    H124284   0.654   5.927   0.730  0.8549 -0.2770  0.6043
  931TIP3    H224285   0.697   5.787   0.691 -0.6710 -0.7931  0.7062
  932TIP3   OH224286   2.275   6.361  12.049  0.1642  0.1263  0.4203
  932TIP3    H124287   2.257   6.269  12.029  1.6935  0.0383 -0.7468
  932TIP3    H224288   2.261   6.368  12.143 -1.2022 -0.9907  0.3386
  933TIP3   OH224289   4.343   4.867  10.935 -0.1623 -0.4460 -0.0031
  933TIP3    H124290   4.330   4.904  10.847 -2.3125  0.0279  0.4548
  933TIP3    H224291   4.360   4.774  10.919 -0.5654 -0.3769 -0.9302
  934TIP3   OH224292   5.130   1.499  16.079 -0.5781 -0.1930  0.1325
  934TIP3    H124293   5.171   1.582  16.103  1.7504 -0.6106 -1.9537
  934TIP3    H224294   5.193   1.432  16.106  0.3943 -0.8590 -3.2982
  935TIP3   OH224295   6.461   5.765   0.427 -0.1145 -0.5157 -0.1849
  935TIP3    H124296   6.523   5.736   0.361  0.2735  0.3991 -0.2369
  935TIP3    H224297   6.378   5.724   0.402 -0.7065  2.0243 -2.9661
  936TIP3   OH224298   1.798   5.507  10.609 -0.0438  0.5119 -0.1871
  936TIP3    H124299   1.813   5.591  10.654  0.4489  0.3844 -0.1020
  936TIP3    H224300   1.885   5.481  10.579 -0.3214  0.4273 -0.9281
  937TIP3   OH224301   5.766   6.423  12.691 -0.0773 -0.0846 -0.1403
  937TIP3    H124302   5.809   6.386  12.768  0.8934 -1.6026 -1.3466
  937TIP3    H224303   5.703   6.356  12.664 -1.6622  1.1725  0.3068
  938TIP3   OH224304   0.368   3.189   0.593  0.3686  0.3342 -0.0939
  938TIP3    H124305   0.461   3.167   0.582  0.5986  1.2708 -0.0968
  938TIP3    H224306   0.361   3.278   0.560 -0.5637  0.2286 -0.1955
  939TIP3   OH224307   3.816   3.175  16.731 -0.7678  0.7261  0.2398
  939TIP3    H124308   3.794   3.085  16.706 -1.7104  1.2209 -0.8661
  939TIP3    H224309   3.766   3.190  16.811  2.0739 -0.7991  2.4969
  940TIP3   OH224310   0.036   2.810   2.711 -0.5171  0.2266  0.3837
  940TIP3    H124311   0.064   2.850   2.628  0.0540 -1.0067 -0.0407
  940TIP3    H224312  -0.029   2.871   2.746 -0.2113  1.1476 -0.6027
  941TIP3   OH224313   0.551   2.000   5.579 -0.0817  0.2035  0.2206
  941TIP3    H124314   0.504   2.015   5.661 -1.8446 -1.4812 -0.3914
  941TIP3    H224315   0.521   1.914   5.550  0.8079  0.5724 -1.9785
  942TIP3   OH224316   5.903   3.909  16.561 -0.3843  0.1510 -0.1335
  942TIP3    H124317   5.842   3.975  16.593 -1.1281 -0.2388 -0.7282
  942TIP3    H224318   5.860   3.870  16.486  0.2850 -0.6393 -0.1265
  943TIP3   OH224319   5.696   4.031  15.506 -0.4006 -0.2387 -0.0017
  943TIP3    H124320   5.756   4.003  15.437 -1.1715 -0.4098 -0.6157
  943TIP3    H224321   5.728   4.118  15.532  2.6220 -1.9204  2.6282
  944TIP3   OH224322   1.408   0.869   1.570 -0.1771 -0.3582  0.1397
  944TIP3    H124323   1.499   0.863   1.597 -0.4376 -0.0241  1.1267
  944TIP3    H224324   1.405   0.943   1.509  0.4073 -1.0913 -0.8072
  945TIP3   OH224325   3.315   2.013   4.029 -0.7328 -0.8644  0.1884
  945TIP3    H124326   3.237   2.068   4.029 -0.4116 -0.4043 -0.3200
  945TIP3    H224327   3.305   1.956   3.953  0.1423  0.2447 -0.7990
  946TIP3   OH224328   6.058   5.011   2.797  0.0081 -0.3827  0.0656
  946TIP3    H124329   6.038   5.028   2.705 -1.9041  0.6936  0.6047
  946TIP3    H224330   5.972   5.005   2.839  0.7752  1.7933  2.2054
  947TIP3   OH224331   0.753   3.857  15.208  0.4530 -0.0458  0.1095
  947TIP3    H124332   0.806   3.933  15.231  0.4038 -0.8811  3.5783
  947TIP3    H224333   0.816   3.792  15.178  0.9929  0.1546  0.7793
  948TIP3   OH224334   5.006   1.162   0.624 -0.5096  0.3789 -0.1752
  948TIP3    H124335   5.006   1.257   0.638  0.0529  0.3339  0.1457
  948TIP3    H224336   4.918   1.134   0.649 -0.1180  0.5655  1.4894
  949TIP3   OH224337   0.322   1.497  13.172 -0.1527 -0.2349 -0.3413
  949TIP3    H124338   0.285   1.459  13.093 -0.1349 -0.1726 -0.3791
  949TIP3    H224339   0.411   1.521  13.148 -0.0011 -0.6149 -0.1814
  950TIP3   OH224340   6.421   1.264   5.002 -0.3380 -0.1730  0.2785
  950TIP3    H124341   6.377   1.343   5.032 -0.4833  0.9978 -2.6776
  950TIP3    H224342   6.352   1.197   5.003 -1.7004  1.0625 -2.0375
  951TIP3   OH224343   4.294   2.090   0.877 -0.1879  0.3407 -0.2801
  951TIP3    H124344   4.255   2.097   0.790 -0.2187 -2.1745 -0.5298
  951TIP3    H224345   4.233   2.036   0.927  0.9399 -0.1526  0.6123
  952TIP3   OH224346   5.982   3.570  13.060 -0.1063 -0.1189 -0.2431
  952TIP3    H124347   6.007   3.618  12.981 -2.6187 -0.1496 -1.1404
  952TIP3    H224348   6.029   3.487  13.054  1.5153  0.7901 -0.4925
  953TIP3   OH224349   3.681   3.164  11.478  0.2369  0.1751 -0.1470
  953TIP3    H124350   3.727   3.150  11.560  0.8812 -2.4474 -0.8313
  953TIP3    H224351   3.597   3.118  11.489 -0.8492  2.0484 -0.0958
  954TIP3   OH224352   0.964   0.051  14.510 -0.0206  0.4607 -0.4855
  954TIP3    H124353   0.969   0.146  14.520 -1.2138  0.5437 -0.5233
  954TIP3    H224354   0.939   0.038  14.418  0.3600  0.1033 -0.5395
  955TIP3   OH224355   0.962   4.394   1.949  0.4758  0.4587  0.0502
  955TIP3    H124356   0.950   4.416   1.856  1.7086  0.7247 -0.0570
  955TIP3    H224357   0.896   4.447   1.994  0.1700  0.6736 -0.6246
  956TIP3   OH224358   2.382   0.248  17.150  0.1777 -0.2133  0.3474
  956TIP3    H124359   2.423   0.260  17.065 -0.0858 -0.6339  0.1607
  956TIP3    H224360   2.426   0.172  17.188  0.9656  0.5339  1.0020
  957TIP3   OH224361   0.187   4.282  12.835  0.6207 -0.0634 -0.1935
  957TIP3    H124362   0.095   4.256  12.824  0.9990 -1.1899 -0.9342
  957TIP3    H224363   0.233   4.199  12.850  1.5000  0.5104  0.3229
  958TIP3   OH224364   0.064   4.759   3.008  0.2556  0.2953  0.2110
  958TIP3    H124365   0.003   4.705   2.957  1.8529 -0.4075 -1.0358
  958TIP3    H224366   0.123   4.696   3.048  1.8302  1.0383 -0.8400
  959TIP3   OH224367   0.371   3.034  12.924  0.0231 -0.0272  0.5339
  959TIP3    H124368   0.276   3.037  12.913  0.0404 -1.3869 -0.1702
  959TIP3    H224369   0.386   2.959  12.981  0.8275 -1.9366 -2.0227
  960TIP3   OH224370   4.091   5.984   1.563 -0.0295 -0.5967 -0.6848
  960TIP3    H124371   4.142   6.064   1.576 -0.4345  0.0459 -2.6911
  960TIP3    H224372   4.133   5.919   1.620  0.4247  0.9673  0.8511
  961TIP3   OH224373   0.822   6.553  13.167  0.0585 -0.0114  0.6666
  961TIP3    H124374   0.815   6.467  13.125  0.2265  0.2271  0.1423
  961TIP3    H224375   0.759   6.550  13.239  0.6959 -0.8902  1.2040
  962TIP3   OH224376   1.256   2.127  16.747  0.6778  0.1577 -0.0829
  962TIP3    H124377   1.191   2.133  16.817 -0.7623 -2.7595 -1.0410
  962TIP3    H224378   1.296   2.041  16.758  2.8454  0.9846 -0.8934
  963TIP3   OH224379   6.763   1.162   6.374 -0.1574 -0.4357  0.1614
  963TIP3    H124380   6.704   1.238   6.368  0.4271 -0.0686 -1.5468
  963TIP3    H224381   6.711   1.095   6.418 -1.2126  0.4707  0.3529
  964TIP3   OH224382   3.017   1.107  15.818 -0.5457  0.7233 -0.4876
  964TIP3    H124383   3.112   1.119  15.814 -0.2363 -0.3198  1.7499
  964TIP3    H224384   2.995   1.060  15.738  0.4525  2.7132 -2.0291
  965TIP3   OH224385   0.727   2.122  12.929 -0.3744 -0.1135  0.2327
  965TIP3    H124386   0.691   2.201  12.969 -0.6153 -0.0999 -0.0021
  965TIP3    H224387   0.716   2.136  12.835  0.9657  0.2287  0.1144
  966TIP3   OH224388   0.773   1.588   5.774 -0.1018  0.0025 -0.6128
  966TIP3    H124389   0.696   1.558   5.822 -0.9801  0.3271 -1.7943
  966TIP3    H224390   0.837   1.608   5.843 -0.1859 -2.5537  0.3184
  967TIP3   OH224391   4.982   3.300   5.009 -0.1172  0.3853  0.0398
  967TIP3    H124392   4.982   3.222   4.953 -0.0722  0.8831 -0.6696
  967TIP3    H224393   5.075   3.320   5.023 -0.1249  0.4995 -0.0611
  968TIP3   OH224394   2.360   5.935  16.232  0.1713 -0.4534  0.2120
  968TIP3    H124395   2.419   5.861  16.215 -1.7765 -2.0515  0.0290
  968TIP3    H224396   2.358   5.983  16.149 -1.0872 -2.1447 -0.8022
  969TIP3   OH224397   0.539   6.785   2.553 -0.6210  0.3246 -0.7377
  969TIP3    H124398   0.616   6.805   2.500 -0.7857 -1.5093 -1.7797
  969TIP3    H224399   0.490   6.721   2.500 -1.7528 -0.1579  0.8269
  970TIP3   OH224400   2.728   4.912   2.791  0.3020 -0.3354 -0.0640
  970TIP3    H124401   2.781   4.847   2.837 -0.8003 -0.6140  0.8545
  970TIP3    H224402   2.749   4.995   2.835  1.1280 -0.1859 -0.7265
  971TIP3   OH224403   1.620   4.838  16.947  0.2750 -0.3040 -1.1530
  971TIP3    H124404   1.613   4.840  17.042  0.8262  1.0734 -1.1292
  971TIP3    H224405   1.588   4.923  16.918  0.9359 -0.3706 -2.1394
  972TIP3   OH224406   4.049   2.974  11.789 -0.6793 -0.2271 -1.1227
  972TIP3    H124407   4.112   2.971  11.717 -0.0610  0.0274 -0.6083
  972TIP3    H224408   3.982   3.035  11.759  1.0521  2.2192 -0.3636
  973TIP3   OH224409   4.817   2.399  15.655  0.3910  0.0686 -0.5203
  973TIP3    H124410   4.870   2.333  15.610  0.9744 -0.8022  1.3351
  973TIP3    H224411   4.863   2.414  15.738 -0.3469  1.9954 -0.4225
  974TIP3   OH224412   3.439   3.190  13.140  0.3012 -0.6302 -0.1387
  974TIP3    H124413   3.440   3.123  13.208  0.0576  0.9626  1.5011
  974TIP3    H224414   3.531   3.207  13.122  0.3657 -1.1197 -0.3131
  975TIP3   OH224415   5.300   0.974  13.543  0.2316 -0.1786  0.0805
  975TIP3    H124416   5.352   0.996  13.466 -0.3559 -1.2730 -0.6663
  975TIP3    H224417   5.327   1.037  13.609  0.4936  1.0310 -1.1226
  976TIP3   OH224418   6.343   3.855   5.685 -0.1822 -0.3304  0.5461
  976TIP3    H124419   6.329   3.792   5.756 -0.9799  0.6697  1.3009
  976TIP3    H224420   6.433   3.839   5.657 -0.3653 -1.7960  0.7128
  977TIP3   OH224421   3.195   4.876   1.365 -0.5954 -0.2195  0.5550
  977TIP3    H124422   3.230   4.965   1.373  0.1688 -0.3339 -1.0994
  977TIP3    H224423   3.271   4.822   1.343 -1.5756 -0.6220 -2.2772
  978TIP3   OH224424   5.688   2.018   2.944 -0.1921 -0.7231 -0.1383
  978TIP3    H124425   5.735   2.031   3.027  2.7362  0.0434 -1.7688
  978TIP3    H224426   5.669   2.107   2.913 -3.3933 -0.9901  0.6801
  979TIP3   OH224427   6.147   3.002  13.382 -0.1207 -0.1138 -0.1677
  979TIP3    H124428   6.053   2.987  13.366 -0.3120  0.3583  0.4821
  979TIP3    H224429   6.186   2.914  13.378 -0.1360 -0.0815 -3.1225
  980TIP3   OH224430   0.099   5.158   0.405 -0.0044  0.8473  0.5008
  980TIP3    H124431   0.181   5.116   0.427 -0.0262  1.2360  1.3827
  980TIP3    H224432   0.121   5.251   0.396 -0.6375  1.2404  2.5577
  981TIP3   OH224433   5.291   3.717  13.654 -0.0995 -0.1047  0.4798
  981TIP3    H124434   5.238   3.772  13.597  1.1255  0.9593  0.3233
  981TIP3    H224435   5.302   3.636  13.605  1.3790  0.9796 -1.0998
  982TIP3   OH224436   5.572   1.607   0.910 -0.3199  0.0858 -0.2409
  982TIP3    H124437   5.602   1.664   0.839 -0.6420 -1.4583 -1.6865
  982TIP3    H224438   5.642   1.542   0.919 -1.3128 -1.0893 -0.7638
  983TIP3   OH224439   3.505   2.839  11.183  0.6385 -0.1597  0.3274
  983TIP3    H124440   3.570   2.875  11.124  0.8258  0.3837  0.8583
  983TIP3    H224441   3.556   2.795  11.252  0.4542 -3.5994 -1.5271
  984TIP3   OH224442   0.906   4.789   4.374  0.7872  0.2613  0.6406
  984TIP3    H124443   0.814   4.782   4.350  1.0080 -3.5041  0.2994
  984TIP3    H224444   0.905   4.803   4.468 -0.0521  2.1952  0.3994
  985TIP3   OH224445   6.004   0.204   5.660 -0.1164  0.3043  0.2818
  985TIP3    H124446   6.065   0.132   5.674 -1.7749 -1.7433 -2.1540
  985TIP3    H224447   5.955   0.211   5.742 -0.8861 -2.3990  0.1387
  986TIP3   OH224448   5.183   4.475   1.964  0.5549 -0.0229  0.3512
  986TIP3    H124449   5.148   4.512   1.884 -1.3906 -0.8643  0.7419
  986TIP3    H224450   5.192   4.550   2.024 -0.9340  0.2100  0.3235
  987TIP3   OH224451   5.581   3.043  11.214 -0.2473  0.0420  0.1083
  987TIP3    H124452   5.530   2.970  11.178  0.0081 -0.9729  1.6850
  987TIP3    H224453   5.671   3.024  11.188  0.1928 -1.5981  2.5126
  988TIP3   OH224454   6.305   6.187   5.286  0.2602  0.3068 -0.1776
  988TIP3    H124455   6.296   6.194   5.191 -0.3614  0.1158 -0.1380
  988TIP3    H224456   6.229   6.136   5.313 -1.4639  3.1953  0.8024
  989TIP3   OH224457   3.453   0.772   1.429 -0.5893  0.2354  0.1525
  989TIP3    H124458   3.418   0.781   1.518 -1.4596 -1.7368  0.0600
  989TIP3    H224459   3.379   0.793   1.372 -0.7734 -0.9545 -0.0652
  990TIP3   OH224460   5.094   0.508  11.646 -0.1638  0.3668  0.2033
  990TIP3    H124461   5.115   0.576  11.709  0.4907  0.7338 -0.4018
  990TIP3    H224462   5.007   0.477  11.673  0.5655 -0.2751  1.9495
  991TIP3   OH224463   0.344   5.813  17.147  0.2241 -0.5553 -0.0302
  991TIP3    H124464   0.433   5.799  17.115  0.5357  0.1945  0.4865
  991TIP3    H224465   0.301   5.728  17.135  0.9291 -0.8576 -0.5066
  992TIP3   OH224466   2.048   1.099   1.574 -0.0794 -0.2324 -0.3724
  992TIP3    H124467   1.964   1.127   1.538 -0.4517  0.3488  0.8961
  992TIP3    H224468   2.099   1.179   1.580  0.3347 -0.4826 -0.5409
  993TIP3   OH224469   3.836   2.304   1.431 -0.3880  0.1909 -0.3632
  993TIP3    H124470   3.878   2.384   1.403 -1.0364  0.8478  0.4842
  993TIP3    H224471   3.779   2.330   1.503  0.2298 -1.2073  0.6926
  994TIP3   OH224472   6.057   0.864  15.882  0.0899 -0.4583 -0.3765
  994TIP3    H124473   6.082   0.898  15.796  1.7561  1.1243  0.6761
  994TIP3    H224474   5.962   0.878  15.886  0.0818  0.0345 -1.6899
  995TIP3   OH224475   4.056   1.276  11.550  0.3019  0.2814  0.1726
  995TIP3    H124476   4.147   1.281  11.577 -0.0340  0.4048  1.3599
  995TIP3    H224477   4.033   1.366  11.526  0.2309  0.4534  0.8437
  996TIP3   OH224478   4.906   0.948   5.011  0.4256  0.4053  0.3688
  996TIP3    H124479   4.825   0.964   4.963  0.4057 -1.8066 -0.4471
  996TIP3    H224480   4.879   0.897   5.088  1.0172 -0.4852  0.0066
  997TIP3   OH224481   5.178   6.461   1.406 -0.3848  0.4146 -0.4329
  997TIP3    H124482   5.207   6.446   1.496  0.6376 -0.0712 -0.8112
  997TIP3    H224483   5.216   6.387   1.357 -0.6291  0.8603 -1.3144
  998TIP3   OH224484   1.694   0.744   1.289 -0.2367  0.2344  0.0763
  998TIP3    H124485   1.686   0.692   1.369 -0.8295  1.3330  0.7467
  998TIP3    H224486   1.604   0.751   1.256 -0.2028  1.0519  0.1424
  999TIP3   OH224487   0.386   6.552  13.594 -0.1550 -0.1119  0.3884
  999TIP3    H124488   0.298   6.526  13.619 -0.3733  0.0050 -0.2410
  999TIP3    H224489   0.425   6.472  13.557 -0.3832  0.1068 -0.3510
 1000TIP3   OH224490   5.681   2.795   2.857  0.3185  0.2360 -0.3457
 1000TIP3    H124491   5.740   2.723   2.877  2.1211  1.8542  0.3915
 1000TIP3    H224492   5.733   2.855   2.804 -1.1844  0.9832 -1.0483
 1001TIP3   OH224493   6.092   4.547  16.924 -0.0509  0.8452  0.1176
 1001TIP3    H124494   6.109   4.554  16.830 -0.4366 -0.7291 -0.1048
 1001TIP3    H224495   6.115   4.633  16.960  2.1553  0.8257 -1.0849
 1002TIP3   OH224496   6.203   2.150  12.176  0.3670 -0.1457 -0.3327
 1002TIP3    H124497   6.288   2.126  12.138  0.0615  0.3164 -1.3393
 1002TIP3    H224498   6.186   2.238  12.142 -0.2807 -0.0223  0.2847
 1003TIP3   OH224499   4.757   2.139  17.285 -0.1391  0.1307  0.1277
 1003TIP3    H124500   4.690   2.076  17.312  0.0418 -0.3078 -0.4392
 1003TIP3    H224501   4.835   2.086  17.270 -0.4232  0.2518 -1.9609
 1004TIP3   OH224502   0.287   0.919   4.705 -0.5275  0.0017 -0.3930
 1004TIP3    H124503   0.378   0.899   4.724 -0.7047 -0.9946 -0.5713
 1004TIP3    H224504   0.237   0.864   4.764 -1.0514 -1.4615 -2.1214
 1005TIP3   OH224505   2.113   2.250  16.791 -0.3424 -0.4907 -0.2956
 1005TIP3    H124506   2.132   2.335  16.750 -3.5592  0.2762 -0.4585
 1005TIP3    H224507   2.101   2.271  16.884  1.6248 -1.3339  0.2087
 1006TIP3   OH224508   3.599   0.848  17.085  0.5120  0.1955  0.6364
 1006TIP3    H124509   3.536   0.877  17.152 -0.4804 -0.5109  0.0275
 1006TIP3    H224510   3.594   0.753  17.087  0.0537  0.1706 -0.8268
 1007TIP3   OH224511   2.779   6.478  15.066 -0.2952 -0.4464 -0.3484
 1007TIP3    H124512   2.872   6.466  15.046  0.2659  1.7779  0.6934
 1007TIP3    H224513   2.737   6.482  14.981  0.8735  0.5465 -0.9150
 1008TIP3   OH224514   4.234   4.363   1.458  0.0867 -0.5768  0.3291
 1008TIP3    H124515   4.259   4.453   1.437  0.6538 -0.8408 -0.1682
 1008TIP3    H224516   4.150   4.371   1.503 -0.4853  0.1021 -0.8312
 1009TIP3   OH224517   5.786   3.253  14.177  0.0502 -0.5790 -0.2056
 1009TIP3    H124518   5.744   3.334  14.204  0.1507 -0.5761 -0.0555
 1009TIP3    H224519   5.850   3.235  14.246  0.4304 -0.4824 -0.5334
 1010TIP3   OH224520   6.008   3.967  15.971 -0.1117 -0.0911 -0.6061
 1010TIP3    H124521   6.061   3.937  16.045 -0.3879  0.3375 -0.2297
 1010TIP3    H224522   6.029   4.060  15.963 -0.6135  0.0227 -0.6242
 1011TIP3   OH224523   3.213   2.164   5.533  0.0628  0.2877 -0.1917
 1011TIP3    H124524   3.264   2.238   5.567  0.4059 -1.1823  2.7375
 1011TIP3    H224525   3.260   2.086   5.564 -1.6020 -1.1635 -1.1501
 1012TIP3   OH224526   6.512   2.820   2.419  0.1203 -0.5379 -0.1315
 1012TIP3    H124527   6.429   2.854   2.452 -0.0534 -0.4447 -0.6533
 1012TIP3    H224528   6.577   2.884   2.446  0.2373 -1.2726  1.4466
 1013TIP3   OH224529   4.231   5.099  16.587 -0.3335  0.8300  0.2884
 1013TIP3    H124530   4.238   5.043  16.510  0.8360  1.5963 -0.1952
 1013TIP3    H224531   4.176   5.172  16.559 -2.7924 -0.5386  1.2477
 1014TIP3   OH224532   3.702   3.923   1.425 -0.0091  0.0803 -0.0937
 1014TIP3    H124533   3.760   3.931   1.349 -0.8799 -0.4664 -0.8362
 1014TIP3    H224534   3.618   3.957   1.395 -0.2764  0.1734  0.7363
 1015TIP3   OH224535   6.038   1.043   3.598 -0.0171  0.1571  0.3854
 1015TIP3    H124536   6.051   0.968   3.539 -0.9760  0.6641 -0.4976
 1015TIP3    H224537   5.982   1.009   3.667 -1.3256  0.3151 -0.5746
 1016TIP3   OH224538   2.731   0.019   4.860  0.3549 -0.8125 -0.4949
 1016TIP3    H124539   2.690   0.014   4.946 -0.2964  1.7463 -0.5802
 1016TIP3    H224540   2.705  -0.063   4.817  1.1067 -2.3658  1.8519
 1017TIP3   OH224541   3.941   5.071  12.586  0.1258 -0.7280 -0.2511
 1017TIP3    H124542   4.004   5.083  12.515  2.0318 -2.1904  1.1075
 1017TIP3    H224543   3.994   5.059  12.664 -1.9018  0.8094  1.5003
 1018TIP3   OH224544   0.836   5.689   1.661  0.1361  0.1052  0.3824
 1018TIP3    H124545   0.764   5.709   1.601  0.0760  0.6700  0.6392
 1018TIP3    H224546   0.911   5.674   1.605 -0.5981 -2.5259 -0.0447
 1019TIP3   OH224547   1.852   0.721  15.250 -0.0878  0.1453 -0.1235
 1019TIP3    H124548   1.803   0.741  15.171 -3.3452 -2.7343  0.9179
 1019TIP3    H224549   1.919   0.658  15.222 -1.9425 -1.7474 -0.5716
 1020TIP3   OH224550   1.338   5.956  16.433 -0.4887  0.1947  0.4089
 1020TIP3    H124551   1.279   5.898  16.482 -1.9427  1.5137  0.2850
 1020TIP3    H224552   1.281   5.999  16.369  0.7549  0.9963 -0.1787
 1021TIP3   OH224553   0.567   5.478   2.244 -0.1867  0.5327  0.0762
 1021TIP3    H124554   0.626   5.426   2.190 -0.7019  1.3720 -1.3366
 1021TIP3    H224555   0.481   5.465   2.205 -0.5407  1.2961  0.5887
 1022TIP3   OH224556   4.494   2.105  13.464 -0.4732  0.4207  0.2069
 1022TIP3    H124557   4.505   2.073  13.554 -0.3380 -0.5556 -0.1428
 1022TIP3    H224558   4.401   2.128  13.457 -0.6718 -0.3203  0.3446
 1023TIP3   OH224559   4.850   6.156  14.060  0.4521  0.2409 -0.2514
 1023TIP3    H124560   4.886   6.174  13.973  0.5473  3.0977  0.2712
 1023TIP3    H224561   4.808   6.238  14.086  1.1700 -0.2197  2.7377
 1024TIP3   OH224562   4.363   5.458   3.877 -0.4510  0.8292 -0.3181
 1024TIP3    H124563   4.395   5.494   3.794  1.0726  0.0591 -0.1031
 1024TIP3    H224564   4.379   5.527   3.941 -1.7436  1.4736 -0.6467
 1025TIP3   OH224565   6.121   4.286  12.820  0.5448  0.0374 -0.0316
 1025TIP3    H124566   6.079   4.371  12.831  0.3688  0.1346 -1.2941
 1025TIP3    H224567   6.051   4.228  12.789  0.5246 -0.7280  1.3793
 1026TIP3   OH224568   1.535   2.170   0.030  0.1235  0.2650  0.0937
 1026TIP3    H124569   1.516   2.233   0.099 -1.5678  0.9688 -0.9608
 1026TIP3    H224570   1.533   2.085   0.074  0.1751  0.7715  1.0997
 1027TIP3   OH224571   5.077   5.698   3.898 -0.6607 -0.2387 -0.4168
 1027TIP3    H124572   5.167   5.685   3.927  0.0769  0.0579 -2.4549
 1027TIP3    H224573   5.041   5.609   3.892 -0.6970 -0.3356  0.8642
 1028TIP3   OH224574   3.993   3.001  13.081 -0.3550 -0.1140  0.4768
 1028TIP3    H124575   4.022   3.088  13.054  1.5269 -1.1576 -1.0975
 1028TIP3    H224576   4.060   2.972  13.144  0.7681 -1.5376 -1.2619
 1029TIP3   OH224577   6.732   5.675  12.659 -0.6861 -0.1247  0.1699
 1029TIP3    H124578   6.677   5.750  12.640  0.8063  0.7639 -0.9361
 1029TIP3    H224579   6.807   5.712  12.706 -1.8079 -1.5578  3.3693
 1030TIP3   OH224580   6.228   3.432  11.973 -0.3680 -0.4608 -0.3529
 1030TIP3    H124581   6.223   3.336  11.974 -0.8440 -0.4484 -0.7585
 1030TIP3    H224582   6.227   3.454  11.879 -0.9402 -0.0314 -0.2496
 1031TIP3   OH224583   3.933   0.395   2.510  0.4440 -0.2238  0.1139
 1031TIP3    H124584   3.897   0.474   2.552 -0.5883  0.1930 -1.4611
 1031TIP3    H224585   4.021   0.420   2.484 -0.2088  0.7908 -1.2488
 1032TIP3   OH224586   6.224   2.857  12.075  0.4552 -0.5342  0.1523
 1032TIP3    H124587   6.246   2.923  12.141  1.3523  0.0173 -0.6602
 1032TIP3    H224588   6.150   2.809  12.111  0.4686  0.2367  1.2262
 1033TIP3   OH224589   2.452   4.846  13.374  0.3951  0.0857 -0.2104
 1033TIP3    H124590   2.539   4.808  13.387  0.7664 -0.4687 -3.5906
 1033TIP3    H224591   2.463   4.909  13.303 -1.5538  1.7812  0.8586
 1034TIP3   OH224592   0.626   6.550   5.628  0.2216 -0.0577  0.1165
 1034TIP3    H124593   0.563   6.610   5.669 -0.4110  0.3727 -1.3914
 1034TIP3    H224594   0.710   6.572   5.668 -0.4323  0.0161  1.4799
 1035TIP3   OH224595   2.365   6.362   4.558  0.1826  0.4293  0.1610
 1035TIP3    H124596   2.361   6.329   4.648 -2.2559  1.5038  0.5149
 1035TIP3    H224597   2.274   6.361   4.528  1.0744 -1.2046 -2.8303
 1036TIP3   OH224598   2.937   2.146  13.980 -0.4777 -0.0485 -0.0655
 1036TIP3    H124599   2.851   2.168  13.943 -0.8773 -0.0946  0.8046
 1036TIP3    H224600   2.918   2.077  14.044  0.3408 -0.7033 -0.5080
 1037TIP3   OH224601   4.058   1.769   5.479 -0.2499 -0.1986 -0.2195
 1037TIP3    H124602   4.086   1.730   5.562  1.4136 -1.5392 -1.3480
 1037TIP3    H224603   4.038   1.694   5.423  0.8346  0.6020 -1.7477
 1038TIP3   OH224604   4.354   0.357   4.488 -0.0971  0.2646 -0.7127
 1038TIP3    H124605   4.277   0.305   4.468 -0.2029 -0.5009  1.3489
 1038TIP3    H224606   4.377   0.332   4.578  2.3328  0.7402 -1.1267
 1039TIP3   OH224607   6.483   3.960   5.946  0.2569  0.0482  0.2885
 1039TIP3    H124608   6.447   3.953   6.034 -0.6342  1.1690  0.0348
 1039TIP3    H224609   6.412   3.933   5.888  0.2274  1.0198 -0.1557
 1040TIP3   OH224610   4.687   4.556   3.379  0.3086  0.0201 -0.0475
 1040TIP3    H124611   4.691   4.460   3.381  0.0578  0.0192  1.0959
 1040TIP3    H224612   4.748   4.584   3.447  0.6608  0.6986 -0.6221
 1041TIP3   OH224613   6.360   1.454   5.816 -0.0551 -0.5597  0.3088
 1041TIP3    H124614   6.309   1.409   5.884 -2.1868  1.6446  0.3289
 1041TIP3    H224615   6.423   1.389   5.786 -1.3122 -2.7074  2.0070
 1042TIP3   OH224616   5.061   4.574  13.055  0.4081 -0.5721  0.2051
 1042TIP3    H124617   5.125   4.631  13.098 -0.8293  0.0777  1.2507
 1042TIP3    H224618   5.068   4.491  13.102  0.7962 -0.6477  0.0169
 1043TIP3   OH224619   3.022   4.056  13.434 -0.0962 -0.2625  0.2643
 1043TIP3    H124620   2.963   4.131  13.442  0.0670 -0.1137  0.0685
 1043TIP3    H224621   3.012   4.009  13.517  1.5091  1.2115  1.3372
 1044TIP3   OH224622   3.037   0.007   5.873 -0.2407  0.2409 -0.1529
 1044TIP3    H124623   3.034  -0.088   5.864  0.2518  0.1081  0.9539
 1044TIP3    H224624   3.130   0.027   5.882 -0.3648  0.7875 -0.0477
 1045TIP3   OH224625   2.048   6.668   5.577  0.1721  0.3689  0.0523
 1045TIP3    H124626   2.140   6.657   5.601  0.2918  2.6834  1.0135
 1045TIP3    H224627   2.013   6.579   5.572  2.2493 -0.5300  0.4975
 1046TIP3   OH224628   1.255   2.149   4.590 -0.5565 -0.2019  0.1490
 1046TIP3    H124629   1.275   2.172   4.681 -0.4807 -1.2730  0.4182
 1046TIP3    H224630   1.336   2.168   4.543 -0.5059  0.1058  0.3603
 1047TIP3   OH224631   4.039   3.616  15.909  0.2573  0.0323  0.1922
 1047TIP3    H124632   4.031   3.521  15.896  0.3076  0.0472  0.0521
 1047TIP3    H224633   4.123   3.627  15.952  0.7860  0.1046 -0.8111
 1048TIP3   OH224634   6.701   1.627   2.712 -0.2904 -0.0478 -0.2905
 1048TIP3    H124635   6.607   1.620   2.729 -0.2147  1.7709  1.1427
 1048TIP3    H224636   6.725   1.713   2.746  1.3155  0.9270 -3.5448
 1049TIP3   OH224637   6.425   4.740   3.636 -0.1860  0.9292 -0.2352
 1049TIP3    H124638   6.443   4.702   3.723  1.5962  0.4778 -0.7483
 1049TIP3    H224639   6.402   4.665   3.581  1.6878  0.7431 -0.8441
 1050TIP3   OH224640   5.396   6.519   0.874  0.4828 -0.3944 -0.0050
 1050TIP3    H124641   5.373   6.598   0.923  1.2635  1.2084 -2.0431
 1050TIP3    H224642   5.316   6.467   0.873  0.1827 -0.0428  2.0602
 1051TIP3   OH224643   0.549   4.251  16.453 -0.0842 -0.1419 -0.2627
 1051TIP3    H124644   0.590   4.318  16.398  0.6926 -0.2664  0.1462
 1051TIP3    H224645   0.562   4.282  16.542  0.4674 -0.9285 -0.0557
 1052TIP3   OH224646   5.571   5.437   2.714  0.7538  0.1284  0.5941
 1052TIP3    H124647   5.541   5.526   2.736  1.3726  1.2173 -2.4919
 1052TIP3    H224648   5.667   5.446   2.707  0.7998 -0.7421  0.0527
 1053TIP3   OH224649   6.338   2.518   2.522 -0.3246  0.5807  0.8878
 1053TIP3    H124650   6.407   2.453   2.520 -0.1398  0.7198 -1.9499
 1053TIP3    H224651   6.335   2.553   2.433 -3.8863  0.7423  0.9001
 1054TIP3   OH224652   2.229   4.415  11.633  0.0909  0.3992  0.0100
 1054TIP3    H124653   2.298   4.419  11.698  1.3370  1.0341 -1.3075
 1054TIP3    H224654   2.208   4.322  11.626 -1.3913  0.4198  2.5827
 1055TIP3   OH224655   5.242   3.687   4.916 -0.1689 -0.9493 -0.1848
 1055TIP3    H124656   5.283   3.660   4.999 -0.4175  1.1168  0.6613
 1055TIP3    H224657   5.197   3.768   4.937 -2.2037 -1.5799 -1.8364
 1056TIP3   OH224658   5.383   6.600  15.218 -0.8983  0.7721  0.1890
 1056TIP3    H124659   5.379   6.578  15.125 -2.4855  1.4595  0.0619
 1056TIP3    H224660   5.476   6.614  15.235 -0.3932 -0.9718 -0.8812
 1057TIP3   OH224661   1.288   5.773   6.813  0.4993 -0.2672  0.2015
 1057TIP3    H124662   1.282   5.805   6.723  0.9894  1.6620  0.8015
 1057TIP3    H224663   1.200   5.783   6.849  0.6213  0.3798  0.3467
 1058TIP3   OH224664   5.012   2.911   2.009 -0.3095 -0.2894 -0.0660
 1058TIP3    H124665   5.034   2.985   2.066  1.5800  0.3999 -1.5598
 1058TIP3    H224666   5.064   2.838   2.043 -0.5305 -0.3600  0.1243
 1059TIP3   OH224667   5.724   0.301  13.106 -0.5325 -0.1718  0.2577
 1059TIP3    H124668   5.790   0.325  13.040 -3.0544  1.0925 -1.9964
 1059TIP3    H224669   5.745   0.210  13.128  2.5895  0.4896  0.5451
 1060TIP3   OH224670   2.415   2.507  11.928 -0.2705 -0.4631  0.2019
 1060TIP3    H124671   2.485   2.516  11.992 -0.0191 -1.6478  0.1137
 1060TIP3    H224672   2.410   2.413  11.910 -1.3994 -0.3236 -0.3325
 1061TIP3   OH224673   6.264   4.730  17.094  0.1424 -0.0694  0.5568
 1061TIP3    H124674   6.177   4.737  17.135 -0.0025 -0.8777  0.3911
 1061TIP3    H224675   6.318   4.793  17.142 -0.1111 -0.7506  1.7809
 1062TIP3   OH224676   6.609   2.153  11.273 -0.0200  0.6369 -0.5320
 1062TIP3    H124677   6.547   2.087  11.242  0.3652  0.8365 -1.7603
 1062TIP3    H224678   6.676   2.102  11.319 -0.0289  0.2235 -0.9701
 1063TIP3   OH224679   3.522   3.369  13.800  0.3017 -0.5509 -0.5439
 1063TIP3    H124680   3.553   3.451  13.762 -2.4129 -0.2922 -2.4846
 1063TIP3    H224681   3.463   3.396  13.871  0.5300 -0.8796 -0.2264
 1064TIP3   OH224682   6.801   2.420   5.844  0.2186  0.1148 -0.4641
 1064TIP3    H124683   6.823   2.513   5.839  0.5169  0.0382 -0.5892
 1064TIP3    H224684   6.724   2.416   5.901  1.6022  0.2066  1.4829
 1065TIP3   OH224685   4.023   3.573  12.470  0.3466  0.0955  0.6341
 1065TIP3    H124686   4.100   3.534  12.428 -0.4105 -0.7921  0.0158
 1065TIP3    H224687   3.956   3.506  12.462 -0.4214  0.7536  1.4117
 1066TIP3   OH224688   1.345   1.547  13.512 -0.4552  0.2148  0.3555
 1066TIP3    H124689   1.387   1.493  13.445  1.5490  0.3286  1.4341
 1066TIP3    H224690   1.286   1.487  13.557  1.9052 -1.2796  1.7040
 1067TIP3   OH224691   1.857   0.796   2.719 -0.3200 -0.4696 -0.1286
 1067TIP3    H124692   1.947   0.827   2.704  0.0091 -0.9531  0.8083
 1067TIP3    H224693   1.815   0.866   2.769 -0.2443 -0.5771  0.0826
 1068TIP3   OH224694   0.177   6.320  17.081 -0.2919 -0.4731 -0.1513
 1068TIP3    H124695   0.259   6.313  17.033 -1.5445  0.6768 -2.6445
 1068TIP3    H224696   0.167   6.413  17.100 -0.0531 -0.8319  2.1025
 1069TIP3   OH224697   5.425   5.565   3.695 -0.4521 -0.1725  0.7072
 1069TIP3    H124698   5.491   5.515   3.647 -0.0648  1.2744 -0.3363
 1069TIP3    H224699   5.342   5.532   3.661 -0.2486 -0.9219  0.9010
 1070TIP3   OH224700   2.836   3.099   1.392 -0.2128 -0.9196 -0.1619
 1070TIP3    H124701   2.858   3.042   1.318  1.1481  1.3817 -1.6511
 1070TIP3    H224702   2.903   3.079   1.458  0.6204 -0.6407 -0.9046
 1071TIP3   OH224703   4.056   3.758   5.514  0.9111 -0.6705  1.0046
 1071TIP3    H124704   4.090   3.846   5.495  1.5701 -0.7745  1.6471
 1071TIP3    H224705   4.119   3.699   5.473  0.3415 -0.8462  0.3727
 1072TIP3   OH224706   5.675   5.176   0.819  0.0312  0.6353 -0.3582
 1072TIP3    H124707   5.649   5.123   0.743 -0.0067  0.4678 -0.2307
 1072TIP3    H224708   5.598   5.230   0.837 -0.1486  0.3022 -0.1204
 1073TIP3   OH224709   1.031   3.140   2.803  0.1126  0.0155 -0.0769
 1073TIP3    H124710   0.970   3.187   2.860  1.7876  0.7403  1.2220
 1073TIP3    H224711   1.117   3.177   2.825  1.1939 -1.8664 -0.8935
 1074TIP3   OH224712   3.120   1.428   5.378  0.2501  0.0687 -0.3210
 1074TIP3    H124713   3.174   1.350   5.394 -0.3304 -0.2026  0.3779
 1074TIP3    H224714   3.172   1.500   5.412  1.2252  0.1351 -1.8557
 1075TIP3   OH224715   4.052   5.063  11.063  0.3038 -0.6827 -0.2708
 1075TIP3    H124716   4.147   5.075  11.072  0.1710  1.2813 -0.9646
 1075TIP3    H224717   4.041   5.035  10.972  0.2746 -1.9638  0.1138
 1076TIP3   OH224718   1.245   1.836   1.280  0.0112 -0.3080  0.3209
 1076TIP3    H124719   1.309   1.798   1.340 -0.1244 -0.1745  0.5499
 1076TIP3    H224720   1.182   1.765   1.264  0.5254 -0.6289 -0.3623
 1077TIP3   OH224721   5.122   4.232  14.909 -0.5125  0.1327  0.0191
 1077TIP3    H124722   5.082   4.268  14.988 -1.4229  0.7958 -0.7273
 1077TIP3    H224723   5.109   4.137  14.916  2.0369 -0.1761  2.0795
 1078TIP3   OH224724   1.508   3.848  10.828  0.3341 -0.0876 -0.7202
 1078TIP3    H124725   1.602   3.834  10.818  0.6079  1.0666  0.0850
 1078TIP3    H224726   1.496   3.942  10.818 -0.7483 -0.2200 -0.8076
 1079TIP3   OH224727   3.428   0.659  16.490 -0.2486 -0.2407  0.5477
 1079TIP3    H124728   3.430   0.590  16.557 -0.7541 -1.1841 -0.3744
 1079TIP3    H224729   3.518   0.692  16.488 -0.0471 -0.7304  1.1732
 1080TIP3   OH224730   2.476   6.619   4.492  0.5297  0.5863 -0.4817
 1080TIP3    H124731   2.451   6.529   4.470  3.4888 -0.5857  0.4518
 1080TIP3    H224732   2.533   6.646   4.420 -0.4476  1.8148 -0.8228
 1081TIP3   OH224733   2.927   3.883  16.234  0.2214 -0.0000  0.7781
 1081TIP3    H124734   2.939   3.929  16.150  1.0485  0.2668  1.0327
 1081TIP3    H224735   2.847   3.921  16.270  1.5797  2.2740  1.6142
 1082TIP3   OH224736   2.947   4.705  11.834 -0.1126 -0.1367 -0.1774
 1082TIP3    H124737   2.918   4.730  11.746 -1.4122  0.1341  0.3131
 1082TIP3    H224738   2.867   4.677  11.878  0.4803  0.0660  1.0413
 1083TIP3   OH224739   2.264   0.274   5.001 -0.1902 -0.2200  0.3309
 1083TIP3    H124740   2.247   0.354   5.051  0.5895  0.5984 -0.6829
 1083TIP3    H224741   2.319   0.302   4.928 -0.3331 -1.5979 -0.3356
 1084TIP3   OH224742   3.652   0.638   5.963  0.2115 -0.2937  0.0196
 1084TIP3    H124743   3.707   0.629   6.041 -0.4773  0.2194  0.5728
 1084TIP3    H224744   3.591   0.564   5.968 -2.7689  2.0698  2.3971
 1085TIP3   OH224745   0.305   3.885   4.318  0.0609  0.5373 -0.2098
 1085TIP3    H124746   0.220   3.856   4.351  0.3206 -0.5081 -0.4084
 1085TIP3    H224747   0.367   3.860   4.387  0.0818  2.4177  0.4984
 1086TIP3   OH224748   1.900   2.112  15.946  0.6918  0.3049  0.2305
 1086TIP3    H124749   1.806   2.102  15.964  1.1065 -0.8683  2.0621
 1086TIP3    H224750   1.920   2.201  15.975  0.4402 -0.0193  1.4756
 1087TIP3   OH224751   5.106   2.749   4.934  0.1321 -0.2260 -1.1468
 1087TIP3    H124752   5.035   2.813   4.940  1.9567  1.7929  0.9318
 1087TIP3    H224753   5.095   2.709   4.848 -1.6290  2.2772 -2.2082
 1088TIP3   OH224754   2.194   2.547  15.127 -0.4540 -0.3263  0.6435
 1088TIP3    H124755   2.204   2.452  15.132  0.3762 -0.3517 -1.0226
 1088TIP3    H224756   2.156   2.563  15.041  0.6704  0.9437  0.3536
 1089TIP3   OH224757   1.340   2.632  14.813  0.1445  0.1749 -0.2077
 1089TIP3    H124758   1.297   2.610  14.730 -1.3230  2.2053 -0.0523
 1089TIP3    H224759   1.391   2.711  14.793  0.3165  0.2930  0.6756
 1090TIP3   OH224760   3.360   6.760   1.533 -0.2960 -0.1519  0.0341
 1090TIP3    H124761   3.400   6.719   1.609 -3.2165 -1.5070  0.9762
 1090TIP3    H224762   3.269   6.774   1.559 -0.4091  3.3653 -1.6992
 1091TIP3   OH224763   4.733   5.798   2.416 -0.6935  0.5842  0.2028
 1091TIP3    H124764   4.782   5.830   2.340  2.8559  3.4029  3.2965
 1091TIP3    H224765   4.766   5.709   2.430 -2.5801 -0.6335 -2.2265
 1092TIP3   OH224766   1.317   4.748  11.173 -0.1720  0.3025 -0.3670
 1092TIP3    H124767   1.413   4.743  11.169 -0.2285 -0.4782 -0.9795
 1092TIP3    H224768   1.287   4.689  11.104 -1.1184 -0.8847  0.9832
 1093TIP3   OH224769   5.583   2.422   4.485  0.6358  0.3584 -0.2169
 1093TIP3    H124770   5.635   2.440   4.563 -0.4006 -0.6668  0.7500
 1093TIP3    H224771   5.630   2.350   4.442  0.3104 -0.2175  0.3765
 1094TIP3   OH224772   0.307   4.087  14.028  0.8328 -0.5375  0.7181
 1094TIP3    H124773   0.323   4.074  13.935 -0.2102  0.8200  0.3188
 1094TIP3    H224774   0.373   4.033  14.072  1.2035 -1.3599 -0.7912
 1095TIP3   OH224775   3.420   0.313  11.881 -0.1153 -0.0299 -0.0757
 1095TIP3    H124776   3.445   0.402  11.906  0.7879 -0.5164  0.8416
 1095TIP3    H224777   3.366   0.283  11.954  1.8464 -1.1736  0.9750
 1096TIP3   OH224778   3.139   4.188   6.598 -0.1241 -0.2227 -0.8786
 1096TIP3    H124779   3.184   4.171   6.515  1.1744 -1.2245 -0.0175
 1096TIP3    H224780   3.202   4.240   6.649 -1.3861  1.4578 -0.9376
 1097TIP3   OH224781   2.400   1.051  11.188  0.0407 -0.3617  0.3496
 1097TIP3    H124782   2.338   1.114  11.151 -0.9771 -0.4804  1.7540
 1097TIP3    H224783   2.350   0.969  11.193  0.7260 -0.7859  0.3382
 1098TIP3   OH224784   3.871   0.010  14.210  0.4324  0.1385  0.0848
 1098TIP3    H124785   3.965   0.031  14.203  0.2350  0.5760 -1.6610
 1098TIP3    H224786   3.862  -0.074  14.165  0.1525 -0.5568  1.3709
 1099TIP3   OH224787   0.419   6.792   0.556 -0.5006 -0.2434 -0.2443
 1099TIP3    H124788   0.471   6.745   0.490  0.1056 -1.2659  0.9134
 1099TIP3    H224789   0.412   6.881   0.522 -1.9333 -1.1560 -2.6881
 1100TIP3   OH224790   4.599   0.506   2.089  0.1666 -0.2953  0.5486
 1100TIP3    H124791   4.659   0.474   2.157 -0.1694 -0.8028  0.6118
 1100TIP3    H224792   4.561   0.426   2.052  1.7253 -0.1466 -1.5219
 1101TIP3   OH224793   1.266   4.365  13.781 -0.3354  0.5547  0.1413
 1101TIP3    H124794   1.204   4.292  13.783 -1.0905  1.1978  0.3016
 1101TIP3    H224795   1.323   4.345  13.707 -0.4924 -0.2321  0.2192
 1102TIP3   OH224796   4.491   3.258   0.564 -0.0366 -0.7794 -0.4352
 1102TIP3    H124797   4.427   3.322   0.593 -0.3847 -1.7652  1.0871
 1102TIP3    H224798   4.575   3.293   0.594 -0.5015 -2.4857  3.4422
 1103TIP3   OH224799   6.182   3.991  13.749  0.7491 -0.2562 -0.3507
 1103TIP3    H124800   6.152   3.984  13.840  2.6937  0.6952  0.4280
 1103TIP3    H224801   6.196   3.900  13.722 -1.9280 -0.6900 -0.5006
 1104TIP3   OH224802   5.352   6.601   5.356  0.1198  0.4317  0.2452
 1104TIP3    H124803   5.272   6.565   5.394 -0.1472  0.9898  0.2224
 1104TIP3    H224804   5.332   6.612   5.263 -0.1006  1.4128  0.3911
 1105TIP3   OH224805   1.690   6.479   3.820 -0.3194  0.0608 -0.2630
 1105TIP3    H124806   1.634   6.419   3.771 -1.9634 -0.0364  1.6141
 1105TIP3    H224807   1.636   6.557   3.833 -0.1491 -0.1239  1.7884
 1106TIP3   OH224808   1.604   1.210  14.548 -0.3323 -0.0681 -0.4263
 1106TIP3    H124809   1.644   1.250  14.625 -0.7708 -0.6395  0.1009
 1106TIP3    H224810   1.630   1.267  14.476  1.2287 -0.2637 -0.0753
 1107TIP3   OH224811   6.389   4.465   1.923  0.6430  0.5134  0.0166
 1107TIP3    H124812   6.483   4.449   1.921  0.7219  0.9484  0.0226
 1107TIP3    H224813   6.366   4.487   1.833  0.5414  0.3608  0.0060
 1108TIP3   OH224814   6.374   4.259   2.105 -0.5248 -0.1650  0.4802
 1108TIP3    H124815   6.386   4.333   2.046  1.5192 -0.0553  0.9403
 1108TIP3    H224816   6.332   4.191   2.052  1.2847 -0.0868 -1.1483
 1109TIP3   OH224817   0.095   6.198   3.418 -0.0032  0.2738 -0.6199
 1109TIP3    H124818   0.060   6.115   3.386  1.5116 -1.3041  1.5332
 1109TIP3    H224819   0.182   6.204   3.379  0.2154  0.4235 -0.1200
 1110TIP3   OH224820   4.185   6.779   3.933 -0.0314  1.0669 -0.5817
 1110TIP3    H124821   4.140   6.695   3.944 -0.3730  1.5112  2.1200
 1110TIP3    H224822   4.269   6.756   3.893 -0.2202 -0.5467 -0.1426
 1111TIP3   OH224823   4.387   1.506  13.489 -0.9304  0.0020 -0.9176
 1111TIP3    H124824   4.405   1.413  13.504  0.3489  0.0179 -2.1034
 1111TIP3    H224825   4.466   1.551  13.520 -1.8079  0.7651  0.2558
 1112TIP3   OH224826   5.405   2.243   0.032  0.1380  0.2394 -0.4897
 1112TIP3    H124827   5.381   2.282   0.116  2.4501 -1.6589  1.2214
 1112TIP3    H224828   5.342   2.172   0.020 -0.8469  1.1668 -0.9422
 1113TIP3   OH224829   0.819   2.366  11.197 -0.4226 -0.3073 -0.5545
 1113TIP3    H124830   0.900   2.384  11.149 -0.6139  2.0742 -0.0942
 1113TIP3    H224831   0.848   2.316  11.274  0.8676  1.6745  0.3293
 1114TIP3   OH224832   1.584   4.888  12.744  0.2337  0.3388  0.5102
 1114TIP3    H124833   1.609   4.901  12.836 -1.0816 -0.0728  0.9527
 1114TIP3    H224834   1.663   4.907  12.695  1.1362 -0.0270  1.7716
 1115TIP3   OH224835   0.420   0.031  11.676  0.7244  0.4912  0.3683
 1115TIP3    H124836   0.374   0.105  11.638  1.5897  0.5996 -0.4867
 1115TIP3    H224837   0.388  -0.045  11.627  0.0522  0.3137  1.0537
 1116TIP3   OH224838   3.304   1.094   5.162 -0.4208 -0.6990  0.6269
 1116TIP3    H124839   3.397   1.119   5.160 -0.1977 -1.4309  1.2541
 1116TIP3    H224840   3.292   1.044   5.081 -0.2420 -0.6777  0.5858
 1117TIP3   OH224841   4.763   1.194   1.166 -0.0117  0.1603 -0.2444
 1117TIP3    H124842   4.729   1.108   1.190 -0.6565  0.3101 -0.5976
 1117TIP3    H224843   4.844   1.176   1.117 -0.2372 -0.2511 -0.4662
 1118TIP3   OH224844   1.151   4.631  13.578 -0.2093  0.5528 -0.6729
 1118TIP3    H124845   1.090   4.557  13.573  0.2896  0.0890 -0.0692
 1118TIP3    H224846   1.150   4.668  13.490 -0.3651 -0.2617 -1.0259
 1119TIP3   OH224847   1.610   2.040   3.869 -0.4888  0.7684  0.3572
 1119TIP3    H124848   1.544   2.053   3.800 -2.1548 -1.3602  1.4340
 1119TIP3    H224849   1.654   1.958   3.845  0.2736  1.0367  0.8091
 1120TIP3   OH224850   1.293   1.336  12.205  0.1434 -0.3394  0.4190
 1120TIP3    H124851   1.315   1.418  12.249  2.8980  0.3111 -1.8733
 1120TIP3    H224852   1.329   1.268  12.262  1.3968  0.3232  0.4700
 1121TIP3   OH224853   2.609   6.335  15.284  0.4462 -0.0281  0.6354
 1121TIP3    H124854   2.560   6.393  15.343  0.7377  1.8425 -0.8854
 1121TIP3    H224855   2.696   6.329  15.323 -0.1618 -1.2306  1.9267
 1122TIP3   OH224856   0.838   1.115   1.689  0.3752 -0.6490  0.1421
 1122TIP3    H124857   0.799   1.080   1.609 -0.3414  0.3821  0.0214
 1122TIP3    H224858   0.804   1.059   1.758  0.0325 -0.8166 -0.1553
 1123TIP3   OH224859   6.064   0.311   1.424 -0.3627  0.1635  0.0069
 1123TIP3    H124860   6.008   0.281   1.353 -2.5927  0.9215  1.3197
 1123TIP3    H224861   6.151   0.277   1.403 -1.5550 -2.2252 -1.4630
 1124TIP3   OH224862   5.221   1.561   4.565 -0.2275 -0.7135  0.4752
 1124TIP3    H124863   5.252   1.492   4.506  2.6917  0.2161  0.7528
 1124TIP3    H224864   5.298   1.583   4.618 -1.7989  0.9359  2.2140
 1125TIP3   OH224865   4.698   3.710   1.906  0.3314  0.4977  0.0761
 1125TIP3    H124866   4.660   3.765   1.838 -2.2843 -0.9403  0.2126
 1125TIP3    H224867   4.688   3.761   1.987  1.1530  1.1979 -0.2524
 1126TIP3   OH224868   3.636   0.104   5.110 -0.2010 -0.2509  0.5188
 1126TIP3    H124869   3.671   0.082   5.024 -0.1107  0.0120  0.4881
 1126TIP3    H224870   3.544   0.124   5.094 -0.3800 -0.9687  0.6043
 1127TIP3   OH224871   3.648   6.207   4.987  0.7198 -0.4119  0.2410
 1127TIP3    H124872   3.629   6.183   4.896  0.4920 -2.6700  0.8336
 1127TIP3    H224873   3.710   6.141   5.016 -0.7290 -0.9608  2.3042
 1128TIP3   OH224874   2.186   6.091   3.188  0.3768  0.2456  0.1099
 1128TIP3    H124875   2.246   6.159   3.159  0.0202  0.3279 -0.4553
 1128TIP3    H224876   2.124   6.137   3.246 -0.4534  0.6278 -1.0340
 1129TIP3   OH224877   0.272   4.316   1.966 -0.2947  0.1543  0.1105
 1129TIP3    H124878   0.364   4.292   1.956 -0.3494  0.1738 -0.4581
 1129TIP3    H224879   0.224   4.240   1.935 -0.4977 -0.6125  2.1443
 1130TIP3   OH224880   1.485   0.679   3.095  0.7665  0.1339 -0.4363
 1130TIP3    H124881   1.464   0.595   3.134  1.0517 -0.0016 -0.5735
 1130TIP3    H224882   1.426   0.686   3.019  0.2089  0.3992  0.0095
 1131TIP3   OH224883   1.553   3.005   0.485 -0.1126  0.5342 -0.2699
 1131TIP3    H124884   1.554   3.038   0.575 -0.3387 -0.1479 -0.0065
 1131TIP3    H224885   1.482   3.052   0.442  0.8138  1.7975 -0.4664
 1132TIP3   OH224886   1.810   3.900   1.176  0.0993  0.4619 -0.3796
 1132TIP3    H124887   1.882   3.839   1.194 -0.7131 -1.2991 -2.7092
 1132TIP3    H224888   1.739   3.870   1.233  0.0336 -0.1455 -0.7711
 1133TIP3   OH224889   6.611   5.679  15.032 -0.1873 -0.4745 -0.0198
 1133TIP3    H124890   6.531   5.626  15.024 -0.1984 -0.4304 -0.2178
 1133TIP3    H224891   6.606   5.718  15.119 -0.3489 -0.5247 -0.0058
 1134TIP3   OH224892   2.324   4.794   5.796  0.0343 -0.3434  0.2768
 1134TIP3    H124893   2.269   4.786   5.718  1.0636  0.3835 -0.5442
 1134TIP3    H224894   2.277   4.744   5.863 -0.8304 -1.0551 -0.8196
 1135TIP3   OH224895   2.728   3.471  14.292  0.2643 -0.0754 -0.0594
 1135TIP3    H124896   2.649   3.418  14.282 -0.3215  0.9937 -1.4846
 1135TIP3    H224897   2.774   3.461  14.209 -0.7729  2.9735 -1.1411
 1136TIP3   OH224898   0.359   3.842  15.681  0.1952 -1.0126 -0.5222
 1136TIP3    H124899   0.351   3.937  15.691 -0.7654 -1.0352 -0.9505
 1136TIP3    H224900   0.403   3.829  15.597  2.6287 -0.9342  0.6416
 1137TIP3   OH224901   3.909   6.069   0.461 -0.4387  0.4041  0.0673
 1137TIP3    H124902   3.853   6.140   0.493  0.5551  1.8342 -1.1825
 1137TIP3    H224903   3.998   6.103   0.471  0.0344 -0.4620 -0.9864
 1138TIP3   OH224904   4.471   6.658  13.031 -0.0985 -0.6380  0.5256
 1138TIP3    H124905   4.545   6.691  12.980  0.1026 -0.0952  1.1543
 1138TIP3    H224906   4.396   6.666  12.972  0.5485 -2.6239 -0.6755
 1139TIP3   OH224907   1.077   3.009   0.221 -0.8558  0.0045 -0.1182
 1139TIP3    H124908   1.034   3.091   0.196 -2.1921 -0.4039  0.7307
 1139TIP3    H224909   1.074   2.956   0.141 -1.0616  0.3468 -0.3434
 1140TIP3   OH224910   2.557   2.210  15.581  0.3518 -0.7884  0.1757
 1140TIP3    H124911   2.591   2.139  15.635 -0.3274 -1.3572 -0.1253
 1140TIP3    H224912   2.476   2.237  15.625  0.6738 -0.1196  0.3543
 1141TIP3   OH224913   0.136   2.342   1.672  0.1410 -0.1129  0.0934
 1141TIP3    H124914   0.155   2.429   1.639  1.0758 -0.4712 -0.3535
 1141TIP3    H224915   0.118   2.355   1.765  2.4753  0.3205  0.5579
 1142TIP3   OH224916   5.898   6.640  11.574  0.2879  0.5360 -1.1868
 1142TIP3    H124917   5.920   6.684  11.492 -0.6391  0.4943 -1.4678
 1142TIP3    H224918   5.939   6.693  11.642  1.4908  0.2981 -1.6978
 1143TIP3   OH224919   0.441   6.424  13.161 -0.6828  0.2726  0.0837
 1143TIP3    H124920   0.357   6.377  13.157  0.0102 -0.9740 -0.5832
 1143TIP3    H224921   0.442   6.478  13.082 -1.0087  0.5584  0.2753
 1144TIP3   OH224922   6.772   0.423  14.627  0.2912  0.4041  0.4063
 1144TIP3    H124923   6.698   0.416  14.566 -0.2796  0.4520  1.0779
 1144TIP3    H224924   6.768   0.341  14.677  0.6519  0.4428  0.4950
 1145TIP3   OH224925   1.632   2.681   1.983 -0.2364 -0.6404  0.2476
 1145TIP3    H124926   1.631   2.613   1.916 -0.0811 -0.5237  0.1271
 1145TIP3    H224927   1.587   2.755   1.942  2.2501  0.4205 -0.7694
 1146TIP3   OH224928   5.346   6.501   1.867  0.2019  0.2027 -0.0996
 1146TIP3    H124929   5.347   6.484   1.772  0.0082 -0.6800  0.0405
 1146TIP3    H224930   5.255   6.486   1.892  0.0277  1.4833  0.0582
 1147TIP3   OH224931   2.131   1.705  11.625  0.0603 -0.0684 -0.2871
 1147TIP3    H124932   2.074   1.708  11.548 -2.0726  1.0799  1.2318
 1147TIP3    H224933   2.082   1.653  11.689  2.0707 -1.5534  0.1399
 1148TIP3   OH224934   2.218   6.777  17.195 -0.0260 -0.2540 -0.7487
 1148TIP3    H124935   2.268   6.759  17.115  0.6492 -0.4133 -0.2969
 1148TIP3    H224936   2.154   6.843  17.168  1.2048  0.8637 -1.0674
 1149TIP3   OH224937   4.098   1.224   4.827  0.1021  0.2241  0.4889
 1149TIP3    H124938   4.056   1.275   4.896  1.2120  2.8159 -0.6354
 1149TIP3    H224939   4.187   1.260   4.821  0.7547 -1.4711 -0.8051
 1150TIP3   OH224940   0.131   2.357  12.023  0.2408 -0.2680  0.1900
 1150TIP3    H124941   0.116   2.265  12.004 -1.9793 -0.1652  1.1282
 1150TIP3    H224942   0.089   2.404  11.950  3.2909  0.0983 -1.5212
 1151TIP3   OH224943   3.437   0.362   5.242  0.0902 -0.6231  0.1715
 1151TIP3    H124944   3.345   0.365   5.217  0.1466 -0.9306 -0.0776
 1151TIP3    H224945   3.444   0.285   5.299 -0.1768  0.4568  1.7275
 1152TIP3   OH224946   4.045   6.244   5.907  0.0346 -0.3833 -0.7058
 1152TIP3    H124947   4.047   6.268   6.000 -1.7995 -0.3071 -0.6491
 1152TIP3    H224948   4.091   6.316   5.863 -0.3594  0.3393  0.0175
 1153TIP3   OH224949   3.895   3.030  14.797  0.7257  0.3875 -0.6470
 1153TIP3    H124950   3.917   3.119  14.768  0.7121  0.1276 -1.4694
 1153TIP3    H224951   3.891   3.037  14.893 -1.3187  1.7635 -0.7615
 1154TIP3   OH224952   3.340   5.082  16.319  0.0742 -0.2516  0.3924
 1154TIP3    H124953   3.333   4.986  16.312  1.9114 -0.5083  1.4310
 1154TIP3    H224954   3.267   5.107  16.376 -0.0202 -1.1216  0.6691
 1155TIP3   OH224955   3.514   5.127   1.914 -0.4413  0.3958 -0.0721
 1155TIP3    H124956   3.466   5.143   1.833  0.4295  2.8958 -0.1785
 1155TIP3    H224957   3.450   5.140   1.984 -0.7301  0.1827 -0.2972
 1156TIP3   OH224958   4.808   3.470   1.651 -0.3714 -0.4951  0.3187
 1156TIP3    H124959   4.826   3.563   1.656 -0.3332  0.0330 -4.8232
 1156TIP3    H224960   4.714   3.462   1.668 -0.2036  0.2424  1.7502
 1157TIP3   OH224961   0.050   0.982   0.217 -0.1808 -0.0228 -0.4880
 1157TIP3    H124962  -0.008   1.052   0.247  0.7593  0.2178  0.8872
 1157TIP3    H224963   0.137   1.008   0.247  0.3905 -1.1651 -1.0662
 1158TIP3   OH224964   3.354   4.463  13.333  0.9809 -0.1732 -0.1753
 1158TIP3    H124965   3.429   4.453  13.391  0.2121 -0.7966  0.7433
 1158TIP3    H224966   3.343   4.558  13.323  2.3088 -0.0815 -0.9015
 1159TIP3   OH224967   5.124   6.491  13.333 -0.1919 -0.2922 -0.0168
 1159TIP3    H124968   5.038   6.462  13.362  0.5124 -1.8127  0.6697
 1159TIP3    H224969   5.128   6.583  13.359 -0.5498 -0.9286  2.6072
 1160TIP3   OH224970   1.681   4.577  12.850 -0.2775  0.0241 -0.8492
 1160TIP3    H124971   1.679   4.484  12.872 -1.0228  0.0878 -0.6235
 1160TIP3    H224972   1.606   4.614  12.897  0.5758  0.9101 -0.1565
 1161TIP3   OH224973   1.966   1.009  13.075  0.1398 -0.2335  0.5228
 1161TIP3    H124974   2.029   1.081  13.067  1.2648 -1.2783 -0.5315
 1161TIP3    H224975   1.960   0.974  12.986  0.5983 -2.2144  1.2348
 1162TIP3   OH224976   5.540   6.525  12.396  0.1316 -0.2912 -0.0996
 1162TIP3    H124977   5.542   6.514  12.301  0.5630 -0.1793 -0.1078
 1162TIP3    H224978   5.453   6.560  12.415 -0.4966 -1.6848 -0.2964
 1163TIP3   OH224979   5.744   1.488  12.899 -0.2464 -0.1463 -0.2332
 1163TIP3    H124980   5.720   1.574  12.865 -1.5568 -0.5347 -0.3714
 1163TIP3    H224981   5.684   1.428  12.854  0.6800 -1.1429 -0.1807
 1164TIP3   OH224982   5.390   0.944   4.732 -0.1666 -0.4093  0.2754
 1164TIP3    H124983   5.403   1.031   4.695  0.4706  0.1102  1.6700
 1164TIP3    H224984   5.308   0.950   4.780  1.2965  0.3678  2.8698
 1165TIP3   OH224985   6.035   4.034  12.573 -0.1462  0.5227  0.2872
 1165TIP3    H124986   6.106   4.017  12.635 -0.2097  1.0485  0.5141
 1165TIP3    H224987   5.984   4.104  12.615 -0.7538  0.1974  0.0940
 1166TIP3   OH224988   3.789   4.152  11.910 -0.3401 -0.4230 -0.2156
 1166TIP3    H124989   3.742   4.197  11.980 -1.4742 -0.7207 -0.7574
 1166TIP3    H224990   3.765   4.060  11.921  2.2668 -1.0314  1.1280
 1167TIP3   OH224991   3.479   4.700   6.322  0.3145 -0.0164  0.2393
 1167TIP3    H124992   3.395   4.735   6.292 -0.0723  0.3726  1.7153
 1167TIP3    H224993   3.542   4.770   6.302  0.4353 -0.5338 -1.3959
 1168TIP3   OH224994   2.223   3.148  15.699  0.2210 -0.0473 -0.4428
 1168TIP3    H124995   2.211   3.160  15.605  3.7870 -0.3714 -1.0818
 1168TIP3    H224996   2.160   3.081  15.723 -0.7256  0.0030 -2.6157
 1169TIP3   OH224997   3.320   4.583   0.369  0.0571 -0.1976 -0.4834
 1169TIP3    H124998   3.406   4.540   0.368  0.4988  0.5960  0.7236
 1169TIP3    H224999   3.266   4.529   0.312  0.5529 -2.4308  1.0173
 1170TIP3   OH225000   6.328   5.334  12.354  0.4053 -0.1183  0.0504
 1170TIP3    H125001   6.342   5.403  12.290  0.7002 -1.4128 -1.3410
 1170TIP3    H225002   6.276   5.268  12.308 -2.5064  0.4263  2.2480
 1171TIP3   OH225003   2.136   3.205   6.423  0.1717 -0.5859 -0.1944
 1171TIP3    H125004   2.042   3.224   6.422  0.2773  0.0066 -1.4885
 1171TIP3    H225005   2.141   3.109   6.420 -0.4735 -0.6363 -3.6152
 1172TIP3   OH225006   3.086   2.583  15.579 -0.0577 -0.3936 -0.2367
 1172TIP3    H125007   3.103   2.554  15.490 -0.7029 -0.7798 -0.2416
 1172TIP3    H225008   3.166   2.630  15.605  0.7880 -1.6569 -0.4433
 1173TIP3   OH225009   1.696   4.756   1.191 -0.0777 -0.5159  0.5478
 1173TIP3    H125010   1.636   4.751   1.265 -0.4853 -1.0246  0.1860
 1173TIP3    H225011   1.710   4.850   1.178  0.4608 -0.4266  1.6333
 1174TIP3   OH225012   2.379   5.716  11.098 -0.2125 -0.4040 -0.2625
 1174TIP3    H125013   2.451   5.754  11.048  0.1116 -0.2313  0.3243
 1174TIP3    H225014   2.321   5.678  11.032  1.0501 -1.6718 -0.7004
 1175TIP3   OH225015   1.490   0.644  11.418  0.3587 -0.0380 -0.3264
 1175TIP3    H125016   1.549   0.690  11.358  0.2006  2.2002  1.1487
 1175TIP3    H225017   1.527   0.659  11.505 -0.3882 -1.7438  0.3305
 1176TIP3   OH225018   1.740   6.390  15.000  0.1560  0.1579 -0.4205
 1176TIP3    H125019   1.673   6.379  14.933  0.1305 -1.4688 -0.1516
 1176TIP3    H225020   1.768   6.481  14.990 -1.0864  0.4579 -1.4630
 1177TIP3   OH225021   6.772   5.485  15.289  0.5824 -0.0956 -0.1920
 1177TIP3    H125022   6.703   5.444  15.237  0.2040  0.7749 -0.3875
 1177TIP3    H225023   6.773   5.436  15.371 -0.0308 -0.3320 -0.3238
 1178TIP3   OH225024   5.804   5.019  14.279 -0.1040  0.0907 -0.5606
 1178TIP3    H125025   5.815   4.925  14.294 -0.9609 -0.1277 -1.2086
 1178TIP3    H225026   5.815   5.029  14.184 -1.0831  0.4824 -0.6361
 1179TIP3   OH225027   4.460   4.204  11.299  0.4061 -0.0276  0.6511
 1179TIP3    H125028   4.485   4.293  11.276 -0.2818  0.1655  0.6062
 1179TIP3    H225029   4.375   4.191  11.256 -0.5311  0.0591  2.3704
 1180TIP3   OH225030   3.468   4.582   0.924  0.2426 -0.7481  0.7262
 1180TIP3    H125031   3.557   4.562   0.895  0.0253 -0.4332 -0.1642
 1180TIP3    H225032   3.439   4.654   0.868 -0.3852 -0.4884  1.3619
 1181TIP3   OH225033   3.807   5.061  13.239  0.0646  0.2278 -0.0689
 1181TIP3    H125034   3.825   5.046  13.146  2.4090 -0.4963  0.4258
 1181TIP3    H225035   3.847   4.986  13.283 -1.3570  0.3555  1.5149
 1182TIP3   OH225036   2.420   2.372   1.811  0.4544 -0.2237  0.9449
 1182TIP3    H125037   2.326   2.374   1.795  0.6748 -1.1189 -0.7745
 1182TIP3    H225038   2.431   2.404   1.901 -1.2703  2.0418  0.4221
 1183TIP3   OH225039   5.867   2.090   1.825 -0.4592  0.0185 -0.5513
 1183TIP3    H125040   5.850   2.129   1.911  1.3739 -0.9203  0.3048
 1183TIP3    H225041   5.879   2.165   1.767 -1.0648  0.6801  0.1485
 1184TIP3   OH225042   4.269   1.662  11.682 -0.0914  0.4124  0.5241
 1184TIP3    H125043   4.316   1.679  11.601 -0.4284  0.6844  0.3827
 1184TIP3    H225044   4.324   1.600  11.730  0.1975  0.3972  0.1709
 1185TIP3   OH225045   4.760   2.598   0.028  0.6334 -0.0030  0.6926
 1185TIP3    H125046   4.749   2.565  -0.061 -2.1148  0.0486  0.9409
 1185TIP3    H225047   4.780   2.521   0.081  1.2912 -0.1723  0.2155
 1186TIP3   OH225048   3.659   1.868  15.757  0.0546  0.0753  0.3511
 1186TIP3    H125049   3.628   1.856  15.667 -0.2352  1.3645  0.2591
 1186TIP3    H225050   3.752   1.891  15.747  0.5771 -1.8533  0.5171
 1187TIP3   OH225051   2.230   5.795  11.302  0.1120 -0.0763  0.1266
 1187TIP3    H125052   2.202   5.885  11.290 -1.6724 -0.3356  1.8319
 1187TIP3    H225053   2.266   5.769  11.217  0.0420  1.9966 -0.5900
 1188TIP3   OH225054   1.283   5.609  17.145 -0.1662 -0.3224 -0.3712
 1188TIP3    H125055   1.327   5.691  17.168  1.9241 -1.6940  0.9989
 1188TIP3    H225056   1.194   5.634  17.122  0.3755  2.2944  0.0906
 1189TIP3   OH225057   5.408   5.384   4.225 -0.5702  0.2033 -0.2375
 1189TIP3    H125058   5.320   5.416   4.205 -0.4876  0.4777 -0.1581
 1189TIP3    H225059   5.436   5.340   4.144 -0.5145  0.6982 -0.4880
 1190TIP3   OH225060   4.259   3.456  12.369 -0.7328 -0.0550 -0.0401
 1190TIP3    H125061   4.245   3.362  12.373 -1.9301  0.0485 -1.4445
 1190TIP3    H225062   4.346   3.466  12.330 -1.3485 -0.5641 -1.5723
 1191TIP3   OH225063   5.646   6.029  13.232  0.5421  0.1938 -0.5472
 1191TIP3    H125064   5.579   5.984  13.282  0.5674 -2.4854 -2.6396
 1191TIP3    H225065   5.698   6.076  13.297 -1.9414  0.4921  1.3590
 1192TIP3   OH225066   1.617   0.075   2.941  0.7933 -0.7118  0.1290
 1192TIP3    H125067   1.536   0.062   2.892  1.5839 -1.0115 -1.1423
 1192TIP3    H225068   1.588   0.113   3.025 -0.5526  0.4458 -0.7972
 1193TIP3   OH225069   2.781   3.793  13.535  0.0196 -0.1083  0.1608
 1193TIP3    H125070   2.867   3.785  13.576 -0.1710 -1.4561  0.3668
 1193TIP3    H225071   2.719   3.767  13.603 -0.4840 -0.0312 -0.2575
 1194TIP3   OH225072   6.208   4.318   2.717  0.2990 -0.2454  0.0857
 1194TIP3    H125073   6.205   4.349   2.626  0.0216 -0.3945  0.0418
 1194TIP3    H225074   6.178   4.227   2.712 -1.9167  0.4057  0.6219
 1195TIP3   OH225075   1.261   5.291   1.435 -1.1502 -0.1050 -0.1509
 1195TIP3    H125076   1.180   5.242   1.446 -1.1232 -0.2380 -0.5242
 1195TIP3    H225077   1.254   5.364   1.497 -1.3655 -0.3552  0.1168
 1196TIP3   OH225078   4.915   6.627   0.498 -0.0846 -1.3003  0.0526
 1196TIP3    H125079   4.825   6.656   0.484  0.0811 -0.3557  0.8142
 1196TIP3    H225080   4.966   6.677   0.435  0.2756  0.6343  1.7557
 1197TIP3   OH225081   4.937   5.015  14.464 -0.6267 -0.0479  0.1429
 1197TIP3    H125082   5.024   5.023  14.426 -0.6918 -0.6067 -0.1221
 1197TIP3    H225083   4.948   5.046  14.554 -0.2095  0.1135  0.0417
 1198TIP3   OH225084   0.873   6.748  16.339  0.3294  0.3032 -0.1701
 1198TIP3    H125085   0.848   6.656  16.349 -1.9123  0.9550  1.2168
 1198TIP3    H225086   0.921   6.752  16.257  0.9274 -2.1736 -0.0103
 1199TIP3   OH225087   3.167   6.807  15.577 -0.4142 -0.4525  0.1092
 1199TIP3    H125088   3.232   6.835  15.641 -1.0154  2.3186 -0.3487
 1199TIP3    H225089   3.219   6.787  15.499  0.0012  1.8921 -0.3091
 1200TIP3   OH225090   2.140   1.241   2.094  0.2897  0.4035 -0.3985
 1200TIP3    H125091   2.047   1.260   2.109  0.5854  1.2129  0.5286
 1200TIP3    H225092   2.169   1.200   2.176  0.6745 -0.1693 -0.8122
 1201TIP3   OH225093   5.328   6.632   4.800  0.1080 -0.2920  0.5307
 1201TIP3    H125094   5.313   6.541   4.825 -0.7172  0.0335  1.2814
 1201TIP3    H225095   5.246   6.659   4.757 -0.8466  0.9111  2.8687
 1202TIP3   OH225096   1.928   3.328  14.918 -0.2099 -0.0692  0.0836
 1202TIP3    H125097   1.912   3.234  14.923 -0.3110  0.0145  2.2678
 1202TIP3    H225098   1.843   3.368  14.938 -0.1167  0.4889 -0.6118
 1203TIP3   OH225099   5.161   3.490   4.102 -0.4228 -0.3151  0.4620
 1203TIP3    H125100   5.234   3.507   4.163 -0.0540 -0.3625  0.0422
 1203TIP3    H225101   5.142   3.576   4.064 -0.7260 -0.2664  0.7238
 1204TIP3   OH225102   0.675   0.610  12.901  0.2499 -0.2014  0.1117
 1204TIP3    H125103   0.628   0.678  12.948 -0.9186 -1.1736  0.4134
 1204TIP3    H225104   0.684   0.539  12.964  1.0243 -0.5201 -0.3354
 1205TIP3   OH225105   6.467   2.304   3.410 -0.3391 -0.1322 -0.5594
 1205TIP3    H125106   6.505   2.392   3.421  0.0402 -0.5290  1.9347
 1205TIP3    H225107   6.375   2.321   3.387 -0.5663  0.9748  0.9819
 1206TIP3   OH225108   0.294   0.850  13.184  0.2291  0.0847 -0.0947
 1206TIP3    H125109   0.270   0.939  13.210  1.1591  0.6293 -1.0538
 1206TIP3    H225110   0.389   0.850  13.181  0.2958 -1.2411  0.8723
 1207TIP3   OH225111   5.963   0.415   0.427  0.1098  0.2863 -0.4517
 1207TIP3    H125112   5.956   0.416   0.331  0.4126 -1.1149 -0.5057
 1207TIP3    H225113   6.033   0.477   0.447 -0.1653  0.8225 -1.1102
 1208TIP3   OH225114   1.395   0.053  13.356 -0.4911 -0.6386 -0.6790
 1208TIP3    H125115   1.371   0.144  13.343 -1.5799 -0.8153 -0.0151
 1208TIP3    H225116   1.362   0.032  13.443  0.0377 -1.5730 -0.6932
 1209TIP3   OH225117   6.339   4.503  17.224 -0.3910 -0.2699  0.0519
 1209TIP3    H125118   6.340   4.554  17.143 -0.6825 -1.6646 -0.8769
 1209TIP3    H225119   6.428   4.467  17.230  0.1794  1.2721  1.3458
 1210TIP3   OH225120   1.186   4.084  11.711  0.4642  0.5622  0.6046
 1210TIP3    H125121   1.152   4.001  11.677 -0.6799  0.0803  2.7029
 1210TIP3    H225122   1.129   4.151  11.672 -0.0578  0.1403  0.6307
 1211TIP3   OH225123   5.791   0.923  10.816 -0.3679  0.5894  0.0855
 1211TIP3    H125124   5.698   0.941  10.824 -0.6950 -0.4542 -1.1457
 1211TIP3    H225125   5.804   0.899  10.725  0.9793 -0.0053  0.4003
 1212TIP3   OH225126   0.036   2.896   5.494 -0.2410 -0.0067  0.5045
 1212TIP3    H125127   0.002   2.985   5.490  1.9328  0.8005 -2.1889
 1212TIP3    H225128  -0.014   2.856   5.566 -3.0665  2.5619  0.2050
 1213TIP3   OH225129   3.435   1.935  11.735  0.1003  0.0816 -0.1027
 1213TIP3    H125130   3.459   1.976  11.819 -0.3802  1.3846 -0.5686
 1213TIP3    H225131   3.341   1.952  11.726 -0.1959 -1.4628 -0.1728
 1214TIP3   OH225132   0.405   1.532   1.694  0.1609 -0.2712 -0.3949
 1214TIP3    H125133   0.328   1.556   1.745 -0.1303 -1.3319 -0.3144
 1214TIP3    H225134   0.401   1.589   1.617 -0.4848 -0.0464 -0.2012
 1215TIP3   OH225135   0.881   3.226   4.043 -0.1266  0.6876  0.3024
 1215TIP3    H125136   0.942   3.258   4.109 -1.6767  0.4708  1.9212
 1215TIP3    H225137   0.830   3.303   4.017 -2.9289  0.0505  3.1979
 1216TIP3   OH225138   5.639   3.629  15.528 -0.1322  0.4547 -0.1727
 1216TIP3    H125139   5.718   3.657  15.573 -0.3358  3.2363 -1.3183
 1216TIP3    H225140   5.662   3.546  15.487  1.7804  0.5979  0.5217
 1217TIP3   OH225141   0.819   4.771   0.453 -0.1816  0.0398 -0.2570
 1217TIP3    H125142   0.797   4.681   0.478 -0.5904  0.3153  0.3992
 1217TIP3    H225143   0.778   4.783   0.367  2.2446 -1.3173 -1.7060
 1218TIP3   OH225144   6.317   0.728  14.078  0.5893  0.3598 -0.5908
 1218TIP3    H125145   6.262   0.690  14.009 -0.3212  1.1452 -0.3204
 1218TIP3    H225146   6.267   0.716  14.158  2.0201 -1.3291  0.1180
 1219TIP3   OH225147   6.019   0.227  14.581 -0.3328  0.0305  0.1726
 1219TIP3    H125148   6.074   0.305  14.568  0.4323 -0.2235  1.6491
 1219TIP3    H225149   6.012   0.219  14.676 -0.5982 -1.5769  0.0365
 1220TIP3   OH225150   4.470   5.499   5.280  0.0577 -0.4871  0.3104
 1220TIP3    H125151   4.488   5.448   5.358  0.5816 -3.7978 -1.7928
 1220TIP3    H225152   4.556   5.536   5.256 -0.0620  0.3504  1.1063
 1221TIP3   OH225153   0.667   1.480  13.578  0.5446  0.5754 -0.2354
 1221TIP3    H125154   0.624   1.434  13.506  1.9354  0.5037 -1.0499
 1221TIP3    H225155   0.720   1.548  13.536 -0.8979  2.4936  0.9041
 1222TIP3   OH225156   5.076   6.353  14.057  0.1448 -0.6369 -0.3873
 1222TIP3    H125157   5.103   6.398  14.137  0.4849 -1.7323  0.1343
 1222TIP3    H225158   5.034   6.272  14.088  0.8366 -1.3755 -1.3138
 1223TIP3   OH225159   1.652   2.270   1.511 -0.1191 -0.1055  1.0851
 1223TIP3    H125160   1.670   2.184   1.474  0.1089 -0.5486  2.1979
 1223TIP3    H225161   1.596   2.253   1.587 -0.9120  0.8180  0.7431
 1224TIP3   OH225162   2.972   6.681  16.236 -0.1915 -0.1293  0.0798
 1224TIP3    H125163   2.956   6.756  16.293  0.2045  0.1948 -0.2274
 1224TIP3    H225164   3.039   6.630  16.283 -0.6923 -0.4677  0.4415
 1225TIP3   OH225165   2.107   3.157  17.025 -0.0721  0.0302  0.5284
 1225TIP3    H125166   2.039   3.213  16.987  0.4072 -0.3877 -1.0173
 1225TIP3    H225167   2.059   3.084  17.064 -0.6385  1.0001  1.7186
 1226TIP3   OH225168   2.162   4.885  15.167  0.3164  0.3325  0.4362
 1226TIP3    H125169   2.201   4.959  15.121 -1.6647  1.1195 -0.0869
 1226TIP3    H225170   2.131   4.827  15.098  0.6004 -0.3074  0.8353
 1227TIP3   OH225171   2.396   2.157  11.512 -0.2495  0.1787 -0.2030
 1227TIP3    H125172   2.419   2.232  11.458 -0.9682  0.0126 -0.7527
 1227TIP3    H225173   2.450   2.086  11.479  2.0270  0.8890  1.6881
 1228TIP3   OH225174   6.739   6.176   0.577 -0.4050  0.5381 -0.1880
 1228TIP3    H125175   6.794   6.169   0.499  0.8027 -0.7722  0.7230
 1228TIP3    H225176   6.649   6.176   0.544 -0.0229 -2.2215 -1.5063
 1229TIP3   OH225177   4.122   4.252  12.237  0.3821 -0.9635  0.5333
 1229TIP3    H125178   4.111   4.157  12.240  0.7694 -1.0897 -1.1884
 1229TIP3    H225179   4.195   4.266  12.176  1.5316  0.3716  2.0994
 1230TIP3   OH225180   1.653   0.566   1.499 -0.4116 -0.1796 -0.0742
 1230TIP3    H125181   1.562   0.543   1.517 -1.0107  1.5889 -0.6133
 1230TIP3    H225182   1.694   0.571   1.586 -0.6151 -1.6559  0.1370
 1231TIP3   OH225183   3.520   0.109  15.476 -0.5585 -0.9773 -0.1314
 1231TIP3    H125184   3.605   0.066  15.469 -0.4680 -1.0503  1.1711
 1231TIP3    H225185   3.538   0.202  15.458 -0.1732 -0.9696  0.2938
 1232TIP3   OH225186   5.072   3.941   0.810 -0.6326 -0.4825 -0.0583
 1232TIP3    H125187   5.120   4.008   0.761  1.7264 -0.7071  1.7678
 1232TIP3    H225188   5.082   3.862   0.757 -1.3257  0.0360 -1.0045
 1233TIP3   OH225189   1.625   6.276   2.610 -0.0204 -0.1781  0.0212
 1233TIP3    H125190   1.592   6.211   2.672 -0.6134 -0.5951 -0.7168
 1233TIP3    H225191   1.640   6.354   2.664  0.0037 -0.6964  0.7855
 1234TIP3   OH225192   2.054   1.039  10.820  0.0460 -0.5190  0.1495
 1234TIP3    H125193   1.964   1.073  10.815 -0.7340 -2.1418  1.9376
 1234TIP3    H225194   2.045   0.945  10.806  1.9509 -0.3730 -3.0558
 1235TIP3   OH225195   1.367   1.547  12.345  0.1021  0.0079 -0.3301
 1235TIP3    H125196   1.459   1.520  12.352  0.2843  0.3977 -1.0846
 1235TIP3    H225197   1.331   1.532  12.432  1.3398  1.5913  0.5079
 1236TIP3   OH225198   0.259   3.715  13.479 -0.7320 -0.3639  0.1421
 1236TIP3    H125199   0.288   3.703  13.570  0.0525  0.4856  0.0193
 1236TIP3    H225200   0.320   3.779  13.443 -0.6267 -1.1853 -1.1894
 1237TIP3   OH225201   3.243   0.930  13.397  0.3417  0.3149  0.1808
 1237TIP3    H125202   3.337   0.944  13.388  0.4094 -0.4834 -0.5456
 1237TIP3    H225203   3.231   0.837  13.375 -0.6503  0.4962 -0.0931
 1238TIP3   OH225204   5.125   1.204  12.431 -0.3427  0.2314 -0.2884
 1238TIP3    H125205   5.141   1.215  12.338 -0.8015  1.3950 -0.2419
 1238TIP3    H225206   5.204   1.239  12.474 -0.1583 -0.2450 -0.2316
 1239TIP3   OH225207   1.080   5.759   5.536  0.4318  0.3963  0.1167
 1239TIP3    H125208   1.039   5.845   5.528 -0.2855  0.0617  0.0944
 1239TIP3    H225209   1.166   5.770   5.496 -0.2490  0.6923 -1.3505
 1240TIP3   OH225210   6.302   0.700  12.026  0.8522 -0.7841  0.1435
 1240TIP3    H125211   6.296   0.646  11.947 -0.8982 -1.2672  0.5698
 1240TIP3    H225212   6.227   0.759  12.020  0.5484 -1.0032  1.5620
 1241TIP3   OH225213   1.961   6.710  15.186 -0.6633  0.2287  0.4319
 1241TIP3    H125214   1.920   6.783  15.233 -1.6750  0.3214 -0.5389
 1241TIP3    H225215   2.044   6.747  15.155 -1.2593  1.0741 -0.2373
 1242TIP3   OH225216   1.470   4.974  12.498 -0.6212  0.3571 -0.3619
 1242TIP3    H125217   1.521   5.054  12.510  0.3770  0.3002 -3.4303
 1242TIP3    H225218   1.490   4.921  12.575  0.8420  1.9368  0.4201
 1243TIP3   OH225219   4.074   1.636   1.709 -0.3979 -0.2827  0.3857
 1243TIP3    H125220   4.024   1.573   1.760 -2.4126 -0.6112 -1.8213
 1243TIP3    H225221   4.026   1.644   1.626  1.2977  2.0953 -0.4935
 1244TIP3   OH225222   0.535   4.722  14.374  0.1442  0.4241  0.3489
 1244TIP3    H125223   0.566   4.805  14.338  1.0087  0.3332  0.8555
 1244TIP3    H225224   0.511   4.670  14.298 -0.0143  0.9860  0.0094
 1245TIP3   OH225225   5.355   5.680   3.935 -0.2501  0.2379  0.0343
 1245TIP3    H125226   5.389   5.633   3.859  0.0533  0.5444 -0.0215
 1245TIP3    H225227   5.432   5.697   3.989 -0.5476 -0.5547  0.7378
 1246TIP3   OH225228   6.112   5.745   0.759  0.7554  0.0618 -0.1920
 1246TIP3    H125229   6.087   5.686   0.687  0.3058  0.8745 -0.7215
 1246TIP3    H225230   6.039   5.806   0.766  1.4819  0.9288 -0.0518
 1247TIP3   OH225231   0.280   0.100  13.992 -0.1419  0.3392  0.4205
 1247TIP3    H125232   0.289   0.135  14.080 -1.3032 -0.2199  0.7829
 1247TIP3    H225233   0.218   0.027  14.001  1.4359 -1.1990 -0.4755
 1248TIP3   OH225234   1.166   6.047  15.287  0.0093  0.1068  0.6094
 1248TIP3    H125235   1.242   6.080  15.239  1.0293  2.2881  3.4375
 1248TIP3    H225236   1.190   5.958  15.311 -0.0680 -0.6429 -1.8189
 1249TIP3   OH225237   6.388   0.706  11.617 -0.2408  0.7069 -0.4673
 1249TIP3    H125238   6.463   0.689  11.560 -0.2567  1.0675 -0.5985
 1249TIP3    H225239   6.379   0.626  11.669  0.2197  0.6538 -0.4659
 1250TIP3   OH225240   3.594   5.463  12.133  0.2196  0.2533 -0.0197
 1250TIP3    H125241   3.579   5.426  12.046  1.9860  0.4483 -0.4280
 1250TIP3    H225242   3.527   5.531  12.142  0.2968  0.5413 -1.4106
 1251TIP3   OH225243   0.508   5.263  14.271  0.6270  0.3011 -0.6207
 1251TIP3    H125244   0.540   5.352  14.286  0.8628  0.2523 -0.8178
 1251TIP3    H225245   0.574   5.224  14.213  2.1080 -0.9344  1.7285
 1252TIP3   OH225246   0.821   0.350  16.341 -0.0447 -0.4084 -0.2022
 1252TIP3    H125247   0.786   0.409  16.274 -0.9069 -0.0822  0.5178
 1252TIP3    H225248   0.751   0.287  16.356 -1.3684  1.5851  2.8985
 1253TIP3   OH225249   0.124   1.925   1.753 -0.9785 -0.1378  0.1863
 1253TIP3    H125250   0.209   1.968   1.768 -1.5044  0.8997  0.2813
 1253TIP3    H225251   0.079   1.929   1.837 -0.3003 -2.6720  0.7588
 1254TIP3   OH225252   2.723   3.932   4.953 -0.0562 -0.8504 -0.2930
 1254TIP3    H125253   2.649   3.875   4.933  1.5764 -2.9790 -0.5997
 1254TIP3    H225254   2.793   3.901   4.896  1.7202 -0.3248  1.4900
 1255TIP3   OH225255   3.552   5.787   1.327  0.1408  0.3050 -0.1121
 1255TIP3    H125256   3.599   5.853   1.377 -1.0026  1.7076 -0.8391
 1255TIP3    H225257   3.521   5.724   1.392 -1.9829  2.4813  1.1124
 1256TIP3   OH225258   5.459   1.360  11.947  0.0360 -0.0994 -0.2188
 1256TIP3    H125259   5.546   1.323  11.930  0.6242  1.0782  0.1418
 1256TIP3    H225260   5.415   1.357  11.862  1.5410  2.1162 -1.1463
 1257TIP3   OH225261   2.156   3.429   4.574 -0.3681  0.2721  0.2382
 1257TIP3    H125262   2.251   3.420   4.563 -0.1800  2.5929 -0.4267
 1257TIP3    H225263   2.120   3.356   4.524  1.0553 -1.0974  1.1059
 1258TIP3   OH225264   4.563   5.753  15.640  0.0969 -0.3635 -0.5507
 1258TIP3    H125265   4.468   5.745  15.648  0.3251 -2.9878  0.1317
 1258TIP3    H225266   4.583   5.717  15.553  0.6042 -1.2349 -0.0776
 1259TIP3   OH225267   1.011   2.259  11.335  0.1357  0.0585 -0.2961
 1259TIP3    H125268   1.072   2.287  11.267  1.3652 -0.8188  0.4044
 1259TIP3    H225269   1.067   2.221  11.403 -0.7439  3.3167  2.4888
 1260TIP3   OH225270   5.638   3.120  16.730  0.2271  0.0440  0.1018
 1260TIP3    H125271   5.661   3.168  16.650 -0.9223 -0.5932 -0.6472
 1260TIP3    H225272   5.700   3.048  16.734  0.1947 -0.0071 -0.2965
 1261TIP3   OH225273   5.554   0.100  12.837  0.2933  0.3291 -0.1056
 1261TIP3    H125274   5.510   0.024  12.876  0.1919 -0.0272 -0.8964
 1261TIP3    H225275   5.590   0.067  12.755  0.2205  1.1490 -0.4755
 1262TIP3   OH225276   2.406   2.445  17.027  0.1815 -0.5605  0.4086
 1262TIP3    H125277   2.443   2.519  16.980 -0.3845  0.8516  2.0874
 1262TIP3    H225278   2.447   2.368  16.987  0.4280  0.5910 -1.7070
 1263TIP3   OH225279   6.216   2.551  14.828  0.6059 -0.2782 -0.5078
 1263TIP3    H125280   6.266   2.589  14.900  2.0549 -0.4140 -1.4185
 1263TIP3    H225281   6.160   2.622  14.797  2.0873  0.6706 -1.1131
 1264TIP3   OH225282   6.360   1.103   3.644 -0.3413 -0.1079  0.0365
 1264TIP3    H125283   6.347   1.166   3.714 -1.3364  0.5542 -0.7058
 1264TIP3    H225284   6.276   1.057   3.637 -0.0661 -0.5700 -0.3437
 1265TIP3   OH225285   3.878   6.386   4.422 -0.7207 -0.6567 -0.3940
 1265TIP3    H125286   3.913   6.463   4.465 -0.9149 -0.9845  0.3695
 1265TIP3    H225287   3.808   6.420   4.365 -1.1357 -0.3209  0.3055
 1266TIP3   OH225288   1.942   6.183   2.214 -0.1185  0.3716 -0.9629
 1266TIP3    H125289   1.851   6.183   2.184 -0.0689 -0.5646 -1.1497
 1266TIP3    H225290   1.946   6.113   2.279  0.4773  0.3739 -0.9914
 1267TIP3   OH225291   6.037   3.120   3.742  0.1467  0.3715  0.4036
 1267TIP3    H125292   6.033   3.057   3.814 -0.4114  0.2070  0.2353
 1267TIP3    H225293   5.947   3.153   3.734  1.0487  4.2283  3.1307
 1268TIP3   OH225294   1.592   6.297  12.404  0.9784  0.0418 -0.5161
 1268TIP3    H125295   1.550   6.223  12.361  1.3790 -0.1755 -0.5425
 1268TIP3    H225296   1.520   6.355  12.429  0.6197 -0.5705 -0.0900
 1269TIP3   OH225297   6.370   3.724  16.692 -0.4746  0.0572 -0.4723
 1269TIP3    H125298   6.385   3.819  16.698 -1.0232  0.0922  0.6876
 1269TIP3    H225299   6.324   3.702  16.773  3.5776 -1.9581  1.5893
 1270TIP3   OH225300   2.735   4.664   0.821  0.1226  0.5455  0.4577
 1270TIP3    H125301   2.776   4.693   0.902  1.7449  0.5462 -0.3141
 1270TIP3    H225302   2.807   4.662   0.757 -0.8354 -0.6919 -0.6557
 1271TIP3   OH225303   2.217   1.159   0.209  0.0613 -0.3240  0.0888
 1271TIP3    H125304   2.190   1.130   0.297  0.6439  0.8498  0.6688
 1271TIP3    H225305   2.193   1.251   0.205  0.2079 -0.3148 -0.9319
 1272TIP3   OH225306   4.335   1.976   1.613 -0.0528  0.1867 -0.8329
 1272TIP3    H125307   4.292   2.061   1.606 -1.1839 -0.1973  0.8372
 1272TIP3    H225308   4.294   1.923   1.545 -1.0136  0.3444 -0.4010
 1273TIP3   OH225309   2.437   2.393  15.288 -0.4870 -0.0122  0.7699
 1273TIP3    H125310   2.451   2.302  15.317 -0.4070  0.1899  1.3821
 1273TIP3    H225311   2.409   2.385  15.197  1.3001 -0.5592  0.2217
 1274TIP3   OH225312   2.195   0.013  15.713 -1.1374 -0.6775  0.1992
 1274TIP3    H125313   2.151   0.099  15.713  1.4648  0.8838 -2.7674
 1274TIP3    H225314   2.252   0.016  15.789 -0.5737  0.5947 -0.2378
 1275TIP3   OH225315   4.749   1.951  11.858 -0.6393 -0.6283  0.1777
 1275TIP3    H125316   4.655   1.957  11.876 -0.3205 -1.4847  2.4272
 1275TIP3    H225317   4.783   2.038  11.880 -1.1401  0.5605 -3.0618
 1276TIP3   OH225318   2.485   4.039   1.668  0.5492 -0.1742  0.0002
 1276TIP3    H125319   2.424   4.057   1.597  2.4301  1.2879 -1.3417
 1276TIP3    H225320   2.572   4.057   1.631  1.6943 -0.5959  2.2945
 1277TIP3   OH225321   6.602   3.178  11.668  0.1264  0.8144 -0.0662
 1277TIP3    H125322   6.653   3.237  11.613  1.8652  0.9305  1.5579
 1277TIP3    H225323   6.616   3.091  11.631  0.0285  1.0613 -0.6850
 1278TIP3   OH225324   4.670   6.090   4.147  0.1710  0.6382  0.2054
 1278TIP3    H125325   4.745   6.090   4.087 -0.2395  0.0792 -0.3172
 1278TIP3    H225326   4.685   6.166   4.204 -0.1629  2.0795 -1.5183
 1279TIP3   OH225327   5.934   0.826   1.347 -0.1952 -0.3553 -0.2425
 1279TIP3    H125328   5.865   0.853   1.407 -1.0407 -1.7151 -0.5641
 1279TIP3    H225329   6.008   0.805   1.404 -0.8993 -1.3599  0.3289
 1280TIP3   OH225330   1.295   5.815   2.011  0.0537  0.0852 -0.2591
 1280TIP3    H125331   1.365   5.772   1.962 -0.2962  0.0474 -0.7322
 1280TIP3    H225332   1.220   5.756   2.002  0.6113 -1.1845  2.3641
 1281TIP3   OH225333   1.741   2.242  11.301  0.6975  0.1582 -0.1842
 1281TIP3    H125334   1.810   2.207  11.358  1.2441  2.8444  0.9463
 1281TIP3    H225335   1.778   2.321  11.263 -0.6090 -0.1735 -2.3161
 1282TIP3   OH225336   6.276   0.560  11.284 -0.3058 -0.1101  0.8086
 1282TIP3    H125337   6.265   0.529  11.194  0.2166  0.0063  0.6981
 1282TIP3    H225338   6.204   0.621  11.297 -0.6273 -0.4442  0.6121
 1283TIP3   OH225339   4.854   4.278  16.381 -0.0460 -0.6326 -0.3484
 1283TIP3    H125340   4.794   4.204  16.372 -0.1582 -0.4070 -1.6770
 1283TIP3    H225341   4.878   4.279  16.474 -2.0012 -0.7848  0.1957
 1284TIP3   OH225342   0.906   3.644   4.929 -0.1646 -0.0532 -0.2066
 1284TIP3    H125343   0.905   3.716   4.993  0.1117 -1.1225  1.0630
 1284TIP3    H225344   0.824   3.598   4.944  0.6313 -1.2758  0.5623
 1285TIP3   OH225345   4.078   1.665  16.542  0.0244  0.0911  0.2576
 1285TIP3    H125346   4.014   1.735  16.530  0.3595  0.4710  0.6312
 1285TIP3    H225347   4.027   1.584  16.534 -0.3872  0.3792 -0.0618
 1286TIP3   OH225348   4.069   4.429   4.490  0.1533 -0.3716  0.3094
 1286TIP3    H125349   4.152   4.425   4.538 -0.4398 -1.0270  1.3003
 1286TIP3    H225350   4.082   4.500   4.426  1.4961 -0.5129  0.3908
 1287TIP3   OH225351   4.362   6.085   1.860 -0.1679 -0.3443  0.1787
 1287TIP3    H125352   4.456   6.095   1.871 -0.1687  0.9150 -0.8026
 1287TIP3    H225353   4.326   6.100   1.947  0.4424  0.6260  0.2795
 1288TIP3   OH225354   1.770   6.370   3.538  0.3296 -0.0696  0.1843
 1288TIP3    H125355   1.842   6.307   3.537 -0.4290 -0.9479 -0.0730
 1288TIP3    H225356   1.797   6.438   3.476 -0.3501 -1.9001 -2.2399
 1289TIP3   OH225357   1.482   6.599   4.289  0.4390 -0.2579  0.6910
 1289TIP3    H125358   1.424   6.585   4.364 -0.1157  1.4722  0.6275
 1289TIP3    H225359   1.503   6.510   4.258 -0.8947 -0.9530  1.6819
 1290TIP3   OH225360   4.984   3.916  15.733 -0.0499  0.5443 -0.3968
 1290TIP3    H125361   4.891   3.908  15.755 -0.3837 -0.0071 -1.9313
 1290TIP3    H225362   5.025   3.841  15.777 -0.5152  0.1326 -0.6465
 1291TIP3   OH225363   5.446   3.768  15.389  0.1108  0.0926 -0.3954
 1291TIP3    H125364   5.488   3.787  15.305  0.4102  2.8182  0.2678
 1291TIP3    H225365   5.514   3.725  15.441  0.3467 -0.3721 -1.0700
 1292TIP3   OH225366   0.545   2.039   4.763  0.0943 -0.1581  0.5027
 1292TIP3    H125367   0.472   1.992   4.803  0.1803  0.1215  0.9979
 1292TIP3    H225368   0.623   1.988   4.788  0.0268 -0.7806 -0.5070
 1293TIP3   OH225369   1.482   2.977   2.808  0.5490  0.0619  0.1154
 1293TIP3    H125370   1.543   2.947   2.741  0.2934  1.1553 -0.6295
 1293TIP3    H225371   1.537   3.019   2.874  0.8936 -1.8285  1.0890
 1294TIP3   OH225372   3.996   5.104   2.864 -0.2610  0.0264  0.2663
 1294TIP3    H125373   3.935   5.046   2.818 -1.2215 -0.3957  1.9665
 1294TIP3    H225374   4.080   5.059   2.860 -1.0103 -1.5941  1.6243
 1295TIP3   OH225375   5.002   4.121   5.923 -0.6457  0.1670  0.0155
 1295TIP3    H125376   4.974   4.168   6.001 -2.7772  0.4364 -0.8432
 1295TIP3    H225377   4.981   4.029   5.941  0.4000 -0.0140  0.3779
 1296TIP3   OH225378   2.192   3.976  12.385  0.0344 -0.3668  0.3482
 1296TIP3    H125379   2.168   4.069  12.392  2.2373  0.5450 -2.1943
 1296TIP3    H225380   2.265   3.966  12.446 -0.7554 -0.6817  1.2556
 1297TIP3   OH225381   4.541   5.750  13.573  0.3480 -0.1950 -0.6529
 1297TIP3    H125382   4.470   5.686  13.577  0.8686 -0.7747 -0.4148
 1297TIP3    H225383   4.621   5.697  13.581  0.8061  0.4371 -0.9979
 1298TIP3   OH225384   3.978   2.189  12.202  0.7905 -0.1670  0.1038
 1298TIP3    H125385   4.027   2.123  12.153 -0.9722 -3.5270  2.4043
 1298TIP3    H225386   3.894   2.195  12.157  1.3139  1.4904 -0.7350
 1299TIP3   OH225387   4.565   3.262  12.916  0.8622  0.5815 -0.1851
 1299TIP3    H125388   4.616   3.184  12.938 -1.0065 -1.2221 -1.8449
 1299TIP3    H225389   4.510   3.277  12.992  0.5832 -0.2947 -0.2015
 1300TIP3   OH225390   3.609   3.494   4.790 -0.1211  0.6494 -0.7817
 1300TIP3    H125391   3.672   3.523   4.724 -1.4480  3.3110 -0.9732
 1300TIP3    H225392   3.622   3.399   4.793  2.7687  0.8813 -1.9287
 1301TIP3   OH225393   1.261   0.780   5.793 -0.2709  0.1857 -0.3564
 1301TIP3    H125394   1.353   0.773   5.817 -0.2878 -1.9940 -0.7237
 1301TIP3    H225395   1.259   0.758   5.700 -1.2829 -1.1369 -0.0473
 1302TIP3   OH225396   2.052   5.126   0.431 -0.8531 -0.5869  0.0207
 1302TIP3    H125397   2.089   5.191   0.491 -1.2711 -1.3570  1.1679
 1302TIP3    H225398   1.959   5.122   0.454 -0.9742 -1.0753 -0.5248
 1303TIP3   OH225399   4.087   4.950  14.188 -0.5573 -0.0690 -0.5493
 1303TIP3    H125400   4.120   4.966  14.277 -2.7700  0.6742  0.2034
 1303TIP3    H225401   4.071   5.037  14.152 -1.3604 -0.3962 -1.0045
 1304TIP3   OH225402   3.555   0.357  13.126  0.1408  0.0276 -0.5903
 1304TIP3    H125403   3.647   0.355  13.151  0.1035 -2.9087 -0.2995
 1304TIP3    H225404   3.556   0.368  13.031  0.9697 -2.2296 -0.8980
 1305TIP3   OH225405   2.017   5.648  13.036  0.2222  0.3934 -0.1023
 1305TIP3    H125406   2.017   5.555  13.015 -1.7443  0.4974 -0.8191
 1305TIP3    H225407   1.990   5.652  13.128 -3.1173  0.2697 -0.9328
 1306TIP3   OH225408   2.347   0.603  14.276 -0.3290  0.0454 -0.0125
 1306TIP3    H125409   2.434   0.633  14.303 -0.7741  2.3705 -0.8864
 1306TIP3    H225410   2.355   0.589  14.182 -1.0022  0.8451 -0.2019
 1307TIP3   OH225411   4.555   4.373  12.607  0.4738 -0.2854  0.0595
 1307TIP3    H125412   4.517   4.337  12.527  1.1440 -1.8372  0.3950
 1307TIP3    H225413   4.514   4.322  12.678 -1.3848  2.1673  0.9006
 1308TIP3   OH225414   6.455   0.112  12.016 -0.1399  0.3857  0.3666
 1308TIP3    H125415   6.533   0.126  12.070  0.2083 -1.1825  0.3228
 1308TIP3    H225416   6.386   0.093  12.080 -0.1078  0.1529  0.3307
 1309TIP3   OH225417   4.202   0.754   0.625  0.2766  0.0293 -0.2226
 1309TIP3    H125418   4.195   0.824   0.560  2.2366 -0.7385 -1.3306
 1309TIP3    H225419   4.121   0.704   0.615 -0.3592  1.1003 -0.6162
 1310TIP3   OH225420   5.153   4.312   4.437  0.3476  0.2007  0.4786
 1310TIP3    H125421   5.084   4.256   4.401 -0.5007  0.8020  1.1302
 1310TIP3    H225422   5.231   4.257   4.436 -0.4848 -1.0556  1.1874
 1311TIP3   OH225423   6.401   0.719  15.001 -0.2281 -0.2863  0.3845
 1311TIP3    H125424   6.458   0.659  14.954  0.9019  0.7596  0.3684
 1311TIP3    H225425   6.335   0.663  15.041 -0.2179 -1.3642 -1.0189
 1312TIP3   OH225426   0.644   6.722   0.342 -0.3790 -0.2509 -0.1600
 1312TIP3    H125427   0.644   6.653   0.276 -0.9803  0.1858 -0.6327
 1312TIP3    H225428   0.736   6.736   0.364 -0.1923 -0.5364 -0.7619
 1313TIP3   OH225429   4.044   1.465   3.425  0.2190  0.5016  0.4135
 1313TIP3    H125430   4.129   1.435   3.392 -0.2265 -2.0738  1.3825
 1313TIP3    H225431   3.980   1.412   3.378 -0.6853  0.3015  1.8177
 1314TIP3   OH225432   5.564   0.082  16.606 -0.2687 -0.1193  0.3604
 1314TIP3    H125433   5.485   0.133  16.591 -0.3776 -0.3172  0.2446
 1314TIP3    H225434   5.623   0.107  16.535 -1.2628 -2.0078 -1.2463
 1315TIP3   OH225435   5.873   0.642  12.023  0.5704 -0.3398  0.1268
 1315TIP3    H125436   5.820   0.711  12.062 -1.1192 -1.3233 -0.3224
 1315TIP3    H225437   5.870   0.571  12.087  0.1196 -0.9260 -0.5298
 1316TIP3   OH225438   2.911   3.753   4.011 -0.0087 -0.3982 -0.1029
 1316TIP3    H125439   2.908   3.716   3.922  0.9457  0.7639 -0.6358
 1316TIP3    H225440   2.908   3.676   4.068 -1.1285 -1.1543 -1.1054
 1317TIP3   OH225441   3.026   1.955  12.059  0.1193  0.0423  0.7467
 1317TIP3    H125442   3.087   1.887  12.088  1.1791  0.8441  0.4645
 1317TIP3    H225443   2.979   1.916  11.986  0.8935 -0.3176  0.4274
 1318TIP3   OH225444   5.869   3.189  17.192 -0.7343 -0.1291  0.4310
 1318TIP3    H125445   5.827   3.226  17.114  1.3172  0.3993 -0.4653
 1318TIP3    H225446   5.918   3.261  17.230 -1.0893 -0.5791  1.8302
 1319TIP3   OH225447   3.671   0.318   2.096  0.9071  0.4791  0.1643
 1319TIP3    H125448   3.716   0.278   2.022  0.0161  0.6570 -0.4925
 1319TIP3    H225449   3.648   0.245   2.153  1.4141  0.3191  0.1647
 1320TIP3   OH225450   2.758   5.372   0.790  0.1238  0.3256  0.3731
 1320TIP3    H125451   2.783   5.285   0.821  1.6698  1.2993  1.9988
 1320TIP3    H225452   2.840   5.414   0.767 -0.7243  0.8705 -1.9070
 1321TIP3   OH225453   0.532   4.535  14.578 -0.4338 -0.1195 -0.2016
 1321TIP3    H125454   0.454   4.582  14.610 -0.1706  0.9195 -1.0455
 1321TIP3    H225455   0.553   4.577  14.495  1.3554 -0.0217  0.2680
 1322TIP3   OH225456   2.420   3.187   5.624 -0.2886  0.4032 -0.8728
 1322TIP3    H125457   2.361   3.259   5.599 -1.6886 -0.7571 -1.0574
 1322TIP3    H225458   2.367   3.108   5.613  1.0031 -0.6179 -0.0353
 1323TIP3   OH225459   4.536   1.749  12.162 -0.0235  0.6451  0.8150
 1323TIP3    H125460   4.450   1.768  12.200 -0.1972 -0.3834  0.9591
 1323TIP3    H225461   4.563   1.667  12.204  0.4485  0.2828 -0.1655
 1324TIP3   OH225462   6.287   5.093  13.402 -0.1834 -0.3749  0.3980
 1324TIP3    H125463   6.290   4.997  13.410  0.9922 -0.3917 -0.0426
 1324TIP3    H225464   6.211   5.109  13.345 -1.2637 -0.9349  1.6062
 1325TIP3   OH225465   6.638   4.914   3.152 -0.0857  0.2315 -0.1770
 1325TIP3    H125466   6.729   4.941   3.160  0.4589 -1.7536  1.1469
 1325TIP3    H225467   6.624   4.906   3.058  1.0111  0.8292 -0.4108
 1326TIP3   OH225468   0.693   2.326   2.088  0.4008  0.7075  0.5798
 1326TIP3    H125469   0.675   2.267   2.016 -0.0538  0.9915  0.4587
 1326TIP3    H225470   0.754   2.277   2.144 -1.3444 -0.6199  1.4292
 1327TIP3   OH225471   2.605   6.314   2.651  0.2157  0.7742  0.3470
 1327TIP3    H125472   2.634   6.228   2.680 -1.7642 -0.7660 -1.9451
 1327TIP3    H225473   2.511   6.305   2.638  0.0415  3.1282 -0.5212
 1328TIP3   OH225474   2.545   6.494   1.798  0.2820 -0.3312 -0.1040
 1328TIP3    H125475   2.510   6.572   1.842  0.1979 -0.2926 -0.2371
 1328TIP3    H225476   2.639   6.506   1.799  0.4420 -1.3093  1.9019
 1329TIP3   OH225477   6.232   4.495   0.851 -0.0850  0.2279 -0.4572
 1329TIP3    H125478   6.300   4.434   0.823 -1.6870 -0.6122 -2.8075
 1329TIP3    H225479   6.192   4.453   0.926  1.2654  0.2397  0.3071
 1330TIP3   OH225480   4.584   0.503   4.406 -0.4328  0.7183  0.1097
 1330TIP3    H125481   4.589   0.520   4.500  1.1733 -0.4616  0.2825
 1330TIP3    H225482   4.516   0.437   4.397 -0.0926  0.2962  0.5549
 1331TIP3   OH225483   2.067   2.270   0.694  0.6917 -0.2608  0.0273
 1331TIP3    H125484   2.001   2.289   0.761  0.2457  0.4956 -0.6088
 1331TIP3    H225485   2.133   2.338   0.705  0.9596 -0.5339  0.1285
 1332TIP3   OH225486   5.948   6.164  15.822 -0.6576 -0.3914  0.1537
 1332TIP3    H125487   5.889   6.226  15.779  1.0654  0.2632 -1.4474
 1332TIP3    H225488   5.921   6.079  15.789 -0.2252 -0.0200 -1.2556
 1333TIP3   OH225489   2.159   1.136   5.274 -0.2761 -0.8043 -0.0222
 1333TIP3    H125490   2.124   1.189   5.345  0.6927 -2.3340  1.6720
 1333TIP3    H225491   2.085   1.084   5.245 -0.3660 -1.1735  0.8414
 1334TIP3   OH225492   5.959   6.191   6.058 -0.6421  0.2236 -0.1551
 1334TIP3    H125493   5.977   6.098   6.077 -0.1379  0.5111  0.8363
 1334TIP3    H225494   6.008   6.209   5.978  2.7496  0.6810  1.8453
 1335TIP3   OH225495   5.069   3.684   0.679  0.1104 -0.3185 -0.4499
 1335TIP3    H125496   5.135   3.659   0.743  0.6209 -0.4207 -0.9988
 1335TIP3    H225497   5.014   3.606   0.669 -1.0669  0.2667  1.1537
 1336TIP3   OH225498   1.747   0.927   3.719  0.5743 -0.5875  0.2890
 1336TIP3    H125499   1.673   0.988   3.721  0.5554 -0.5639 -0.5986
 1336TIP3    H225500   1.800   0.957   3.645  0.6455 -1.5608 -0.0694
 1337TIP3   OH225501   2.966   5.130   1.567 -0.3442 -0.3089 -0.0458
 1337TIP3    H125502   2.978   5.172   1.652 -2.2545 -1.0903  0.6665
 1337TIP3    H225503   3.035   5.064   1.562  0.2021  0.2097  0.5804
 1338TIP3   OH225504   1.436   6.271  17.173  0.3340  0.2968  0.0553
 1338TIP3    H125505   1.441   6.321  17.092  0.4415  2.4295  1.3101
 1338TIP3    H225506   1.348   6.290  17.208  0.9134  0.8510  1.2805
 1339TIP3   OH225507   6.428   0.381  17.020  0.1011  0.3442  0.2185
 1339TIP3    H125508   6.480   0.309  16.983 -0.0998  0.1871  0.2439
 1339TIP3    H225509   6.419   0.443  16.948 -1.0044 -0.3428 -0.2517
 1340TIP3   OH225510   5.210   4.546   4.273 -0.0969 -0.0157  0.2031
 1340TIP3    H125511   5.126   4.554   4.227 -0.7126 -0.6602  1.1979
 1340TIP3    H225512   5.215   4.454   4.299  1.0317 -0.0391 -0.0294
 1341TIP3   OH225513   3.598   2.606  17.005 -0.0056 -0.1165  0.4958
 1341TIP3    H125514   3.687   2.636  16.988  0.0203 -1.0234 -1.2228
 1341TIP3    H225515   3.591   2.524  16.957 -1.4731 -0.5766  1.4112
 1342TIP3   OH225516   6.400   6.343   4.334  0.0400 -0.1693  0.1742
 1342TIP3    H125517   6.426   6.330   4.243  0.2616  0.3359  0.1664
 1342TIP3    H225518   6.305   6.350   4.331 -0.0889 -1.6271  0.1565
 1343TIP3   OH225519   0.982   6.389   4.578 -0.5803  0.1831 -0.5738
 1343TIP3    H125520   0.974   6.305   4.624  0.0756  0.5335  0.1959
 1343TIP3    H225521   0.982   6.455   4.647  0.0154  0.7517 -1.1020
 1344TIP3   OH225522   3.116   2.822   1.135 -0.0109 -0.0735 -0.1773
 1344TIP3    H125523   3.164   2.857   1.060  0.2690  1.2508  0.5751
 1344TIP3    H225524   3.132   2.728   1.132  1.2891  0.1428 -0.8925
 1345TIP3   OH225525   2.225   4.767   5.553  0.5347  0.4638  0.1921
 1345TIP3    H125526   2.236   4.672   5.547  0.8004  0.5118 -0.1219
 1345TIP3    H225527   2.152   4.786   5.494 -0.1035  0.3563  0.9240
 1346TIP3   OH225528   3.512   0.168  16.229  0.2088 -0.0241 -0.0086
 1346TIP3    H125529   3.444   0.133  16.287  0.2620 -0.6181 -0.2961
 1346TIP3    H225530   3.588   0.181  16.286 -0.5309  1.9630  0.6197
 1347TIP3   OH225531   5.370   0.271  14.718  0.0740 -0.0758 -1.4213
 1347TIP3    H125532   5.432   0.339  14.744 -0.2763  0.3177 -1.6103
 1347TIP3    H225533   5.424   0.205  14.675  0.6641 -0.7397  0.2440
 1348TIP3   OH225534   0.640   3.737   0.401  0.1271  0.1322  0.1982
 1348TIP3    H125535   0.609   3.650   0.376 -2.1656  0.2828  2.1300
 1348TIP3    H225536   0.714   3.719   0.459  0.6562 -0.4497 -0.6324
 1349TIP3   OH225537   3.976   5.625  16.787  0.3032  0.2580  0.0445
 1349TIP3    H125538   4.005   5.657  16.873 -0.0153 -4.0196  2.0297
 1349TIP3    H225539   3.882   5.642  16.786  0.5561  1.7966 -0.2691
 1350TIP3   OH225540   5.226   3.204   0.889 -0.4426 -0.0894 -1.1110
 1350TIP3    H125541   5.156   3.186   0.826  0.3290 -1.3656 -1.6546
 1350TIP3    H225542   5.278   3.273   0.847 -1.6645  1.2729 -0.4445
 1351TIP3   OH225543   1.792   5.017  14.273 -0.4296  0.0482  0.1947
 1351TIP3    H125544   1.729   5.013  14.201 -0.6918 -0.8967  0.4589
 1351TIP3    H225545   1.860   4.954  14.249 -0.9336 -0.8851  1.1438
 1352TIP3   OH225546   4.644   0.918   1.185 -0.3107  0.5974  0.1636
 1352TIP3    H125547   4.585   0.842   1.188  0.7234 -0.2116  0.5028
 1352TIP3    H225548   4.727   0.883   1.155  0.1166  1.6551  0.0827
 1353TIP3   OH225549   1.998   5.721  17.074 -0.1314  0.0543  0.2437
 1353TIP3    H125550   1.946   5.645  17.100  0.6528 -0.8312 -0.6938
 1353TIP3    H225551   2.067   5.685  17.019 -0.0098  1.5096 -0.5990
 1354TIP3   OH225552   5.027   4.298  15.149  0.3496 -0.0452  0.3813
 1354TIP3    H125553   4.975   4.313  15.228  0.5413 -0.8093  0.6568
 1354TIP3    H225554   5.117   4.291  15.181  0.3512 -1.0227  0.1782
 1355TIP3   OH225555   5.833   2.926   4.365  0.0103  0.1524  0.1381
 1355TIP3    H125556   5.864   2.951   4.452 -0.2507 -1.3058  0.6782
 1355TIP3    H225557   5.881   2.846   4.345 -0.8862 -0.2460 -0.4946
 1356TIP3   OH225558   3.820   6.765  13.514  0.2214 -0.4736 -0.3225
 1356TIP3    H125559   3.803   6.855  13.540 -1.5096 -1.2346  1.4409
 1356TIP3    H225560   3.897   6.739  13.565 -0.2316 -0.4668  0.3704
 1357TIP3   OH225561   0.941   4.396  16.957 -0.0804 -0.4142 -0.3869
 1357TIP3    H125562   1.018   4.406  17.013  0.4947 -2.2142 -0.7690
 1357TIP3    H225563   0.898   4.481  16.960  0.7473  0.0095  1.5634
 1358TIP3   OH225564   6.327   4.565   2.209  0.4714  0.0549 -0.4026
 1358TIP3    H125565   6.313   4.545   2.116 -0.3832 -3.2085  0.3120
 1358TIP3    H225566   6.417   4.539   2.226  0.3248 -0.2814 -0.1268
 1359TIP3   OH225567   2.547   4.100  13.590 -0.5874  0.3944  0.1052
 1359TIP3    H125568   2.621   4.162  13.589  0.9054 -1.3134 -0.4067
 1359TIP3    H225569   2.585   4.017  13.563 -2.5653 -0.7442  0.6357
 1360TIP3   OH225570   3.950   4.038   0.476  0.1477 -0.2658  0.0398
 1360TIP3    H125571   3.929   4.037   0.569  0.6700 -2.4558  0.2052
 1360TIP3    H225572   3.904   3.961   0.440  1.7641 -0.7990 -1.0195
 1361TIP3   OH225573   5.015   2.399  10.289  0.4015 -0.7651 -0.4559
 1361TIP3    H125574   5.024   2.464  10.219  1.5356 -0.7492 -0.3163
 1361TIP3    H225575   5.104   2.389  10.324 -0.0789 -1.0456  0.7424
 1362TIP3   OH225576   0.777   3.467  16.652 -0.0441  0.4295  0.1608
 1362TIP3    H125577   0.752   3.557  16.634  0.1946  0.5275  0.3200
 1362TIP3    H225578   0.700   3.429  16.694 -0.1151  0.5827  0.1688
 1363TIP3   OH225579   3.112   6.262  16.748 -0.2067  0.9789  0.2502
 1363TIP3    H125580   3.042   6.198  16.733  0.0266  0.5934  0.7539
 1363TIP3    H225581   3.127   6.259  16.842  2.9164 -1.6231 -0.1299
 1364TIP3   OH225582   5.442   1.347  14.091  0.1509  0.3815  0.0085
 1364TIP3    H125583   5.387   1.371  14.166 -1.2159 -0.0424 -0.8201
 1364TIP3    H225584   5.450   1.252  14.098  1.3369  0.4986  0.4681
 1365TIP3   OH225585   2.233   3.455   5.646 -0.6814 -0.0905  0.1335
 1365TIP3    H125586   2.176   3.488   5.577 -1.3359  1.1727  1.2080
 1365TIP3    H225587   2.179   3.392   5.694 -0.3482 -0.7024 -0.2931
 1366TIP3   OH225588   1.533   1.891   4.766 -0.4798  0.0533 -0.0397
 1366TIP3    H125589   1.497   1.876   4.679 -1.9822  1.7506  0.2126
 1366TIP3    H225590   1.455   1.898   4.823  0.4253 -0.0957  1.2660
 1367TIP3   OH225591   3.663   4.003  13.408  0.2901 -0.1898 -0.6036
 1367TIP3    H125592   3.648   4.051  13.490 -1.0353 -1.8336  0.2008
 1367TIP3    H225593   3.750   3.965  13.418  0.3134 -0.0251 -0.1526
 1368TIP3   OH225594   6.250   6.703  10.559 -0.0363  0.8109  0.1694
 1368TIP3    H125595   6.282   6.656  10.636 -0.9490 -2.8219 -1.4666
 1368TIP3    H225596   6.327   6.712  10.503 -0.0843  0.1465 -0.0094
 1369TIP3   OH225597   0.763   4.754  16.273 -0.0276 -0.0906 -1.0112
 1369TIP3    H125598   0.761   4.848  16.256 -0.0876  0.3107  0.9490
 1369TIP3    H225599   0.694   4.740  16.338 -0.1895 -1.5429 -1.4665
 1370TIP3   OH225600   2.449   4.799  12.449 -0.3035  0.0283 -0.1980
 1370TIP3    H125601   2.512   4.840  12.509 -1.1530  0.0792  0.6782
 1370TIP3    H225602   2.500   4.731  12.405  0.1710 -0.5306  1.1462
 1371TIP3   OH225603   2.113   2.259  13.943  0.0861 -0.2256  0.1957
 1371TIP3    H125604   2.160   2.197  13.887 -0.5398  0.0233 -0.6314
 1371TIP3    H225605   2.094   2.210  14.023 -0.1489 -1.0198 -0.3322
 1372TIP3   OH225606   1.558   6.559  16.091  0.0819 -0.7899 -0.2945
 1372TIP3    H125607   1.623   6.494  16.063  0.2551 -1.0664  0.7241
 1372TIP3    H225608   1.533   6.532  16.179 -2.0996 -1.1997 -0.9918
 1373TIP3   OH225609   1.580   3.988   3.860  0.1244 -0.0213  0.0493
 1373TIP3    H125610   1.520   4.036   3.916  1.1497  0.8979  0.3854
 1373TIP3    H225611   1.547   3.898   3.860 -0.8187  0.3169  0.8046
 1374TIP3   OH225612   1.587   2.958  13.910  0.1718  0.1017 -0.0995
 1374TIP3    H125613   1.669   2.976  13.955  1.4350 -0.1616 -2.1596
 1374TIP3    H225614   1.578   2.863  13.914 -0.1414  0.1449  0.2839
 1375TIP3   OH225615   1.317   2.292   3.476  0.0728  0.5604 -0.0818
 1375TIP3    H125616   1.309   2.297   3.381  1.6601  2.9555 -0.1976
 1375TIP3    H225617   1.403   2.330   3.495  0.1089 -0.5218  2.2746
 1376TIP3   OH225618   2.057   2.093  14.124  0.2472 -0.2787  0.3663
 1376TIP3    H125619   2.031   2.152  14.194 -2.2200 -0.1821 -0.5223
 1376TIP3    H225620   2.102   2.021  14.168 -1.0379 -0.1094  2.0453
 1377TIP3   OH225621   2.604   5.370  12.675 -0.2486  0.2593  0.7209
 1377TIP3    H125622   2.556   5.303  12.626 -0.7226 -0.7486  2.4845
 1377TIP3    H225623   2.696   5.355  12.651 -0.3728 -0.8574  0.8828
 1378TIP3   OH225624   3.535   5.110   0.920  0.0736  0.3116 -0.6555
 1378TIP3    H125625   3.590   5.053   0.866  0.3434  2.0070 -2.2673
 1378TIP3    H225626   3.451   5.112   0.875 -0.8020 -0.8911  0.8562
 1379TIP3   OH225627   5.347   3.849  13.875 -0.0259 -0.1163 -0.3469
 1379TIP3    H125628   5.330   3.799  13.796 -0.2288 -0.4262 -0.1091
 1379TIP3    H225629   5.278   3.916  13.877 -1.5612 -1.6458  0.8518
 1380TIP3   OH225630   3.662   2.532  13.253  0.1966 -0.3552 -0.3651
 1380TIP3    H125631   3.705   2.514  13.336  0.6964 -0.3827 -0.6298
 1380TIP3    H225632   3.594   2.465  13.246  0.8927 -1.0436 -0.5126
 1381TIP3   OH225633   5.098   0.896  11.724  0.1785  0.0230 -0.0523
 1381TIP3    H125634   5.149   0.846  11.787 -0.7878 -0.6062  0.2557
 1381TIP3    H225635   5.160   0.918  11.654  1.1706  0.4030  0.9216
 1382TIP3   OH225636   1.817   5.472   5.452  0.3352 -0.1746  0.1175
 1382TIP3    H125637   1.895   5.418   5.442  0.9931  0.9862 -1.4086
 1382TIP3    H225638   1.750   5.425   5.403  0.4632 -0.4211  0.1747
 1383TIP3   OH225639   2.624   4.389  15.580 -0.4998  0.0528  0.2862
 1383TIP3    H125640   2.587   4.412  15.666 -0.1653  1.3782  0.0949
 1383TIP3    H225641   2.616   4.294  15.576  0.6341 -0.1919  2.3311
 1384TIP3   OH225642   6.015   5.743   3.525 -1.1729  0.4380 -0.2922
 1384TIP3    H125643   6.087   5.806   3.518  0.1982 -0.8590  1.1997
 1384TIP3    H225644   5.942   5.794   3.560 -0.1366  1.2649  0.7777
 1385TIP3   OH225645   3.619   6.597  15.314 -0.6182  0.0616 -0.2141
 1385TIP3    H125646   3.586   6.652  15.243 -2.1195  0.2744  0.6148
 1385TIP3    H225647   3.695   6.644  15.348 -1.8491  1.6255  0.4479
 1386TIP3   OH225648   4.291   2.495   3.241  0.2735 -0.1364 -0.1380
 1386TIP3    H125649   4.286   2.532   3.153  1.9080 -0.1297 -0.2539
 1386TIP3    H225650   4.237   2.416   3.237 -0.9679  0.7133 -0.6707
 1387TIP3   OH225651   1.178   1.448  17.246  0.1719 -0.7859  0.0271
 1387TIP3    H125652   1.127   1.391  17.305 -0.6017  1.1057  1.2752
 1387TIP3    H225653   1.158   1.415  17.158 -0.7726 -2.0142  0.6571
 1388TIP3   OH225654   2.111   4.419   4.543  0.2249 -0.0318 -0.6361
 1388TIP3    H125655   2.107   4.514   4.551 -1.9122 -0.1790  0.8618
 1388TIP3    H225656   2.035   4.388   4.592  0.6272 -2.5049 -1.4674
 1389TIP3   OH225657   1.424   6.218   1.631  0.4975  0.1078 -0.4909
 1389TIP3    H125658   1.425   6.174   1.716  2.0249 -0.3967 -0.7486
 1389TIP3    H225659   1.513   6.251   1.619  0.0121  1.1695 -1.4015
 1390TIP3   OH225660   2.176   1.187  14.065 -0.0090 -0.3683  0.5250
 1390TIP3    H125661   2.158   1.141  13.983 -1.9772  0.5777  0.3830
 1390TIP3    H225662   2.264   1.157  14.090  0.1104 -1.6550 -1.2412
 1391TIP3   OH225663   3.511   2.460  17.265  0.2633  0.0715  0.0696
 1391TIP3    H125664   3.589   2.404  17.258  1.2752  1.5707 -1.4769
 1391TIP3    H225665   3.512   2.512  17.184 -1.5709  1.1330  0.6781
 1392TIP3   OH225666   5.195   5.421   2.889 -0.1716  0.2514  0.1915
 1392TIP3    H125667   5.232   5.438   2.975 -0.2988 -0.6670  0.4386
 1392TIP3    H225668   5.254   5.355   2.850 -0.9823 -0.4886  0.1977
 1393TIP3   OH225669   6.747   2.006   1.354  0.4983  0.0694  0.4208
 1393TIP3    H125670   6.736   2.015   1.259 -0.7165  1.1035  0.6248
 1393TIP3    H225671   6.821   2.063   1.375 -0.3727  1.3009  0.2957
 1394TIP3   OH225672   6.584   6.783   0.509 -0.6582 -0.1214  0.2226
 1394TIP3    H125673   6.647   6.854   0.499 -2.9243  2.2386  1.6687
 1394TIP3    H225674   6.581   6.766   0.603 -0.7305 -1.6237 -0.0252
 1395TIP3   OH225675   5.536   5.440   4.616  0.0403  0.0394  0.1381
 1395TIP3    H125676   5.527   5.535   4.623 -1.8357 -0.1796  1.5831
 1395TIP3    H225677   5.531   5.409   4.707  0.6373 -1.4571 -0.3072
 1396TIP3   OH225678   4.431   2.528   4.750  0.2136  0.0125  0.2919
 1396TIP3    H125679   4.449   2.450   4.801  0.6588 -0.6150 -0.7941
 1396TIP3    H225680   4.344   2.557   4.779  0.7723  0.1449  1.9478
 1397TIP3   OH225681   3.476   4.031  14.988  0.0494 -0.2441  0.1737
 1397TIP3    H125682   3.542   3.973  15.026  0.2701  0.1767  0.4368
 1397TIP3    H225683   3.424   4.060  15.063  0.3278  0.3904  0.1242
 1398TIP3   OH225684   2.235   6.336   5.090 -0.0463 -0.0082 -0.0534
 1398TIP3    H125685   2.263   6.272   5.155 -0.1183 -0.8188 -0.8062
 1398TIP3    H225686   2.207   6.412   5.142  0.4884 -0.3988  0.8268
 1399TIP3   OH225687   2.453   5.290   1.923 -0.1359  0.4115 -0.0700
 1399TIP3    H125688   2.467   5.197   1.904 -2.0455 -0.5868  2.7798
 1399TIP3    H225689   2.520   5.311   1.988 -1.3316  0.2571  1.2428
 1400TIP3   OH225690   5.591   4.851  16.782  0.3978 -0.0796  0.0387
 1400TIP3    H125691   5.620   4.766  16.748  2.4048  0.7358 -0.4313
 1400TIP3    H225692   5.645   4.865  16.860 -0.3907  0.4690  0.4936
 1401TIP3   OH225693   0.777   1.573  11.826 -0.0717  0.7899  0.1924
 1401TIP3    H125694   0.858   1.559  11.776  0.8823  0.4741  1.7783
 1401TIP3    H225695   0.745   1.484  11.843 -1.3108  0.9192 -1.2370
 1402TIP3   OH225696   5.930   0.461  17.197  0.2580 -0.1558 -0.2711
 1402TIP3    H125697   6.013   0.481  17.154  0.1682  1.2086  0.1240
 1402TIP3    H225698   5.906   0.374  17.165  1.7532 -0.5118 -0.5122
 1403TIP3   OH225699   1.401   0.315   3.739  1.0723 -0.5894  0.2815
 1403TIP3    H125700   1.456   0.331   3.815 -0.4998  1.3848  1.0810
 1403TIP3    H225701   1.329   0.261   3.772  1.5862 -1.6751 -0.3487
 1404TIP3   OH225702   4.746   5.142  16.525 -0.1413  0.8435  0.3873
 1404TIP3    H125703   4.766   5.122  16.617 -0.1161  0.7350  0.3574
 1404TIP3    H225704   4.795   5.077  16.476 -1.6501 -0.3132  0.3520
 1405TIP3   OH225705   5.864   5.972   0.845 -0.0052  0.4588  0.3611
 1405TIP3    H125706   5.778   5.946   0.877  0.7232 -1.4860  0.8845
 1405TIP3    H225707   5.857   5.966   0.750 -0.5311  0.5936  0.3898
 1406TIP3   OH225708   4.700   1.706  15.530 -0.0842  0.1706  1.0033
 1406TIP3    H125709   4.756   1.631  15.549  0.6315 -0.1079 -1.8108
 1406TIP3    H225710   4.672   1.693  15.439  0.9446  3.7719 -0.0054
 1407TIP3   OH225711   6.703   5.513   1.753  0.7123 -0.0027  0.5210
 1407TIP3    H125712   6.726   5.574   1.823 -0.8622  0.4058  0.7187
 1407TIP3    H225713   6.614   5.537   1.728  0.7129 -1.0802 -0.6367
 1408TIP3   OH225714   5.311   4.116   4.063  0.6813 -0.6300 -0.2705
 1408TIP3    H125715   5.253   4.049   4.099  0.9345 -0.3856  0.6169
 1408TIP3    H225716   5.251   4.182   4.026  0.4330 -1.2786 -1.0412
 1409TIP3   OH225717   5.575   4.424  16.438  0.6977 -0.6391  1.0428
 1409TIP3    H125718   5.492   4.380  16.460 -0.3487  0.2002 -0.9887
 1409TIP3    H225719   5.589   4.486  16.510 -1.9498  1.1624  0.1451
 1410TIP3   OH225720   1.445   4.151  11.724  0.0549 -0.4481  0.1910
 1410TIP3    H125721   1.462   4.069  11.678 -1.6335 -1.0197  0.5181
 1410TIP3    H225722   1.350   4.153  11.734  0.0957  1.4234  0.4426
 1411TIP3   OH225723   1.856   4.300  15.404 -0.3122  0.3782 -0.4805
 1411TIP3    H125724   1.788   4.349  15.450  0.6525  0.2978  1.1210
 1411TIP3    H225725   1.933   4.309  15.460  0.2378 -1.8822 -0.7832
 1412TIP3   OH225726   1.893   6.745  15.998  0.3478 -0.5580  0.0591
 1412TIP3    H125727   1.979   6.717  15.967 -0.0018 -0.9306 -0.5940
 1412TIP3    H225728   1.906   6.766  16.091  2.0029  2.9479 -0.7806
 1413TIP3   OH225729   1.907   1.585   0.629  0.1300 -0.5005 -0.0410
 1413TIP3    H125730   1.906   1.647   0.556 -0.3726 -0.8609 -0.3418
 1413TIP3    H225731   1.995   1.595   0.666 -0.4643  1.6175  0.9748
 1414TIP3   OH225732   1.629   4.411  15.999  0.0294 -0.4098  0.0368
 1414TIP3    H125733   1.601   4.320  15.999  2.1419 -1.1261 -0.5693
 1414TIP3    H225734   1.629   4.437  15.907  0.2742 -0.0727  0.1283
 1415TIP3   OH225735   2.252   4.294   5.099  0.2346 -0.5199 -0.9550
 1415TIP3    H125736   2.305   4.214   5.104  1.8434  0.5160 -0.5171
 1415TIP3    H225737   2.305   4.355   5.048 -0.4232  0.6533 -0.2875
 1416TIP3   OH225738   6.331   4.187  13.619  0.5748  0.0853 -0.5515
 1416TIP3    H125739   6.418   4.180  13.659  0.7989  0.6957 -0.9236
 1416TIP3    H225740   6.284   4.110  13.651  0.4235  1.0026  1.6327
 1417TIP3   OH225741   2.203   3.334   1.277 -0.2980  0.5349  0.1901
 1417TIP3    H125742   2.150   3.269   1.231  2.3045 -1.3098 -0.4179
 1417TIP3    H225743   2.157   3.349   1.359 -1.5967 -1.1814 -0.1791
 1418TIP3   OH225744   5.614   2.826  13.100 -0.7394  0.3621  0.1656
 1418TIP3    H125745   5.639   2.869  13.018 -1.7072 -0.1561 -0.4320
 1418TIP3    H225746   5.696   2.795  13.137 -0.3562 -0.2985 -1.1467
 1419TIP3   OH225747   1.715   0.741  12.723  0.1395 -0.0008 -0.5710
 1419TIP3    H125748   1.781   0.800  12.686 -0.1784 -0.2276 -1.5215
 1419TIP3    H225749   1.760   0.698  12.796 -0.0468  2.4849  1.1916
 1420TIP3   OH225750   4.781   4.676  11.241 -0.3609  0.5872  0.3542
 1420TIP3    H125751   4.792   4.584  11.265  3.2582  0.7167 -0.2336
 1420TIP3    H225752   4.687   4.686  11.227 -0.7526 -3.4739 -1.3556
 1421TIP3   OH225753   3.014   2.076   6.558  0.1011 -0.6296 -0.3763
 1421TIP3    H125754   3.097   2.103   6.598 -0.2301 -0.3964  0.1581
 1421TIP3    H225755   3.040   2.018   6.487  0.6606 -2.6319  1.3545
 1422TIP3   OH225756   6.678   1.270   2.479  0.3228  0.3996 -0.4469
 1422TIP3    H125757   6.696   1.178   2.458 -1.7199 -0.1352 -0.0528
 1422TIP3    H225758   6.707   1.318   2.402  0.4815 -0.6769 -1.0785
 1423TIP3   OH225759   4.791   2.359   5.317 -0.3501  0.2752 -0.4876
 1423TIP3    H125760   4.725   2.386   5.381  0.1599  2.9398 -0.9818
 1423TIP3    H225761   4.845   2.296   5.365 -2.1902 -0.7133  0.4442
 1424TIP3   OH225762   2.417   3.849   4.180 -0.2472 -0.3558 -0.5782
 1424TIP3    H125763   2.502   3.812   4.154  0.5105  1.1702 -0.4317
 1424TIP3    H225764   2.431   3.878   4.271 -1.7239 -2.3227  0.3431
 1425TIP3   OH225765   2.313   2.618  14.142 -0.2873 -0.0523 -0.4005
 1425TIP3    H125766   2.349   2.579  14.063  0.4653 -1.0139  0.3831
 1425TIP3    H225767   2.260   2.548  14.181  0.1169  0.0922  0.4269
 1426TIP3   OH225768   6.536   0.663  12.173 -0.0493 -0.2035  0.1716
 1426TIP3    H125769   6.590   0.621  12.106 -0.6848 -1.2897  0.3207
 1426TIP3    H225770   6.456   0.687  12.126  0.3180  0.8999  0.0791
 1427TIP3   OH225771   2.393   0.794   5.872 -0.4655  0.3360  0.6648
 1427TIP3    H125772   2.322   0.858   5.868  0.2735  1.1054 -1.0804
 1427TIP3    H225773   2.414   0.776   5.781  0.7300 -0.8677  1.1464
 1428TIP3   OH225774   6.126   5.360  13.689  0.3650 -0.0367 -0.1862
 1428TIP3    H125775   6.172   5.276  13.678  0.2521 -0.0240 -0.8021
 1428TIP3    H225776   6.126   5.398  13.601  0.6944  0.7575  0.1533
 1429TIP3   OH225777   6.770   0.861  17.071 -0.0000 -0.2303 -0.1635
 1429TIP3    H125778   6.689   0.832  17.028  0.8374 -3.3503  0.0753
 1429TIP3    H225779   6.806   0.927  17.012 -1.5557 -0.4936 -1.4835
 1430TIP3   OH225780   6.518   6.107  12.424 -0.3137 -0.4583  0.6571
 1430TIP3    H125781   6.514   6.125  12.518  0.6753  2.4008  0.2399
 1430TIP3    H225782   6.429   6.122  12.392 -0.5392 -0.9497  1.0454
 1431TIP3   OH225783   5.163   0.573   5.645 -0.4330  0.2544  0.6152
 1431TIP3    H125784   5.240   0.606   5.599 -0.1642 -1.3444 -0.1508
 1431TIP3    H225785   5.093   0.573   5.580 -0.2116 -1.4183  0.3255
 1432TIP3   OH225786   5.610   0.477   4.192  0.2792 -0.0778 -0.0170
 1432TIP3    H125787   5.539   0.442   4.138  1.3400 -1.7294 -0.4441
 1432TIP3    H225788   5.646   0.549   4.140 -2.1616  2.0164  1.0142
 1433TIP3   OH225789   4.281   1.554  15.911  0.1639  0.4882 -0.3051
 1433TIP3    H125790   4.240   1.632  15.872 -0.0568  0.8383  0.5962
 1433TIP3    H225791   4.264   1.563  16.005  0.5676 -0.4030 -0.1393
 1434TIP3   OH225792   5.522   4.498  14.479  0.3300  0.4089 -0.4830
 1434TIP3    H125793   5.598   4.508  14.420  1.1718  0.3426  0.5622
 1434TIP3    H225794   5.446   4.508  14.422  1.1278  0.9170 -1.4873
 1435TIP3   OH225795   4.373   2.478  16.925  0.5203 -0.1928  0.0317
 1435TIP3    H125796   4.365   2.507  17.016  0.8509 -0.4011  0.1312
 1435TIP3    H225797   4.373   2.383  16.930  1.2709 -0.2131 -0.1084
 1436TIP3   OH225798   5.349   4.023  16.234 -0.2012 -0.2744  0.1819
 1436TIP3    H125799   5.343   4.066  16.148  0.8272 -1.2292 -0.3861
 1436TIP3    H225800   5.386   4.090  16.291  0.7563 -0.1650 -0.5409
 1437TIP3   OH225801   2.705   2.542  10.958 -0.0763  0.2138  0.1637
 1437TIP3    H125802   2.638   2.582  11.013  0.6594  0.0294  1.2282
 1437TIP3    H225803   2.674   2.453  10.942 -0.3264  0.2908  0.2311
 1438TIP3   OH225804   2.961   6.464   2.026  0.4860  0.1439 -0.4101
 1438TIP3    H125805   2.898   6.416   2.080 -0.9120  1.0290 -1.2208
 1438TIP3    H225806   2.965   6.551   2.065 -1.4047  1.1641 -2.3267
 1439TIP3   OH225807   0.831   2.737   4.472 -0.2462  0.4921 -0.7876
 1439TIP3    H125808   0.896   2.740   4.401  0.6604 -0.2757 -0.0130
 1439TIP3    H225809   0.859   2.804   4.533 -1.9605  2.3202 -1.8692
 1440TIP3   OH225810   1.276   5.182  14.109 -0.1634  0.1313 -0.7232
 1440TIP3    H125811   1.286   5.264  14.060  0.8276  0.4528 -0.0300
 1440TIP3    H225812   1.211   5.203  14.177  0.2584  0.4276 -0.4024
 1441TIP3   OH225813   6.412   6.505   5.030  0.2811  0.0689  0.3437
 1441TIP3    H125814   6.382   6.468   4.947  1.0134  1.7562 -0.7276
 1441TIP3    H225815   6.339   6.558   5.060  0.5832  0.7324 -0.0641
 1442TIP3   OH225816   4.531   1.602   2.214 -0.8745 -0.4639  0.3577
 1442TIP3    H125817   4.532   1.619   2.120 -0.5411  2.8193  0.8137
 1442TIP3    H225818   4.576   1.677   2.252 -0.8917 -1.7427  3.1535
 1443TIP3   OH225819   0.552   0.850   4.802 -0.4670  0.5636  0.3556
 1443TIP3    H125820   0.539   0.757   4.781  1.8138  0.6296 -1.7473
 1443TIP3    H225821   0.540   0.854   4.897 -0.0857 -2.0085  0.5975
 1444TIP3   OH225822   3.513   5.301  11.647 -0.2937  0.0495 -0.4247
 1444TIP3    H125823   3.528   5.395  11.631  1.1141 -0.3172 -1.5383
 1444TIP3    H225824   3.479   5.297  11.736  0.9665  1.5347  0.1821
 1445TIP3   OH225825   1.608   5.086  14.059 -0.5150  0.7074  0.1955
 1445TIP3    H125826   1.521   5.069  14.023 -0.5679  0.9461  0.2128
 1445TIP3    H225827   1.609   5.180  14.078  0.5756  1.2037 -2.0266
 1446TIP3   OH225828   6.552   3.713  12.470 -0.2564 -0.0844  0.5637
 1446TIP3    H125829   6.573   3.620  12.478  1.2155  0.0721 -0.9282
 1446TIP3    H225830   6.462   3.715  12.435 -0.0656 -0.9622  0.0154
 1447TIP3   OH225831   2.513   3.586  13.546  0.1427 -0.9222 -0.2204
 1447TIP3    H125832   2.519   3.681  13.552 -0.9513 -0.8505  0.0197
 1447TIP3    H225833   2.499   3.568  13.453  0.4361 -0.8542 -0.2779
 1448TIP3   OH225834   6.213   1.034  11.130  0.1269  0.0501 -0.9102
 1448TIP3    H125835   6.205   0.959  11.071  1.3806 -0.0119 -1.0444
 1448TIP3    H225836   6.289   1.082  11.096  0.4043  0.4245  0.2043
 1449TIP3   OH225837   1.663   5.474  12.374 -0.8509  0.3240  0.1020
 1449TIP3    H125838   1.743   5.521  12.398  0.4893  0.3853 -3.7746
 1449TIP3    H225839   1.604   5.542  12.342 -0.8198 -0.0668 -0.8366
 1450TIP3   OH225840   2.328   4.919   1.481 -0.6080 -0.2433 -0.1306
 1450TIP3    H125841   2.404   4.975   1.462 -0.1518 -0.9039 -0.3016
 1450TIP3    H225842   2.260   4.980   1.510  0.2186  0.2934  0.7273
 1451TIP3   OH225843   6.556   0.897   2.850 -0.1773 -0.4745 -0.3915
 1451TIP3    H125844   6.560   0.838   2.925 -1.4643 -1.7961 -1.3012
 1451TIP3    H225845   6.645   0.933   2.843  0.2272 -1.1040  1.1352
 1452TIP3   OH225846   3.140   0.206  11.269  0.5536 -0.0900  0.0045
 1452TIP3    H125847   3.055   0.198  11.226  1.0809  1.1722 -1.3445
 1452TIP3    H225848   3.191   0.264  11.212  1.7941  0.4503  1.5765
 1453TIP3   OH225849   0.744   4.550   4.500  0.3209  0.3850  0.1083
 1453TIP3    H125850   0.698   4.527   4.581  0.0111  3.4443  0.9359
 1453TIP3    H225851   0.836   4.555   4.526  0.2334  1.2624  0.2833
 1454TIP3   OH225852   1.251   6.645   3.494  0.3398 -0.2372 -0.1688
 1454TIP3    H125853   1.202   6.571   3.530 -1.4638  1.0109  0.1187
 1454TIP3    H225854   1.218   6.721   3.543  0.4276  1.0540 -2.0273
 1455TIP3   OH225855   4.041   5.648   0.667 -0.0953 -0.4699  0.8507
 1455TIP3    H125856   4.059   5.739   0.688  0.4361 -0.1792 -0.7014
 1455TIP3    H225857   4.041   5.603   0.751 -0.4638  0.9658  1.6534
 1456TIP3   OH225858   4.349   2.995  13.757  0.4388  0.2080 -1.2250
 1456TIP3    H125859   4.417   3.048  13.798  0.2110 -0.2653 -0.1902
 1456TIP3    H225860   4.397   2.930  13.706  0.7719 -0.0746 -0.5672
 1457TIP3   OH225861   2.488   0.372   5.251 -0.2014 -0.3551 -0.1241
 1457TIP3    H125862   2.468   0.445   5.192 -0.4833 -0.2257  0.1285
 1457TIP3    H225863   2.582   0.361   5.244  0.3234  1.9241  1.9900
 1458TIP3   OH225864   0.519   5.246   0.883  0.1270 -0.5766 -0.0388
 1458TIP3    H125865   0.451   5.310   0.861 -1.4695 -1.7362  1.3302
 1458TIP3    H225866   0.599   5.281   0.842 -1.7661 -0.6040 -4.2753
 1459TIP3   OH225867   0.276   3.049  14.363 -0.1949  0.4697 -0.1518
 1459TIP3    H125868   0.296   3.030  14.271  2.9354 -3.8621  1.1238
 1459TIP3    H225869   0.208   2.987  14.386 -0.7014  1.2829  0.5929
 1460TIP3   OH225870   2.625   3.934  11.293 -0.4254 -0.2008 -0.3151
 1460TIP3    H125871   2.598   3.882  11.369 -0.9094 -0.0101 -0.3564
 1460TIP3    H225872   2.633   3.871  11.222 -1.1816 -0.1995 -0.4084
 1461TIP3   OH225873   5.375   4.247   2.826 -0.3935  0.2329  0.1375
 1461TIP3    H125874   5.380   4.324   2.882  1.1608  0.2985 -0.0271
 1461TIP3    H225875   5.437   4.266   2.755 -0.1958 -1.0315 -0.0547
 1462TIP3   OH225876   1.607   6.339   2.125 -0.0910 -0.2870 -0.3979
 1462TIP3    H125877   1.579   6.308   2.211 -0.6745 -2.4684 -1.3012
 1462TIP3    H225878   1.556   6.418   2.110  0.2753  0.3187  1.3793
 1463TIP3   OH225879   4.476   6.104  13.173  0.1947 -0.3817  0.1329
 1463TIP3    H125880   4.391   6.143  13.195 -0.5667 -0.4233 -2.4117
 1463TIP3    H225881   4.495   6.046  13.247 -2.1775 -0.6780  0.5983
 1464TIP3   OH225882   4.380   5.174   1.088 -0.7681  0.4396  0.3067
 1464TIP3    H125883   4.308   5.162   1.027 -0.6945 -1.1150  0.4817
 1464TIP3    H225884   4.338   5.196   1.171 -0.9277  1.4107 -0.0248
 1465TIP3   OH225885   4.162   1.309  12.274 -0.4689 -0.1526 -0.2287
 1465TIP3    H125886   4.170   1.304  12.369 -1.5901  0.7703 -0.0616
 1465TIP3    H225887   4.205   1.392  12.251 -0.6540 -0.1201 -0.4630
 1466TIP3   OH225888   4.336   3.078  13.004 -0.2280  0.0587 -0.2785
 1466TIP3    H125889   4.262   3.114  12.955  0.4798  0.7013 -0.8997
 1466TIP3    H225890   4.353   3.143  13.072 -0.4455 -0.2477  0.0664
 1467TIP3   OH225891   2.483   5.011   4.280 -0.4026 -0.5832 -0.3725
 1467TIP3    H125892   2.463   5.036   4.190  1.7530 -0.2369 -0.8255
 1467TIP3    H225893   2.562   5.061   4.301 -0.1540 -1.5989  1.2731
 1468TIP3   OH225894   3.791   1.143  11.521 -0.3148  0.2159  0.8456
 1468TIP3    H125895   3.772   1.077  11.588  0.1263 -0.6898  0.1042
 1468TIP3    H225896   3.883   1.165  11.534 -0.2412  0.0734  0.5820
 1469TIP3   OH225897   1.144   1.786   3.995 -0.6530 -0.0273  0.3142
 1469TIP3    H125898   1.122   1.828   3.911 -0.7104 -0.5881  0.0465
 1469TIP3    H225899   1.171   1.697   3.971  1.5941  0.4876  0.6473
 1470TIP3   OH225900   6.323   0.332   0.017  0.0851  0.3489  0.1176
 1470TIP3    H125901   6.326   0.426   0.001 -0.2362  0.4287  0.5191
 1470TIP3    H225902   6.405   0.298  -0.021 -0.7950  0.4651 -2.0586
 1471TIP3   OH225903   2.672   0.560  11.345 -0.1293 -0.7317 -0.5988
 1471TIP3    H125904   2.705   0.480  11.385 -0.6084 -0.7979 -0.3218
 1471TIP3    H225905   2.628   0.606  11.417 -1.5398 -1.1432 -1.1709
 1472TIP3   OH225906   5.757   2.810  15.519 -0.2530  0.5233  0.5589
 1472TIP3    H125907   5.844   2.850  15.529  0.5356 -0.4720 -1.5599
 1472TIP3    H225908   5.706   2.875  15.470  0.1042  0.1636 -0.3211
 1473TIP3   OH225909   3.802   4.210   2.380 -0.0304 -0.6942 -0.0909
 1473TIP3    H125910   3.819   4.211   2.474  1.8621  0.2408 -0.3979
 1473TIP3    H225911   3.881   4.173   2.341 -0.6022 -0.6576 -1.3381
 1474TIP3   OH225912   5.657   0.164   2.998 -0.4531 -0.5731  0.7087
 1474TIP3    H125913   5.625   0.254   3.008  0.4349 -0.2109  0.3683
 1474TIP3    H225914   5.712   0.150   3.075  1.2636  0.0030 -0.3508
 1475TIP3   OH225915   6.114   3.529  14.372  0.5125 -0.4151 -0.2709
 1475TIP3    H125916   6.124   3.585  14.449 -0.8046 -1.3410  0.6136
 1475TIP3    H225917   6.028   3.551  14.337  0.6142 -0.8336 -0.7902
 1476TIP3   OH225918   4.044   3.834  12.437 -0.0122 -0.6909 -0.4225
 1476TIP3    H125919   3.964   3.871  12.474  0.7245  0.1217  0.3916
 1476TIP3    H225920   4.046   3.744  12.471  0.6126  0.0107  1.5390
 1477TIP3   OH225921   5.507   1.698   4.070  0.1964 -0.1512 -0.1212
 1477TIP3    H125922   5.472   1.775   4.026  0.2507 -1.5994 -2.8988
 1477TIP3    H225923   5.431   1.659   4.114 -0.2795  0.2552 -0.5693
 1478TIP3   OH225924   4.197   5.286   0.339 -0.9399 -0.0162 -0.3050
 1478TIP3    H125925   4.157   5.319   0.419 -1.5989 -0.8642 -0.2800
 1478TIP3    H225926   4.289   5.272   0.362 -0.8308  0.9725 -0.0805
 1479TIP3   OH225927   2.043   5.222  12.113  0.3470 -0.0844  0.5975
 1479TIP3    H125928   2.039   5.127  12.121  2.4042 -0.1867  1.2204
 1479TIP3    H225929   2.015   5.254  12.198 -0.6167 -0.1125  0.2948
 1480TIP3   OH225930   1.497   6.365   0.264  0.2558  0.0201  0.0237
 1480TIP3    H125931   1.487   6.325   0.351  2.6450  1.2244  0.9416
 1480TIP3    H225932   1.412   6.404   0.246 -0.2093  0.0167  1.9830
 1481TIP3   OH225933   3.588   6.170  13.843 -0.2032  0.2112 -0.1927
 1481TIP3    H125934   3.569   6.115  13.767  2.2194  1.8318 -2.1281
 1481TIP3    H225935   3.506   6.219  13.858 -1.3278 -1.5007 -0.4815
 1482TIP3   OH225936   0.633   5.327  12.445 -0.2743  0.0436 -0.5236
 1482TIP3    H125937   0.680   5.256  12.489  0.2365 -1.6893 -3.5539
 1482TIP3    H225938   0.694   5.359  12.379 -1.3213  1.8344 -0.6851
 1483TIP3   OH225939   3.472   6.014  13.658 -0.5678 -0.0502 -0.2686
 1483TIP3    H125940   3.386   6.020  13.617 -0.4545 -0.8355 -0.6346
 1483TIP3    H225941   3.482   5.921  13.680 -1.0707  0.4493  2.5109
 1484TIP3   OH225942   5.319   4.564  11.973 -0.2162  0.1032  0.3851
 1484TIP3    H125943   5.268   4.551  12.054  0.0928 -0.4120  0.5054
 1484TIP3    H225944   5.388   4.625  11.998  0.4632 -0.8048  0.7781
 1485TIP3   OH225945   5.951   4.182   0.672 -0.2919 -0.5390 -0.5352
 1485TIP3    H125946   5.922   4.268   0.701  1.4292 -1.1354  3.6258
 1485TIP3    H225947   6.038   4.197   0.635 -0.1191 -0.4315 -0.0914
 1486TIP3   OH225948   5.574   5.411   1.673 -0.2341 -0.4496 -0.4191
 1486TIP3    H125949   5.616   5.380   1.754  1.7777 -1.4117 -1.7549
 1486TIP3    H225950   5.482   5.417   1.696  0.1952 -1.1758  1.8150
 1487TIP3   OH225951   2.671   3.392  16.693 -0.1671  0.1831 -0.1123
 1487TIP3    H125952   2.743   3.424  16.639 -0.6696 -0.1445 -0.9984
 1487TIP3    H225953   2.636   3.316  16.646 -1.8974  1.0802 -0.3787
 1488TIP3   OH225954   3.090   2.225   4.753  0.4664  0.2189  0.0005
 1488TIP3    H125955   3.014   2.183   4.712  3.1495 -1.6799 -3.4944
 1488TIP3    H225956   3.093   2.312   4.714 -1.0490  1.2010  1.8828
 1489TIP3   OH225957   4.133   3.648   4.629  0.5673  0.3132  0.0026
 1489TIP3    H125958   4.160   3.581   4.567  2.0902  0.3991  0.5320
 1489TIP3    H225959   4.146   3.609   4.715 -0.9418  0.4099  0.3076
 1490TIP3   OH225960   5.388   3.459  15.538 -0.1639  0.9274 -0.5912
 1490TIP3    H125961   5.363   3.452  15.446 -0.3403  2.4141 -0.6911
 1490TIP3    H225962   5.466   3.515  15.537  0.3855  0.1894  0.0934
 1491TIP3   OH225963   0.220   6.353  14.115  0.5426  0.1920  0.4073
 1491TIP3    H125964   0.244   6.345  14.023  0.0370  1.4395  0.1597
 1491TIP3    H225965   0.285   6.412  14.152 -0.2610  1.0581  0.4540
 1492TIP3   OH225966   0.193   6.317  13.317 -0.1559  0.1692 -0.0477
 1492TIP3    H125967   0.118   6.312  13.257 -0.7080 -0.1122  0.6524
 1492TIP3    H225968   0.190   6.406  13.352  0.2864  0.3990 -0.5798
 1493TIP3   OH225969   3.044   0.733   3.965 -0.2215  0.4306 -0.3431
 1493TIP3    H125970   3.127   0.686   3.971 -0.4999 -0.1628 -1.0403
 1493TIP3    H225971   3.054   0.807   4.026  0.1066 -0.6961  1.0370
 1494TIP3   OH225972   0.609   1.685   3.081 -0.1219 -0.2254  0.5013
 1494TIP3    H125973   0.597   1.593   3.102 -1.3067 -0.1514  0.2335
 1494TIP3    H225974   0.592   1.691   2.987  0.1196  0.2425  0.4822
 1495TIP3   OH225975   2.273   4.967   1.917  0.5408  0.1342 -0.1963
 1495TIP3    H125976   2.262   4.873   1.899 -3.4469  0.5061 -0.7040
 1495TIP3    H225977   2.227   4.981   1.999  0.2287  1.7804 -0.6200
 1496TIP3   OH225978   4.569   1.666  12.947 -0.2230  0.5880  0.0742
 1496TIP3    H125979   4.664   1.677  12.949 -0.2579  0.7620  1.2458
 1496TIP3    H225980   4.548   1.623  13.030 -1.0707 -0.2733 -0.5740
 1497TIP3   OH225981   3.541   5.499   0.631 -0.2542  0.0465 -0.4559
 1497TIP3    H125982   3.616   5.451   0.666 -1.0579 -1.3840 -0.6035
 1497TIP3    H225983   3.541   5.582   0.677  0.8235 -0.3529  0.2851
 1498TIP3   OH225984   3.261   6.483   2.931  0.2012  0.0584 -0.4396
 1498TIP3    H125985   3.314   6.412   2.894 -1.2972 -1.6129  0.4737
 1498TIP3    H225986   3.183   6.486   2.876 -0.6073 -0.3201  0.6519
 1499TIP3   OH225987   3.143   4.372  12.003  0.4385  0.0157 -0.4609
 1499TIP3    H125988   3.201   4.441  11.969 -0.4609  1.0958  0.1251
 1499TIP3    H225989   3.091   4.416  12.071 -0.8419 -1.0046 -0.7486
 1500TIP3   OH225990   6.717   2.209   0.602  0.1738  0.1024  0.6786
 1500TIP3    H125991   6.744   2.188   0.692 -0.4280 -2.2617  0.3814
 1500TIP3    H225992   6.798   2.236   0.559  1.6963 -3.7005  0.6831
 1501TIP3   OH225993   1.221   0.331   6.204 -0.6865  0.1613 -0.9325
 1501TIP3    H125994   1.217   0.236   6.212  3.6910 -0.1183  0.2223
 1501TIP3    H225995   1.161   0.364   6.272 -0.1690 -1.8152  0.5616
 1502TIP3   OH225996   6.187   1.719  16.988  0.3120  0.1876 -0.2145
 1502TIP3    H125997   6.255   1.675  16.937  1.5438 -0.2257  1.6751
 1502TIP3    H225998   6.236   1.772  17.052 -1.1508  1.9294 -0.4586
 1503TIP3   OH225999   0.861   0.129  15.144 -0.6140 -0.0891  0.1763
 1503TIP3    H126000   0.776   0.101  15.111 -0.5696  1.2293 -1.1557
 1503TIP3    H226001   0.908   0.161  15.066  0.3598  1.0330  1.1804
 1504TIP3   OH226002   1.886   3.262   4.822  0.0931 -0.2667 -0.2406
 1504TIP3    H126003   1.793   3.241   4.830  0.1634 -0.7460 -0.6708
 1504TIP3    H226004   1.914   3.218   4.742  1.0550 -1.4464  0.7060
 1505TIP3   OH226005   1.566   1.011  15.714 -0.0447 -0.0580 -0.0513
 1505TIP3    H126006   1.577   1.042  15.804 -0.5344 -0.5027  0.1688
 1505TIP3    H226007   1.655   0.990  15.685  0.0978 -0.0914  0.3958
 1506TIP3   OH226008   5.939   1.525  11.289 -0.0164 -0.0110 -0.5516
 1506TIP3    H126009   6.016   1.559  11.243  0.0022  2.1855  0.9035
 1506TIP3    H226010   5.975   1.475  11.363 -0.0408 -1.6539 -1.6143
 1507TIP3   OH226011   3.480   0.435  11.561  0.8664  0.3956  0.0880
 1507TIP3    H126012   3.532   0.377  11.507 -1.5893 -1.4302 -0.5176
 1507TIP3    H226013   3.469   0.388  11.644 -0.8661  0.0694 -0.2820
 1508TIP3   OH226014   4.942   1.521  14.448  0.2089  0.9075  0.4505
 1508TIP3    H126015   4.943   1.549  14.539  1.5397  0.5373  0.5757
 1508TIP3    H226016   4.990   1.591  14.402 -0.0860  0.8818  0.1007
 1509TIP3   OH226017   6.285   2.729   3.765  0.1995 -0.3592  0.8139
 1509TIP3    H126018   6.375   2.697   3.774  0.4306 -0.3396 -0.9434
 1509TIP3    H226019   6.244   2.666   3.705 -0.2021  0.9664 -0.3739
 1510TIP3   OH226020   6.479   4.449   4.805  0.1648  0.0124 -0.6623
 1510TIP3    H126021   6.446   4.408   4.885 -0.0488  2.8483  0.8092
 1510TIP3    H226022   6.433   4.403   4.734 -2.8309  0.1246  1.0297
 1511TIP3   OH226023   2.311   1.177  14.765  0.4246  0.1564 -0.3660
 1511TIP3    H126024   2.353   1.209  14.845  0.0187  0.3102 -0.2132
 1511TIP3    H226025   2.384   1.156  14.707  0.7213  0.1247  0.0113
 1512TIP3   OH226026   0.277   2.205  13.276  0.1788 -0.2885 -0.0639
 1512TIP3    H126027   0.305   2.267  13.208  0.0943 -2.0345 -1.7980
 1512TIP3    H226028   0.208   2.251  13.323  1.8362  1.8745  0.4265
 1513TIP3   OH226029   2.880   4.684   0.107  0.0682  0.2651 -0.3064
 1513TIP3    H126030   2.887   4.594   0.075  0.7143 -0.0113  0.5775
 1513TIP3    H226031   2.936   4.735   0.048 -0.4773  0.1361 -0.9480
 1514TIP3   OH226032   3.493   5.512  14.668 -0.1370 -0.1836  0.2766
 1514TIP3    H126033   3.400   5.490  14.664  0.1779 -1.6495  0.6465
 1514TIP3    H226034   3.512   5.519  14.762  0.6629 -2.4684  0.3469
 1515TIP3   OH226035   6.068   2.858  15.087 -0.2313 -0.1234  0.0493
 1515TIP3    H126036   6.005   2.808  15.036 -0.3825  1.1025 -1.0298
 1515TIP3    H226037   6.079   2.939  15.037 -1.2651  1.6636  2.5479
 1516TIP3   OH226038   1.915   3.057   3.411  0.0313 -0.3344 -0.3023
 1516TIP3    H126039   1.989   3.113   3.432  0.1560 -0.6481  0.1181
 1516TIP3    H226040   1.945   2.968   3.433  0.1827 -0.6992 -1.8805
 1517TIP3   OH226041   2.591   2.012  17.215  0.1976 -0.3356 -0.9431
 1517TIP3    H126042   2.511   2.061  17.234 -0.7213 -1.4553 -1.7767
 1517TIP3    H226043   2.603   2.023  17.121  1.5878  0.6097 -0.6795
 1518TIP3   OH226044   5.864   6.502   3.138  0.0408 -0.1291 -0.2014
 1518TIP3    H126045   5.909   6.524   3.057 -0.9795  1.5242 -0.3704
 1518TIP3    H226046   5.824   6.585   3.167 -0.2335 -0.8334  1.5936
 1519TIP3   OH226047   1.406   2.328  10.605 -0.2784  0.2159 -0.7124
 1519TIP3    H126048   1.407   2.388  10.680  1.3685  0.3746 -0.8298
 1519TIP3    H226049   1.353   2.372  10.539 -0.5927  0.6974 -0.1491
 1520TIP3   OH226050   2.659   0.959  10.946 -0.6059  0.4839  0.6397
 1520TIP3    H126051   2.592   0.894  10.926  0.6940 -0.1862 -1.9888
 1520TIP3    H226052   2.709   0.921  11.019 -0.4694 -1.0442 -0.2156
 1521TIP3   OH226053   6.452   5.703   5.752  0.3178  0.4595  0.3156
 1521TIP3    H126054   6.364   5.668   5.745  0.4704 -0.0506  0.8941
 1521TIP3    H226055   6.445   5.792   5.717 -0.0678 -0.1293 -1.1728
 1522TIP3   OH226056   5.067   2.360  16.136 -0.1792  0.5501 -0.3578
 1522TIP3    H126057   4.999   2.299  16.165  1.7202 -1.2438  0.5755
 1522TIP3    H226058   5.038   2.446  16.168 -1.9181 -0.1805  0.1136
 1523TIP3   OH226059   6.561   4.826   4.381  0.1607  0.2737  0.2467
 1523TIP3    H126060   6.511   4.898   4.342 -1.1050 -0.8176 -0.2285
 1523TIP3    H226061   6.642   4.823   4.329 -0.8182 -0.1442 -1.3239
 1524TIP3   OH226062   0.077   0.969   1.484 -0.2326  0.0001  0.2610
 1524TIP3    H126063   0.074   0.910   1.559 -1.4922 -0.6101 -0.2448
 1524TIP3    H226064   0.052   1.055   1.519  0.2608 -0.0443  0.7340
 1525TIP3   OH226065   5.659   6.638  11.666 -0.3127  0.1156  0.3820
 1525TIP3    H126066   5.653   6.554  11.713  0.8984  0.8098  1.8708
 1525TIP3    H226067   5.736   6.627  11.609 -0.3720  0.1034  0.3033
 1526TIP3   OH226068   6.114   0.093  15.080 -0.3342  0.0761 -0.3537
 1526TIP3    H126069   6.087   0.002  15.066  0.3826 -0.1298 -0.4541
 1526TIP3    H226070   6.203   0.098  15.043  0.3851  0.3206  1.2982
 1527TIP3   OH226071   2.048   2.733   3.725 -0.3197 -0.0836 -0.9099
 1527TIP3    H126072   2.058   2.825   3.750  3.1167 -0.1381 -1.6175
 1527TIP3    H226073   2.002   2.693   3.799 -2.1100  2.1799 -0.6966
 1528TIP3   OH226074   2.508   0.275  13.846 -0.0450 -0.7005 -0.0377
 1528TIP3    H126075   2.427   0.300  13.891 -0.4099 -0.7064 -0.6768
 1528TIP3    H226076   2.501   0.181  13.835 -0.3692 -0.5907 -0.8697
 1529TIP3   OH226077   5.361   1.955  11.869  0.2211  0.2144  0.2379
 1529TIP3    H126078   5.321   2.018  11.809  0.6308  0.6348  0.4096
 1529TIP3    H226079   5.448   1.989  11.887  1.0821 -1.2147 -0.9373
 1530TIP3   OH226080   6.051   5.698   3.223  0.1500  0.2912 -0.0362
 1530TIP3    H126081   6.139   5.716   3.256 -0.2392  2.3968  0.0077
 1530TIP3    H226082   5.994   5.705   3.299 -0.2059  0.2696 -0.2965
 1531TIP3   OH226083   0.215   3.909   6.631  0.0517  0.2955  0.1082
 1531TIP3    H126084   0.256   3.835   6.676  0.3330  1.0733  1.1811
 1531TIP3    H226085   0.288   3.965   6.605 -0.1914  0.4957 -0.1500
 1532TIP3   OH226086   0.169   6.737   2.436 -0.3560 -0.2391  0.9693
 1532TIP3    H126087   0.181   6.771   2.348 -0.0000 -1.2388  0.6238
 1532TIP3    H226088   0.162   6.643   2.425 -0.9863 -0.3221  1.9432
 1533TIP3   OH226089   3.631   4.699   1.409  0.1148  0.6321  0.8282
 1533TIP3    H126090   3.598   4.718   1.321  0.2726 -0.5249  0.5022
 1533TIP3    H226091   3.725   4.717   1.404  0.4304 -0.9703  0.2607
 1534TIP3   OH226092   6.665   5.531  16.995 -0.6187 -0.3388 -1.2403
 1534TIP3    H126093   6.714   5.552  16.915  1.4484 -2.0552 -0.5221
 1534TIP3    H226094   6.659   5.614  17.042 -0.5156  0.3887 -2.4654
 1535TIP3   OH226095   5.248   5.198  10.939  0.1430 -0.5816  0.6676
 1535TIP3    H126096   5.206   5.113  10.919 -0.2586 -0.4558  0.9617
 1535TIP3    H226097   5.341   5.178  10.942  0.2972 -0.5288 -1.8488
 1536TIP3   OH226098   2.169   3.099   1.079 -0.1802 -0.0257  0.0807
 1536TIP3    H126099   2.190   3.015   1.119 -2.0067 -0.6911 -0.2424
 1536TIP3    H226100   2.239   3.114   1.015  0.4023 -1.0703  0.4559
 1537TIP3   OH226101   4.568   3.247  14.004  0.2827  0.0741 -0.3100
 1537TIP3    H126102   4.509   3.243  14.079  1.1496 -2.2005  0.3190
 1537TIP3    H226103   4.655   3.257  14.043  0.7865 -1.5545 -0.9244
 1538TIP3   OH226104   4.625   0.324  16.661  0.3237  0.0103 -0.1470
 1538TIP3    H126105   4.659   0.413  16.652  1.9713 -0.5109  0.4335
 1538TIP3    H226106   4.580   0.307  16.579  1.0571  0.9621 -0.7668
 1539TIP3   OH226107   2.568   0.458   2.508 -0.5829  0.3037 -0.3294
 1539TIP3    H126108   2.661   0.474   2.526 -0.8621 -0.5852  2.5644
 1539TIP3    H226109   2.537   0.411   2.586 -3.5049  0.7084 -1.1254
 1540TIP3   OH226110   3.617   1.350   4.751  0.1471  0.4547  0.5335
 1540TIP3    H126111   3.637   1.327   4.661  0.4257  1.6461  0.2729
 1540TIP3    H226112   3.681   1.300   4.803  0.1257 -0.0690  0.0655
 1541TIP3   OH226113   3.303   6.718   2.161 -0.3713 -0.3533 -0.5833
 1541TIP3    H126114   3.219   6.753   2.130 -0.4097 -0.4143 -0.5488
 1541TIP3    H226115   3.364   6.738   2.091 -0.2118  0.5262 -0.1999
 1542TIP3   OH226116   1.040   3.976  15.451  0.1570 -0.6822 -0.0726
 1542TIP3    H126117   1.041   3.887  15.416  0.1560 -0.3536 -0.9602
 1542TIP3    H226118   1.012   3.967  15.542 -0.1731 -1.5504 -0.2529
 1543TIP3   OH226119   2.210   6.385   0.808 -0.5757  0.1229  0.4837
 1543TIP3    H126120   2.298   6.351   0.825  0.0190 -0.3673 -2.8159
 1543TIP3    H226121   2.153   6.309   0.821 -0.1931 -0.1881  0.3778
 1544TIP3   OH226122   5.680   4.537  12.383 -0.0799  0.6991  0.5470
 1544TIP3    H126123   5.630   4.457  12.400 -0.7166  1.1763  1.0140
 1544TIP3    H226124   5.616   4.597  12.345  0.1454  1.3034  1.1026
 1545TIP3   OH226125   0.442   3.960  16.687  0.2866  0.9512 -0.3476
 1545TIP3    H126126   0.350   3.988  16.691  0.0789  0.7961 -2.5107
 1545TIP3    H226127   0.475   4.000  16.606  1.1498 -1.6302 -1.3738
 1546TIP3   OH226128   0.544   5.619   1.610  0.5467 -0.2416  0.3704
 1546TIP3    H126129   0.561   5.667   1.529 -2.0283  0.6507  0.2460
 1546TIP3    H226130   0.560   5.528   1.588 -1.0730 -0.1360 -1.5412
 1547TIP3   OH226131   5.752   3.787   2.758 -0.1451 -0.0566 -0.5722
 1547TIP3    H126132   5.764   3.831   2.842 -1.5956  0.7406 -0.7513
 1547TIP3    H226133   5.755   3.857   2.693  1.7422 -0.7512 -1.3016
 1548TIP3   OH226134   0.515   2.236   5.166  0.2700  0.9478  0.7367
 1548TIP3    H126135   0.574   2.161   5.169 -1.0718 -0.1582  0.6282
 1548TIP3    H226136   0.515   2.263   5.074 -0.3351  0.1418  0.4864
 1549TIP3   OH226137   5.550   2.463  16.503 -0.0062  0.0058  0.3756
 1549TIP3    H126138   5.610   2.520  16.455 -0.4099  0.7235  0.6989
 1549TIP3    H226139   5.527   2.514  16.582  0.2786 -0.9509  1.0910
 1550TIP3   OH226140   4.596   3.074   1.228  0.1585 -0.0556 -0.0533
 1550TIP3    H126141   4.633   3.076   1.316 -0.5872  0.0046  0.2677
 1550TIP3    H226142   4.672   3.064   1.170  0.8030  1.3735  0.4879
 1551TIP3   OH226143   6.705   3.627   5.742 -0.0596 -0.6028  0.0177
 1551TIP3    H126144   6.681   3.714   5.709  1.5785  0.2567  1.0230
 1551TIP3    H226145   6.800   3.628   5.749 -0.1259 -1.7970  1.9066
 1552TIP3   OH226146   1.810   1.882  17.232  0.0310  0.4827  0.0845
 1552TIP3    H126147   1.842   1.971  17.218 -0.3569  0.6041 -0.0238
 1552TIP3    H226148   1.886   1.826  17.211  0.1319  0.7637 -0.3197
 1553TIP3   OH226149   6.568   4.626   3.027  0.0185 -0.1289  0.1702
 1553TIP3    H126150   6.550   4.713   2.992 -0.3982 -0.2788  0.0006
 1553TIP3    H226151   6.538   4.566   2.958  0.8817 -0.3982  0.0155
 1554TIP3   OH226152   2.518   4.580  12.672  0.1495 -0.1751  0.4139
 1554TIP3    H126153   2.496   4.487  12.685 -1.3069  0.1191  0.2313
 1554TIP3    H226154   2.547   4.586  12.581  1.6409 -0.6698  0.8189
 1555TIP3   OH226155   5.758   6.394  10.878 -0.4470  0.2424 -0.0253
 1555TIP3    H126156   5.849   6.410  10.852 -1.0440  2.3178 -1.0508
 1555TIP3    H226157   5.727   6.330  10.814  0.0423  0.1999 -0.2306
 1556TIP3   OH226158   5.321   1.621   1.836 -0.7083  0.1507  0.2665
 1556TIP3    H126159   5.249   1.576   1.879 -1.8790  1.7675  0.0629
 1556TIP3    H226160   5.389   1.628   1.903 -1.3946  0.1292  0.9733
 1557TIP3   OH226161   4.998   0.333  15.862  0.0336 -0.5716 -0.0661
 1557TIP3    H126162   4.983   0.264  15.926 -0.2039 -0.0906  0.4128
 1557TIP3    H226163   4.917   0.384  15.863  0.8572  0.7800  0.9391
 1558TIP3   OH226164   6.340   6.363   2.865  0.4020 -0.2532  0.5608
 1558TIP3    H126165   6.379   6.409   2.791  0.0538 -1.6269 -0.5206
 1558TIP3    H226166   6.289   6.293   2.825 -0.1371 -0.7758  2.0997
 1559TIP3   OH226167   2.427   6.152  13.225 -0.1997 -0.7731 -0.2539
 1559TIP3    H126168   2.346   6.174  13.271 -0.1393 -1.2867  0.1024
 1559TIP3    H226169   2.495   6.201  13.272 -0.4686  0.8026 -1.4269
 1560TIP3   OH226170   5.082   6.793  11.844  0.2878 -0.1465  0.3112
 1560TIP3    H126171   5.138   6.756  11.912  0.6445  0.6913  0.4846
 1560TIP3    H226172   5.141   6.812  11.771 -0.3807 -2.9501 -1.0929
 1561TIP3   OH226173   1.454   1.230   5.424  0.0996 -0.1112 -0.1529
 1561TIP3    H126174   1.468   1.315   5.383 -1.5373  0.4300  0.3418
 1561TIP3    H226175   1.364   1.208   5.403  0.1300 -1.1616  0.7480
 1562TIP3   OH226176   6.522   0.634  16.095  0.5267  0.1241 -0.0942
 1562TIP3    H126177   6.512   0.613  16.002  0.2474  0.2677 -0.0961
 1562TIP3    H226178   6.611   0.668  16.101  1.0033 -1.0576 -0.0874
 1563TIP3   OH226179   0.141   6.035   0.281  0.1189 -0.1727  0.7923
 1563TIP3    H126180   0.181   6.033   0.194 -1.5286  1.0157 -0.0352
 1563TIP3    H226181   0.198   6.093   0.332  0.5552 -0.0983  0.2296
 1564TIP3   OH226182   5.614   4.129   2.744  0.0626 -0.2169 -0.1718
 1564TIP3    H126183   5.636   4.068   2.675  0.8346 -0.0509 -0.0810
 1564TIP3    H226184   5.566   4.077   2.809 -0.8491 -0.3253 -0.9117
 1565TIP3   OH226185   2.596   2.081   3.145  0.0142 -0.2450 -0.1269
 1565TIP3    H126186   2.647   2.037   3.077 -0.2924 -2.6028  1.0618
 1565TIP3    H226187   2.640   2.058   3.226 -0.1531  1.7588  0.5702
 1566TIP3   OH226188   1.253   4.478   0.572  0.2817 -0.3665 -0.1882
 1566TIP3    H126189   1.189   4.545   0.547  1.5619  1.0145  0.1160
 1566TIP3    H226190   1.315   4.523   0.630  1.0747 -1.8656  0.1899
 1567TIP3   OH226191   5.391   0.621  13.572  0.1000 -0.2155 -0.6980
 1567TIP3    H126192   5.377   0.707  13.532 -1.4406  0.8056  1.8246
 1567TIP3    H226193   5.321   0.567  13.537  0.2856 -0.0799 -1.2914
 1568TIP3   OH226194   5.597   4.322  14.656  0.1552  0.2995 -0.1108
 1568TIP3    H126195   5.526   4.324  14.720  0.0624 -0.5379 -0.1735
 1568TIP3    H226196   5.556   4.350  14.574 -0.4400 -1.4068 -0.4370
 1569TIP3   OH226197   6.782   0.844  15.810 -0.4613 -0.1734 -0.5957
 1569TIP3    H126198   6.719   0.845  15.738 -0.0050  1.2833 -1.0178
 1569TIP3    H226199   6.784   0.935  15.842  0.0802 -0.5878  0.6043
 1570TIP3   OH226200   1.712   2.848  11.148 -0.2297 -0.4352  0.1643
 1570TIP3    H126201   1.623   2.868  11.118 -0.4368  1.4157  1.8208
 1570TIP3    H226202   1.769   2.880  11.078 -0.8163 -0.4592 -0.3345
 1571TIP3   OH226203   5.897   2.929   3.353 -0.0802 -0.2269  0.3683
 1571TIP3    H126204   5.965   2.989   3.384 -0.1192 -0.2858  0.5694
 1571TIP3    H226205   5.922   2.910   3.262 -1.0333  1.4788 -0.2970
 1572TIP3   OH226206   6.108   6.714  11.096 -0.3766 -0.6666  0.5312
 1572TIP3    H126207   6.200   6.707  11.069 -0.1033  0.3271  1.1878
 1572TIP3    H226208   6.076   6.794  11.055 -0.4624 -0.0973  1.6741
 1573TIP3   OH226209   1.054   2.602  16.647  0.1288 -0.2192 -0.4283
 1573TIP3    H126210   1.056   2.693  16.676 -0.8009  0.2874 -1.8657
 1573TIP3    H226211   1.145   2.571  16.659 -0.0604  0.0390  2.4971
 1574TIP3   OH226212   3.829   3.089  13.701  0.5387  0.6411  0.4793
 1574TIP3    H126213   3.812   3.046  13.617  0.6977 -0.6925  1.1050
 1574TIP3    H226214   3.924   3.077  13.714  0.3194 -0.2315  1.3972
 1575TIP3   OH226215   2.962   0.562  15.021 -0.4134 -0.0189 -0.2615
 1575TIP3    H126216   3.024   0.635  15.020  1.0827 -1.2301 -0.9642
 1575TIP3    H226217   2.990   0.508  15.095 -1.3093 -0.0528  0.0684
 1576TIP3   OH226218   0.378   1.977  13.705 -0.3542  0.3961 -0.2151
 1576TIP3    H126219   0.325   1.897  13.716  0.9744 -0.6398 -1.0587
 1576TIP3    H226220   0.462   1.946  13.672  1.4879  1.7924  2.7304
 1577TIP3   OH226221   5.077   4.437  14.169 -0.2283  0.1399 -0.1329
 1577TIP3    H126222   5.043   4.513  14.122 -1.9021 -0.2329  0.4133
 1577TIP3    H226223   5.016   4.424  14.242  2.2414  0.6621  2.1964
 1578TIP3   OH226224   4.984   4.448   2.402 -0.5691  0.1021 -0.4156
 1578TIP3    H126225   5.071   4.420   2.374 -0.7200 -0.5831 -0.2008
 1578TIP3    H226226   4.967   4.527   2.350 -1.2795 -1.6907 -3.1203
 1579TIP3   OH226227   4.501   3.172   1.960 -0.0936  0.2927  0.2289
 1579TIP3    H126228   4.567   3.103   1.968 -1.5785 -1.2154  0.0504
 1579TIP3    H226229   4.552   3.253   1.961  1.6800 -0.7451  1.1032
 1580TIP3   OH226230   1.057   2.226  15.594  0.2652 -0.4159 -0.0765
 1580TIP3    H126231   1.007   2.171  15.654 -1.4986 -1.2678 -2.2142
 1580TIP3    H226232   1.013   2.311  15.598 -0.9560 -0.9560 -1.3949
 1581TIP3   OH226233   2.623   1.407   3.848 -0.1908  0.1615 -0.7648
 1581TIP3    H126234   2.693   1.364   3.799 -0.0022  1.2875 -1.5452
 1581TIP3    H226235   2.636   1.379   3.938  1.9187  1.1029 -0.7118
 1582TIP3   OH226236   0.552   4.766  16.439 -0.0106 -0.1827 -0.1432
 1582TIP3    H126237   0.502   4.840  16.404  1.8448  0.7222 -1.0374
 1582TIP3    H226238   0.573   4.792  16.528  1.7383  1.0574 -0.8463
 1583TIP3   OH226239   5.877   1.413   3.609 -0.2097 -0.5040 -0.0922
 1583TIP3    H126240   5.813   1.351   3.575 -0.2495 -1.6626  1.9813
 1583TIP3    H226241   5.961   1.378   3.581 -0.3546 -0.1418 -1.0042
 1584TIP3   OH226242   0.030   0.531   3.911  0.2655  0.1947 -0.3002
 1584TIP3    H126243   0.040   0.482   3.829  1.1857  3.2841 -2.1969
 1584TIP3    H226244   0.102   0.500   3.966  0.7441 -0.6436 -1.3473
 1585TIP3   OH226245   0.108   6.370  15.697  1.2142  0.4961 -0.2882
 1585TIP3    H126246   0.066   6.425  15.631  1.0043 -0.8371 -1.3047
 1585TIP3    H226247   0.050   6.294  15.705  1.6648  0.2522  0.8417
 1586TIP3   OH226248   1.586   3.713  14.297 -0.9338 -0.7769 -0.3447
 1586TIP3    H126249   1.532   3.773  14.244  0.5169  1.0183  0.1174
 1586TIP3    H226250   1.578   3.746  14.386  1.4947  0.0471 -0.3633
 1587TIP3   OH226251   2.507   5.931  14.497 -0.3293  0.4839 -0.2976
 1587TIP3    H126252   2.416   5.927  14.525 -0.1218 -0.3820  0.3056
 1587TIP3    H226253   2.541   6.011  14.537 -1.1751  1.5689 -1.6760
 1588TIP3   OH226254   6.275   5.949  15.009  0.2827  0.6760  0.1949
 1588TIP3    H126255   6.335   6.004  15.060  1.5164  0.2960 -0.7933
 1588TIP3    H226256   6.195   5.945  15.062  1.7220 -0.2257  2.4365
 1589TIP3   OH226257   4.586   4.869  15.831 -0.2370  0.2243  1.1416
 1589TIP3    H126258   4.524   4.910  15.771 -0.5042  1.3861  2.1891
 1589TIP3    H226259   4.659   4.930  15.836  1.0929 -1.1740 -0.1618
 1590TIP3   OH226260   2.228   1.442  16.210  0.8285 -0.4697 -0.1240
 1590TIP3    H126261   2.183   1.435  16.294  0.3213  0.6379 -0.2966
 1590TIP3    H226262   2.295   1.373  16.214  0.4184 -0.8371  0.9286
 1591TIP3   OH226263   0.995   0.912   6.660  0.1375 -0.2567 -0.6682
 1591TIP3    H126264   0.957   0.826   6.646  1.2129 -0.7622 -0.5654
 1591TIP3    H226265   1.014   0.915   6.754  0.8023 -0.2026 -0.8027
 1592TIP3   OH226266   6.357   5.493  15.369 -0.3520 -0.1728  0.4369
 1592TIP3    H126267   6.433   5.539  15.405  0.2045 -0.7050 -0.0424
 1592TIP3    H226268   6.314   5.558  15.314  0.1721 -0.0805  0.1239
 1593TIP3   OH226269   1.759   2.515  12.380  0.0033 -0.0762  0.5688
 1593TIP3    H126270   1.744   2.431  12.424  1.8773  0.2899  2.0243
 1593TIP3    H226271   1.847   2.508  12.343 -0.8939  0.2381 -1.8625
 1594TIP3   OH226272   1.255   3.408   0.981  0.1064  0.4321  0.5377
 1594TIP3    H126273   1.209   3.483   0.945 -0.1182 -0.5961 -1.5105
 1594TIP3    H226274   1.262   3.347   0.907  1.2708 -1.0822  1.8215
 1595TIP3   OH226275   6.005   0.682  16.102 -0.4577  0.0263  0.2459
 1595TIP3    H126276   6.019   0.758  16.046 -2.9595 -1.3000 -2.4054
 1595TIP3    H226277   6.089   0.636  16.101  0.0449  0.9184 -1.0077
 1596TIP3   OH226278   5.122   1.225  13.736 -0.1496  0.2640 -0.2421
 1596TIP3    H126279   5.031   1.213  13.712 -0.0387 -1.8432  0.2481
 1596TIP3    H226280   5.159   1.276  13.663 -1.3617 -0.1232 -1.1620
 1597TIP3   OH226281   4.725   2.227  12.670  0.1354 -0.0528 -0.1154
 1597TIP3    H126282   4.631   2.210  12.664  0.0776 -0.5614  1.6590
 1597TIP3    H226283   4.732   2.310  12.718  0.5969 -0.8210  1.1835
 1598TIP3   OH226284   5.288   1.344   4.384 -0.5073 -0.1811  0.3378
 1598TIP3    H126285   5.307   1.250   4.384 -1.2173 -0.3748 -1.6424
 1598TIP3    H226286   5.193   1.349   4.385 -0.6300  0.3432 -2.6877
 1599TIP3   OH226287   3.412   3.027  13.805 -0.2246 -0.2124 -0.4274
 1599TIP3    H126288   3.485   3.054  13.860 -1.2852  1.9415  0.0011
 1599TIP3    H226289   3.358   2.971  13.862  1.0852 -1.9551 -0.7972
 1600TIP3   OH226290   6.232   1.141  15.946  0.2356 -0.0093 -0.3932
 1600TIP3    H126291   6.290   1.066  15.937 -1.5379 -1.8243  1.9064
 1600TIP3    H226292   6.272   1.209  15.893  3.0698 -1.9042 -0.8975
 1601TIP3   OH226293   6.240   1.250  17.055 -0.9715 -0.1008 -0.1840
 1601TIP3    H126294   6.182   1.315  17.093  0.0892 -0.4527  2.2068
 1601TIP3    H226295   6.202   1.166  17.079 -1.5273 -0.4125 -1.9767
 1602TIP3   OH226296   5.443   1.655  14.106 -0.0660 -0.4148 -1.0530
 1602TIP3    H126297   5.483   1.572  14.131 -0.4649 -0.3227 -0.0504
 1602TIP3    H226298   5.350   1.635  14.097 -0.1550 -0.0950 -0.8652
 1603TIP3   OH226299   2.863   6.161   6.285  0.7626  0.0594  0.5416
 1603TIP3    H126300   2.882   6.237   6.340  0.3152 -0.5348  1.5420
 1603TIP3    H226301   2.770   6.143   6.299  0.5580  0.0913 -0.6772
 1604TIP3   OH226302   2.315   6.349  12.629  0.0019  0.4044 -0.4991
 1604TIP3    H126303   2.311   6.360  12.724  0.8205 -0.3542 -0.3581
 1604TIP3    H226304   2.313   6.438  12.594  3.5234  1.0226  0.4196
 1605TIP3   OH226305   5.310   0.880  12.209  0.3175 -0.1270  0.1479
 1605TIP3    H126306   5.233   0.843  12.253  1.3023 -1.9049  0.5003
 1605TIP3    H226307   5.276   0.917  12.128 -0.8090 -1.6281 -0.1154
 1606TIP3   OH226308   5.047   6.627  16.610 -0.7560 -0.3400 -0.5624
 1606TIP3    H126309   5.100   6.673  16.546  0.8635 -2.3063 -0.7486
 1606TIP3    H226310   4.967   6.679  16.617  1.0732  2.6978 -0.3819
 1607TIP3   OH226311   1.213   3.245  14.154  0.0323  0.4747 -0.1169
 1607TIP3    H126312   1.293   3.298  14.146 -0.8833  1.6370 -2.2497
 1607TIP3    H226313   1.231   3.167  14.102 -0.0492  0.5562 -0.2707
 1608TIP3   OH226314   1.287   0.018  15.182 -0.3875  0.0708  0.1205
 1608TIP3    H126315   1.216  -0.023  15.132 -0.3099 -2.1938  1.6979
 1608TIP3    H226316   1.243   0.066  15.251 -0.4527 -1.3048  1.0771
 1609TIP3   OH226317   0.644   2.056  14.044  0.4518  0.3474 -0.3217
 1609TIP3    H126318   0.697   2.000  14.101  2.3694  0.3494 -1.9747
 1609TIP3    H226319   0.605   1.996  13.980 -0.4204  0.5189  0.0354
 1610TIP3   OH226320   5.334   6.142   3.160  0.4544  0.1862  0.4221
 1610TIP3    H126321   5.400   6.151   3.230 -0.1329 -0.8698  1.1342
 1610TIP3    H226322   5.253   6.120   3.206 -0.5546  1.9690 -0.3990
 1611TIP3   OH226323   6.483   6.042  15.712 -0.6773  0.1394 -0.5092
 1611TIP3    H126324   6.405   6.066  15.761 -1.5763 -1.9574 -0.7851
 1611TIP3    H226325   6.510   5.958  15.750  2.1767  1.3259  0.3628
 1612TIP3   OH226326   0.610   4.416  15.123 -0.0563  0.6975 -0.5608
 1612TIP3    H126327   0.705   4.416  15.122  0.1956  2.9646  3.3910
 1612TIP3    H226328   0.586   4.323  15.126  2.1768  0.0874  0.2475
 1613TIP3   OH226329   4.983   5.234   5.927 -0.1597  0.2167  0.2695
 1613TIP3    H126330   5.040   5.270   5.996  0.9134 -1.6820  0.4446
 1613TIP3    H226331   5.035   5.165   5.887 -1.9446 -0.8189 -0.3634
 1614TIP3   OH226332   4.241   1.399   1.062 -1.0277  0.8021 -0.4547
 1614TIP3    H126333   4.313   1.436   1.114 -0.3494 -1.5769  0.4189
 1614TIP3    H226334   4.162   1.437   1.100 -0.3531  2.1959 -0.3570
 1615TIP3   OH226335   4.471   6.011  16.341  0.4257 -0.2319  0.6196
 1615TIP3    H126336   4.538   6.016  16.409  0.4230 -0.1374  0.6148
 1615TIP3    H226337   4.395   6.055  16.378  0.8593  1.0536  0.0300
 1616TIP3   OH226338   3.743   0.421  12.682  0.1532  0.1718 -0.2927
 1616TIP3    H126339   3.746   0.495  12.742 -0.3813  0.1097 -0.1899
 1616TIP3    H226340   3.816   0.436  12.622  0.5933  0.3134  0.2738
 1617TIP3   OH226341   3.831   2.597  16.672  0.0109 -0.3044 -0.1867
 1617TIP3    H126342   3.839   2.536  16.745  0.6009  0.4968  0.4419
 1617TIP3    H226343   3.856   2.682  16.709 -1.7659  0.5200 -0.7766
 1618TIP3   OH226344   2.644   1.209  12.577 -0.7675  0.7302  0.2284
 1618TIP3    H126345   2.715   1.147  12.561  0.7244  2.4588 -0.2301
 1618TIP3    H226346   2.586   1.165  12.638  1.4469 -0.2535  1.7259
 1619TIP3   OH226347   5.751   0.477   2.396 -0.0294  0.5832 -0.8318
 1619TIP3    H126348   5.802   0.540   2.345  0.2731  0.6678 -0.4284
 1619TIP3    H226349   5.759   0.394   2.348  0.8193  0.5004 -0.5541
 1620TIP3   OH226350   1.885   4.613   5.806  0.0085  0.1772  0.3704
 1620TIP3    H126351   1.841   4.550   5.864 -0.3567 -0.6003 -0.7298
 1620TIP3    H226352   1.977   4.586   5.808 -0.2893 -1.0672 -0.8749
 1621TIP3   OH226353   1.356   5.611   2.282  0.2452  0.0396 -0.2410
 1621TIP3    H126354   1.446   5.631   2.256  0.9616 -3.1132 -0.6321
 1621TIP3    H226355   1.364   5.535   2.340 -2.1787 -0.2647 -0.1949
 1622TIP3   OH226356   4.042   2.171   2.404  0.2124 -0.0473 -0.0040
 1622TIP3    H126357   4.133   2.146   2.388 -0.2333 -1.0529 -1.0595
 1622TIP3    H226358   4.040   2.265   2.386  0.7476 -0.2830 -1.4200
 1623TIP3   OH226359   4.362   4.410   2.546  0.2074 -0.4315 -0.5965
 1623TIP3    H126360   4.441   4.420   2.493  0.8753 -2.9070 -0.1974
 1623TIP3    H226361   4.306   4.352   2.495 -0.0462 -1.1334  0.4472
 1624TIP3   OH226362   0.906   3.815  16.156 -0.8229 -0.2039 -0.2891
 1624TIP3    H126363   0.976   3.822  16.221 -0.5004 -1.6804 -0.4428
 1624TIP3    H226364   0.847   3.748  16.192 -1.3070 -0.1336 -0.9265
 1625TIP3   OH226365   4.939   6.282  13.321  0.0128 -0.1193  0.0068
 1625TIP3    H126366   4.981   6.208  13.278 -3.4352 -2.2808 -0.0395
 1625TIP3    H226367   4.948   6.264  13.415 -0.4421 -0.3784  0.0027
 1626TIP3   OH226368   4.928   0.839  16.329  0.0900 -0.2095 -0.2341
 1626TIP3    H126369   4.971   0.892  16.397 -1.0539 -1.0894  1.2401
 1626TIP3    H226370   4.996   0.779  16.299  0.5225 -0.0645  0.4309
 1627TIP3   OH226371   6.218   5.199  15.781  0.1940  0.5410  0.2945
 1627TIP3    H126372   6.274   5.137  15.827 -0.8872  1.0323  2.3924
 1627TIP3    H226373   6.279   5.259  15.739  1.2439 -1.4913 -1.2204
 1628TIP3   OH226374   1.515   1.788  15.193 -0.0877  0.0476 -0.2049
 1628TIP3    H126375   1.564   1.755  15.118  0.4252  1.4923 -0.5167
 1628TIP3    H226376   1.540   1.730  15.265  0.1461 -0.7546 -0.9111
 1629TIP3   OH226377   3.950   6.055   3.880  0.0836  0.5974 -0.1735
 1629TIP3    H126378   3.924   6.104   3.802 -0.9849 -0.4001 -0.4709
 1629TIP3    H226379   3.964   6.123   3.947  1.6883  1.5209 -1.3702
 1630TIP3   OH226380   2.090   5.077  14.005  0.1700  0.6588 -0.1270
 1630TIP3    H126381   2.000   5.052  13.984  0.4233 -0.7052  0.3580
 1630TIP3    H226382   2.116   5.133  13.932 -0.4241 -0.5113 -1.2796
 1631TIP3   OH226383   3.626   2.212  12.742  1.1031 -0.5733 -0.0929
 1631TIP3    H126384   3.551   2.266  12.718  1.4631  0.0167  0.1056
 1631TIP3    H226385   3.703   2.266  12.723  1.4464 -0.7679  0.6804
 1632TIP3   OH226386   2.601   3.841  15.095  0.1490 -0.0997  0.3926
 1632TIP3    H126387   2.577   3.785  15.021 -0.8838  0.9701 -0.1299
 1632TIP3    H226388   2.652   3.912  15.055 -0.9417  0.8156  0.5953
 1633TIP3   OH226389   3.522   4.205   2.840 -0.9274 -0.8059  0.1601
 1633TIP3    H126390   3.580   4.280   2.851  0.5466 -2.1273  1.9697
 1633TIP3    H226391   3.514   4.195   2.745  0.8208  0.1754 -0.1391
 1634TIP3   OH226392   3.737   6.065  13.465  0.4340  0.3200  0.0760
 1634TIP3    H126393   3.728   6.159  13.449 -0.0248  0.3555  0.5360
 1634TIP3    H226394   3.686   6.049  13.543 -1.7294 -0.7666 -1.4645
 1635TIP3   OH226395   0.859   1.525   0.631 -0.1272  0.4045 -0.4167
 1635TIP3    H126396   0.804   1.604   0.632  0.4076  0.7772  0.3273
 1635TIP3    H226397   0.820   1.470   0.564 -0.2856  1.4719 -1.2359
 1636TIP3   OH226398   0.817   2.821   0.367  0.2972  0.0113 -0.0963
 1636TIP3    H126399   0.862   2.777   0.295  1.7903  0.0857  0.7572
 1636TIP3    H226400   0.734   2.774   0.376  0.0762  0.0057 -1.8482
 1637TIP3   OH226401   3.361   5.628   4.471 -0.3247 -0.5910 -0.8044
 1637TIP3    H126402   3.317   5.545   4.451 -0.0373 -0.5916 -1.4607
 1637TIP3    H226403   3.451   5.604   4.490 -0.8091 -0.7256  1.7008
 1638TIP3   OH226404   2.535   3.695   3.565  0.0282 -0.5365 -0.0825
 1638TIP3    H126405   2.612   3.689   3.623  0.2408 -2.8231 -0.5202
 1638TIP3    H226406   2.491   3.611   3.575 -1.7493  0.2632 -0.8095
 1639TIP3   OH226407   3.700   4.674   0.805 -0.2187  0.0066 -0.0457
 1639TIP3    H126408   3.785   4.646   0.839 -1.2816 -1.5000  1.5776
 1639TIP3    H226409   3.696   4.637   0.717  0.4590 -0.7002  0.2114
 1640TIP3   OH226410   0.736   1.977   6.491 -0.1383 -0.0415  0.1943
 1640TIP3    H126411   0.825   1.943   6.492 -0.3641 -0.6706 -0.4409
 1640TIP3    H226412   0.682   1.904   6.522 -0.3018  0.7853  2.0201
 1641TIP3   OH226413   5.818   3.461  15.718 -0.2363 -0.1766 -0.3747
 1641TIP3    H126414   5.846   3.551  15.732 -2.6005  0.4118  1.1202
 1641TIP3    H226415   5.731   3.456  15.759 -0.2733 -3.0798 -0.6075
 1642TIP3   OH226416   5.646   0.516  16.550  0.2942  0.0836  0.5499
 1642TIP3    H126417   5.601   0.475  16.477  2.8844 -0.3264 -0.9264
 1642TIP3    H226418   5.582   0.513  16.622 -2.3651  0.5169 -1.6098
 1643TIP3   OH226419   2.169   5.576  15.965  0.5729 -0.1480 -0.4768
 1643TIP3    H126420   2.093   5.560  15.910 -0.0347  0.2442  0.2359
 1643TIP3    H226421   2.236   5.516  15.931 -0.2418 -0.9541 -0.6934
 1644TIP3   OH226422   1.279   4.675  16.526 -0.0509  0.0093  0.4676
 1644TIP3    H126423   1.265   4.580  16.523  1.6708 -0.2655 -0.5527
 1644TIP3    H226424   1.355   4.686  16.584 -0.5538  0.8348  0.9976
 1645TIP3   OH226425   3.905   5.161   5.353  0.6208  0.5616 -0.2055
 1645TIP3    H126426   3.908   5.075   5.394 -0.8435  0.6581  0.1907
 1645TIP3    H226427   3.935   5.221   5.422 -0.5776  0.5860  0.3187
 1646TIP3   OH226428   1.018   4.152   1.041  0.2518 -0.0455  0.3469
 1646TIP3    H126429   1.045   4.164   1.132  2.5397 -0.2372 -0.2389
 1646TIP3    H226430   1.061   4.071   1.013  0.4763  0.5664 -1.2069
 1647TIP3   OH226431   3.864   1.771  12.119 -0.7457  0.3973  0.7846
 1647TIP3    H126432   3.882   1.718  12.042  0.7264  1.8411  0.0774
 1647TIP3    H226433   3.923   1.737  12.186 -0.5773  0.4384  0.6573
 1648TIP3   OH226434   5.332   1.156   3.070  0.2217 -0.6090  0.3876
 1648TIP3    H126435   5.385   1.126   2.996 -0.7284 -1.8710  0.1716
 1648TIP3    H226436   5.337   1.085   3.134  1.1825  0.5498  1.6559
 1649TIP3   OH226437   6.404   2.879  14.384  0.2773 -0.0059 -0.2937
 1649TIP3    H126438   6.472   2.885  14.452 -1.6091  0.9530  1.6330
 1649TIP3    H226439   6.420   2.955  14.328  0.8249  0.1760  0.0972
 1650TIP3   OH226440   3.358   2.304  12.937 -0.5456  0.0909 -0.2241
 1650TIP3    H126441   3.269   2.305  12.972 -0.5346 -1.0748 -0.1126
 1650TIP3    H226442   3.348   2.268  12.849 -0.0587 -1.3945  0.2848
 1651TIP3   OH226443   0.325   6.497  14.781 -0.0342 -0.3318  0.4089
 1651TIP3    H126444   0.248   6.463  14.826 -0.4977 -0.6335 -0.5934
 1651TIP3    H226445   0.315   6.592  14.782 -1.0268 -0.4034 -0.7391
 1652TIP3   OH226446   2.222   4.444  10.561  0.0120  0.1302  0.0419
 1652TIP3    H126447   2.267   4.376  10.509 -1.5014  0.2890 -1.5667
 1652TIP3    H226448   2.284   4.517  10.564  0.8950 -0.6068  0.1499
 1653TIP3   OH226449   2.624   6.573   2.187  0.8231 -0.6546 -0.0121
 1653TIP3    H126450   2.587   6.546   2.271  0.3088 -1.8404 -0.5911
 1653TIP3    H226451   2.550   6.605   2.136  1.0446 -0.4434 -0.2075
 1654TIP3   OH226452   2.453   1.119  13.174  0.2850 -0.3803 -0.4359
 1654TIP3    H126453   2.450   1.215  13.176  0.7620 -0.3811  0.6248
 1654TIP3    H226454   2.373   1.091  13.219  1.4102 -0.4518  1.6186
 1655TIP3   OH226455   2.273   6.317   3.628 -0.1217 -0.5764  0.6525
 1655TIP3    H126456   2.329   6.387   3.660  0.1524  0.2623 -1.5154
 1655TIP3    H226457   2.276   6.325   3.533 -0.5508 -3.1746  0.3386
 1656TIP3   OH226458   5.176   4.056   1.070 -0.2654  0.0102 -0.5529
 1656TIP3    H126459   5.145   3.982   1.017 -2.2959 -0.0062  0.5609
 1656TIP3    H226460   5.226   4.014   1.140  1.3045 -0.0526 -1.6648
 1657TIP3   OH226461   2.850   3.890   1.222 -0.0891  0.3710 -0.5789
 1657TIP3    H126462   2.940   3.884   1.252  0.0681  0.0385 -1.1110
 1657TIP3    H226463   2.847   3.836   1.144 -1.2533 -1.3014  0.5599
 1658TIP3   OH226464   2.078   4.166   4.688 -0.0477 -0.2314 -0.0741
 1658TIP3    H126465   2.028   4.145   4.608 -0.1588 -0.4678  0.0577
 1658TIP3    H226466   2.151   4.219   4.656 -1.5657  2.0383 -0.0298
 1659TIP3   OH226467   0.779   0.701   2.107  0.3401  0.3513 -0.1714
 1659TIP3    H126468   0.730   0.776   2.075  0.6367  0.3927 -0.5376
 1659TIP3    H226469   0.805   0.725   2.196  0.0360  0.4881 -0.1205
 1660TIP3   OH226470   0.403   2.301   5.765 -0.0992 -0.0893 -0.2458
 1660TIP3    H126471   0.446   2.274   5.847 -0.3764  0.7251  0.1846
 1660TIP3    H226472   0.320   2.255   5.765  0.0731 -0.4015 -0.2674
 1661TIP3   OH226473   0.820   3.155  16.017 -0.3262 -0.1126 -0.1834
 1661TIP3    H126474   0.780   3.084  15.965 -0.9424  1.5411 -2.1123
 1661TIP3    H226475   0.747   3.210  16.043  0.4057  1.7973 -1.9169
 1662TIP3   OH226476   5.948   1.247   5.006 -0.4259 -0.2154 -0.0947
 1662TIP3    H126477   6.019   1.190   5.036 -1.4838 -0.8220  1.4218
 1662TIP3    H226478   5.885   1.187   4.966  0.2429  0.4159 -2.1900
 1663TIP3   OH226479   1.142   3.584   4.818 -0.3979  0.7211 -0.1399
 1663TIP3    H126480   1.160   3.490   4.818 -0.1631  0.6932  2.5116
 1663TIP3    H226481   1.050   3.590   4.847 -0.9324  1.2880 -1.8526
 1664TIP3   OH226482   3.632   4.187   5.060 -1.1201 -0.2569 -0.2223
 1664TIP3    H126483   3.662   4.156   4.974  0.5826  0.3040  0.1168
 1664TIP3    H226484   3.706   4.238   5.093 -0.9816 -1.9807  2.3743
 1665TIP3   OH226485   5.592   6.644   1.038  0.3652 -0.3064 -0.4052
 1665TIP3    H126486   5.579   6.589   1.115 -0.8441  0.7941  0.2247
 1665TIP3    H226487   5.601   6.583   0.966 -0.0462 -1.3414  0.3959
 1666TIP3   OH226488   1.952   6.401  13.192  0.2466 -0.4012 -0.8242
 1666TIP3    H126489   1.882   6.466  13.198 -0.8252 -1.5763  0.4473
 1666TIP3    H226490   1.915   6.331  13.137  0.7390 -0.6559 -0.8377
 1667TIP3   OH226491   5.994   2.073   5.970 -0.3911  0.2028 -0.2049
 1667TIP3    H126492   5.999   2.034   6.057  0.9057  0.0705 -0.3103
 1667TIP3    H226493   6.066   2.032   5.922 -1.4439 -0.1588 -1.5311
 1668TIP3   OH226494   0.321   5.460   0.821 -0.1735 -0.3561 -0.0541
 1668TIP3    H126495   0.367   5.539   0.851 -1.1881  0.5714 -0.8716
 1668TIP3    H226496   0.241   5.458   0.873 -0.4936 -0.4506 -0.5549
 1669TIP3   OH226497   0.802   5.187   3.682  0.5476 -0.6396  0.3860
 1669TIP3    H126498   0.740   5.114   3.677  0.7371 -0.9977  2.2592
 1669TIP3    H226499   0.776   5.234   3.762  2.3878 -0.5537  0.9892
 1670TIP3   OH226500   0.271   4.601   2.380  0.4571 -0.0220  0.1887
 1670TIP3    H126501   0.186   4.643   2.366 -0.0151 -0.8835  0.4107
 1670TIP3    H226502   0.312   4.602   2.293 -0.3640 -0.8340 -0.2276
 1671TIP3   OH226503   3.741   5.258  12.258 -0.5368  0.3421 -0.1835
 1671TIP3    H126504   3.686   5.326  12.218  0.1041 -1.1139 -3.9236
 1671TIP3    H226505   3.807   5.306  12.307 -1.7793  2.2846 -0.3086
 1672TIP3   OH226506   5.677   5.805  16.774 -0.0918 -0.3278 -0.4906
 1672TIP3    H126507   5.595   5.788  16.727 -0.1415  1.0195 -0.9377
 1672TIP3    H226508   5.746   5.780  16.712 -0.1508 -0.9338 -0.3203
 1673TIP3   OH226509   2.952   3.029  14.778  0.3098  0.5535 -0.5239
 1673TIP3    H126510   2.989   2.943  14.798 -0.7351  0.1759 -0.1703
 1673TIP3    H226511   2.966   3.081  14.858  1.2761  0.8467 -0.8673
 1674TIP3   OH226512   0.405   5.617   2.649  0.2832 -0.3384 -0.1967
 1674TIP3    H126513   0.482   5.564   2.628  0.8294 -0.0690  1.0749
 1674TIP3    H226514   0.441   5.703   2.672 -0.4805  0.1143 -0.6522
 1675TIP3   OH226515   5.328   3.033   5.989 -0.6809 -0.0295  0.3345
 1675TIP3    H126516   5.296   3.106   5.936  1.2842  2.6926  2.5277
 1675TIP3    H226517   5.302   3.055   6.078  1.2895 -1.1700  1.2786
 1676TIP3   OH226518   5.315   2.242  15.123 -0.3394  0.3526  0.3308
 1676TIP3    H126519   5.264   2.248  15.042 -0.9951 -1.8142  0.5260
 1676TIP3    H226520   5.330   2.148  15.135 -0.6552  0.5605  2.9519
 1677TIP3   OH226521   0.471   0.628  16.284 -0.1301 -0.0533  0.1529
 1677TIP3    H126522   0.459   0.719  16.307  1.1124  0.1299  0.1785
 1677TIP3    H226523   0.384   0.597  16.258 -0.5282  1.1724 -0.0114
 1678TIP3   OH226524   2.696   2.383  17.267  0.4846  0.0294  0.3169
 1678TIP3    H126525   2.606   2.414  17.278  0.1527 -0.5952 -0.5314
 1678TIP3    H226526   2.742   2.458  17.228 -0.4404 -0.5988 -2.2111
 1679TIP3   OH226527   3.640   0.769  11.159 -0.1594 -0.2862 -0.5420
 1679TIP3    H126528   3.588   0.825  11.216 -1.2261 -0.3886 -1.3849
 1679TIP3    H226529   3.687   0.710  11.219  0.3426  0.9369  0.3063
 1680TIP3   OH226530   2.800   5.343  16.208 -0.1764  0.8563 -0.1774
 1680TIP3    H126531   2.705   5.336  16.201 -0.0581 -3.4452 -0.4453
 1680TIP3    H226532   2.818   5.334  16.302 -0.0161  1.4028 -0.1521
 1681TIP3   OH226533   1.967   6.753  16.955  0.1611  0.2419  0.1880
 1681TIP3    H126534   2.021   6.740  16.877  0.8379  1.0123  0.5164
 1681TIP3    H226535   1.878   6.733  16.926  0.5127 -0.2845 -0.5620
 1682TIP3   OH226536   6.410   2.988   3.659  0.3331  0.3398 -0.0773
 1682TIP3    H126537   6.390   2.907   3.705  1.6282 -0.2628 -0.5338
 1682TIP3    H226538   6.388   3.058   3.721  1.6653 -0.4405  1.3256
 1683TIP3   OH226539   4.153   4.941   5.627 -0.0690  0.7246 -0.1704
 1683TIP3    H126540   4.121   4.919   5.539 -2.0459 -0.1162  0.6806
 1683TIP3    H226541   4.208   4.866   5.651  1.0962  1.3074 -0.9502
 1684TIP3   OH226542   3.313   4.117   0.144  0.5393 -0.0543 -0.2110
 1684TIP3    H126543   3.220   4.135   0.143  0.0694 -2.2026  0.0278
 1684TIP3    H226544   3.352   4.187   0.092 -1.0744  1.4334  0.5195
 1685TIP3   OH226545   6.717   4.050  12.777 -0.5307  0.3078 -0.2737
 1685TIP3    H126546   6.703   4.103  12.856  0.1175  1.6322 -1.0006
 1685TIP3    H226547   6.643   4.072  12.721 -1.2071 -0.9413  0.0916
 1686TIP3   OH226548   3.000   3.826  15.170 -0.4233  0.0010 -0.5172
 1686TIP3    H126549   2.949   3.770  15.112 -0.9305 -0.4058  0.3100
 1686TIP3    H226550   2.939   3.854  15.238  0.2721  0.0633  0.1031
 1687TIP3   OH226551   5.836   6.586  16.207 -0.1051 -0.3315  0.2141
 1687TIP3    H126552   5.780   6.516  16.242 -0.0391 -0.4713  0.0425
 1687TIP3    H226553   5.874   6.627  16.284 -1.7645  0.8986  0.4406
 1688TIP3   OH226554   3.902   4.336  13.581  0.3145  0.4418 -0.7511
 1688TIP3    H126555   3.927   4.252  13.542 -0.9068 -0.2345 -0.1312
 1688TIP3    H226556   3.904   4.320  13.675 -0.0040  1.0916 -0.6299
 1689TIP3   OH226557   1.817   3.142  11.044 -0.0286 -0.1381 -0.3241
 1689TIP3    H126558   1.811   3.153  10.949 -1.2967 -0.0557 -0.2487
 1689TIP3    H226559   1.728   3.160  11.076  0.6393  1.0222  0.9934
 1690TIP3   OH226560   1.513   1.787   1.374  0.0150  0.2096  0.5706
 1690TIP3    H126561   1.481   1.697   1.381 -2.8220  1.1966  1.4998
 1690TIP3    H226562   1.568   1.786   1.296  1.6047 -2.7064  1.5783
 1691TIP3   OH226563   1.324   3.304  15.191 -0.2468 -0.2177 -0.1759
 1691TIP3    H126564   1.283   3.358  15.123 -1.8736 -4.0910 -2.5770
 1691TIP3    H226565   1.414   3.292  15.160 -0.3281 -0.1529 -0.4424
 1692TIP3   OH226566   1.299   1.731  12.804 -0.0117 -0.0264  0.6647
 1692TIP3    H126567   1.359   1.791  12.758 -1.2317 -0.3490 -1.4608
 1692TIP3    H226568   1.212   1.765  12.785 -0.6012 -0.7085  2.0440
 1693TIP3   OH226569   1.134   6.467   1.556  0.2844  0.3141 -0.3264
 1693TIP3    H126570   1.205   6.485   1.618  0.6520 -1.5184 -0.1612
 1693TIP3    H226571   1.084   6.549   1.553  1.4433  1.1126  0.8149
 1694TIP3   OH226572   4.111   2.849   1.042  0.3541  0.3067 -0.5321
 1694TIP3    H126573   4.112   2.897   1.125  0.2664  0.0918 -0.4056
 1694TIP3    H226574   4.195   2.870   1.001  1.2360 -1.0591  0.4633
 1695TIP3   OH226575   6.573   6.142  11.106  0.6169  0.2061  0.0341
 1695TIP3    H126576   6.574   6.233  11.079  1.1231  0.5314  1.0928
 1695TIP3    H226577   6.663   6.112  11.092  0.4646 -0.1206 -0.2607
 1696TIP3   OH226578   3.213   4.583   0.670  0.3442 -0.4451  0.1393
 1696TIP3    H126579   3.278   4.574   0.601  1.5436  3.1459  0.5575
 1696TIP3    H226580   3.254   4.642   0.734 -2.5377  0.3547  1.4400
 1697TIP3   OH226581   1.646   2.622   6.501  0.2156  0.0045 -0.4472
 1697TIP3    H126582   1.560   2.606   6.461 -1.2735  0.5089  2.3441
 1697TIP3    H226583   1.694   2.671   6.434 -2.1662  0.9668 -1.5660
 1698TIP3   OH226584   5.297   6.170  11.870 -0.0610  0.4940 -0.0343
 1698TIP3    H126585   5.230   6.108  11.896  1.1635 -1.5610 -1.4962
 1698TIP3    H226586   5.271   6.199  11.783 -0.9603  2.6586  0.8667
 1699TIP3   OH226587   6.596   0.002  13.049 -0.2164 -0.4590  0.1759
 1699TIP3    H126588   6.525   0.064  13.070 -0.6191 -0.8531 -0.0040
 1699TIP3    H226589   6.596  -0.002  12.953 -0.5728 -1.1685  0.1995
 1700TIP3   OH226590   0.981   5.376   1.587 -0.7536  0.9042 -0.0082
 1700TIP3    H126591   0.976   5.436   1.513 -0.5666  0.5304 -0.3331
 1700TIP3    H226592   0.890   5.362   1.614 -0.8255  1.0068 -0.1972
 1701TIP3   OH226593   2.937   2.091  14.573 -0.0711  0.0758 -0.5784
 1701TIP3    H126594   2.962   2.182  14.555  0.2939  0.3318  1.0245
 1701TIP3    H226595   2.913   2.091  14.666 -1.7331 -1.1234 -0.9664
 1702TIP3   OH226596   2.551   0.523  14.840 -0.0280 -0.1517 -0.5393
 1702TIP3    H126597   2.577   0.595  14.897 -0.0687  0.4935 -1.3005
 1702TIP3    H226598   2.623   0.461  14.843 -0.1555 -0.2560  0.4176
 1703TIP3   OH226599   2.275   5.591   5.088  0.6711  0.1076  0.2279
 1703TIP3    H126600   2.282   5.680   5.122  1.2881 -0.0295  0.4664
 1703TIP3    H226601   2.353   5.546   5.120  0.4174 -0.4956  0.0284
 1704TIP3   OH226602   5.452   6.314   0.209  0.0751 -0.3754 -0.3638
 1704TIP3    H126603   5.390   6.379   0.175 -0.7180 -1.2179 -0.5973
 1704TIP3    H226604   5.499   6.360   0.279 -1.3044  0.1092  0.3067
 1705TIP3   OH226605   3.714   3.238  15.598  0.0975 -0.2360  0.3485
 1705TIP3    H126606   3.656   3.187  15.655  0.1864  0.0266  0.6810
 1705TIP3    H226607   3.754   3.303  15.657  0.5162 -0.2364  0.0670
 1706TIP3   OH226608   5.869   3.734   0.325 -0.5083 -0.3915  0.1373
 1706TIP3    H126609   5.831   3.814   0.289 -1.4230 -0.6378  0.5248
 1706TIP3    H226610   5.837   3.665   0.268  1.6644 -0.3460 -1.2412
 1707TIP3   OH226611   2.580   4.489  13.503 -0.4386  0.0109 -0.3573
 1707TIP3    H126612   2.622   4.547  13.439  1.7416 -0.1536  0.8445
 1707TIP3    H226613   2.651   4.462  13.561 -1.6448 -2.7973 -0.0575
 1708TIP3   OH226614   1.580   2.309   2.674  0.5991  0.4536 -0.2481
 1708TIP3    H126615   1.645   2.379   2.662 -0.7624  1.7359 -0.5560
 1708TIP3    H226616   1.519   2.322   2.601 -0.7534  0.1826  0.7991
 1709TIP3   OH226617   5.871   0.485  12.230  0.1425  0.5587  0.8258
 1709TIP3    H126618   5.863   0.391  12.247  0.0270  0.5788  0.8812
 1709TIP3    H226619   5.960   0.507  12.258  0.3790  0.3489  0.2667
 1710TIP3   OH226620   3.013   1.820   4.632  0.3729 -0.0906  0.4015
 1710TIP3    H126621   2.953   1.882   4.591  1.5650 -0.0358 -1.3575
 1710TIP3    H226622   3.067   1.874   4.690  0.2720  0.2212  0.2042
 1711TIP3   OH226623   3.756   5.953  14.228  0.3305 -0.2174  0.4227
 1711TIP3    H126624   3.704   5.935  14.307 -1.2274  0.6510 -0.3575
 1711TIP3    H226625   3.832   6.002  14.260  0.2088 -0.6974  1.4871
 1712TIP3   OH226626   2.844   0.223   5.471  0.3918  0.1945 -0.4268
 1712TIP3    H126627   2.794   0.240   5.391 -0.5616  0.2264  0.1634
 1712TIP3    H226628   2.902   0.150   5.448 -0.4258 -0.3141 -0.9230
 1713TIP3   OH226629   2.464   0.745   5.556 -0.0803  0.0025  0.1662
 1713TIP3    H126630   2.393   0.782   5.503 -0.4146 -0.4073  0.3267
 1713TIP3    H226631   2.544   0.777   5.514 -0.3581  0.6724  0.1305
 1714TIP3   OH226632   4.221   2.775  14.937 -0.0893  0.0916 -0.7221
 1714TIP3    H126633   4.276   2.731  15.001  1.4629  2.3242 -0.3916
 1714TIP3    H226634   4.281   2.809  14.871 -1.1810  1.4191 -1.1081
 1715TIP3   OH226635   5.889   3.231  13.669 -0.5782 -0.2043  0.0856
 1715TIP3    H126636   5.815   3.178  13.701 -1.0147 -0.3402 -1.0954
 1715TIP3    H226637   5.958   3.217  13.733 -1.1198 -1.1878  0.4758
 1716TIP3   OH226638   4.461   3.996  16.448 -0.1098  0.1774 -0.4426
 1716TIP3    H126639   4.532   3.933  16.437 -0.6211 -0.6915  0.9021
 1716TIP3    H226640   4.427   3.978  16.536 -2.0281  0.5190 -1.0623
 1717TIP3   OH226641   0.472   4.509   1.417 -0.4876 -0.1857 -0.0721
 1717TIP3    H126642   0.486   4.414   1.410  1.0305  0.0426 -0.5486
 1717TIP3    H226643   0.486   4.528   1.510  1.2776 -0.1700 -0.3077
 1718TIP3   OH226644   5.399   2.259  13.813  0.0028  0.4969  0.2080
 1718TIP3    H126645   5.483   2.214  13.819  0.0383  0.1705 -1.7657
 1718TIP3    H226646   5.410   2.340  13.862  2.0724  1.2741 -1.4265
 1719TIP3   OH226647   2.704   0.780   5.412  0.5202 -0.0447  0.4091
 1719TIP3    H126648   2.776   0.723   5.383  1.1683  0.5959  0.7304
 1719TIP3    H226649   2.679   0.829   5.334  0.8915  0.2157  0.4503
 1720TIP3   OH226650   4.369   4.453   2.845 -0.4919  0.6337  0.1376
 1720TIP3    H126651   4.403   4.443   2.756 -2.2153  2.8815 -0.9132
 1720TIP3    H226652   4.293   4.395   2.848  0.8818 -1.2026  1.0188
 1721TIP3   OH226653   4.995   4.166  15.587 -0.1604 -0.5651  0.3009
 1721TIP3    H126654   5.050   4.221  15.642 -0.1141 -1.0752  0.7710
 1721TIP3    H226655   4.981   4.086  15.638 -1.0826 -0.5699  0.0633
 1722TIP3   OH226656   0.967   1.714  12.243  0.2663 -0.1227 -0.8192
 1722TIP3    H126657   0.898   1.729  12.178  0.5867  1.4334 -0.8461
 1722TIP3    H226658   0.923   1.669  12.315 -0.2946 -1.0478 -1.7212
 1723TIP3   OH226659   1.446   2.230  16.927  0.0208 -0.0594 -0.2054
 1723TIP3    H126660   1.529   2.186  16.945 -0.2939 -0.7910 -0.5184
 1723TIP3    H226661   1.407   2.180  16.856 -0.5440  0.4786 -0.2854
 1724TIP3   OH226662   2.480   0.431   1.445 -0.4429 -0.7823 -0.1322
 1724TIP3    H126663   2.500   0.415   1.353  0.4024 -0.1035 -0.0871
 1724TIP3    H226664   2.390   0.463   1.446  0.3765  1.8197 -1.0663
 1725TIP3   OH226665   3.732   3.991   1.709  0.3294 -0.4425 -0.0527
 1725TIP3    H126666   3.734   4.003   1.614  2.4491 -0.2106 -0.0286
 1725TIP3    H226667   3.690   4.070   1.742 -2.4379 -1.4406 -0.8307
 1726TIP3   OH226668   6.402   3.104   2.718  0.1364  0.2982  0.0584
 1726TIP3    H126669   6.443   3.171   2.663 -0.2517  0.9182  0.5062
 1726TIP3    H226670   6.378   3.151   2.798 -0.3992 -0.3195  0.2637
 1727TIP3   OH226671   4.275   0.219   2.940  0.1629  0.4092 -0.5035
 1727TIP3    H126672   4.356   0.194   2.897  0.2707  1.8215 -1.1903
 1727TIP3    H226673   4.214   0.148   2.921  0.5138  0.5092 -2.1193
 1728TIP3   OH226674   4.257   4.984   3.112 -0.6019 -0.2078  0.1710
 1728TIP3    H126675   4.237   4.973   3.019  0.9598 -0.4773 -0.1595
 1728TIP3    H226676   4.197   5.052   3.142 -1.0399 -0.0286 -1.0689
 1729TIP3   OH226677   3.586   2.500   2.014 -0.7652  0.3108 -0.3190
 1729TIP3    H126678   3.627   2.414   2.017  1.2832  1.2362  0.0036
 1729TIP3    H226679   3.614   2.537   1.930 -1.4208  0.7762 -0.3413
 1730TIP3   OH226680   0.184   3.985  12.819  0.4119  0.2156  0.0664
 1730TIP3    H126681   0.092   4.002  12.797  0.4735  2.7226  1.3042
 1730TIP3    H226682   0.229   3.981  12.735 -0.6435  0.3063 -0.5224
 1731TIP3   OH226683   3.029   1.176  12.943  0.1403 -0.0779 -0.4241
 1731TIP3    H126684   3.010   1.197  12.852 -3.0458 -1.5442 -0.2393
 1731TIP3    H226685   2.970   1.104  12.964  0.3199  0.5862  2.9549
 1732TIP3   OH226686   0.654   3.840  16.816 -0.2230 -0.0137 -0.2503
 1732TIP3    H126687   0.724   3.904  16.822 -0.5048  0.1880  1.4500
 1732TIP3    H226688   0.586   3.883  16.764 -0.5392  1.2399  1.1357
 1733TIP3   OH226689   4.083   1.661  14.033 -0.4677  0.1689  0.2683
 1733TIP3    H126690   3.992   1.632  14.023 -0.6955  0.7400  0.6573
 1733TIP3    H226691   4.079   1.732  14.096  0.6240 -1.7393  2.6588
 1734TIP3   OH226692   3.526   1.006   4.902 -0.2123  0.2970 -0.1140
 1734TIP3    H126693   3.454   0.947   4.926 -0.3246  0.7598  0.7130
 1734TIP3    H226694   3.486   1.069   4.842 -0.2533 -0.0338 -0.4445
 1735TIP3   OH226695   4.414   2.878   0.926 -0.4839 -0.0691 -0.3823
 1735TIP3    H126696   4.506   2.862   0.907 -0.1789 -0.6786  1.3884
 1735TIP3    H226697   4.395   2.963   0.888  1.0572  0.4539 -0.0396
 1736TIP3   OH226698   1.584   0.671   5.402 -0.5443  0.0123  0.6257
 1736TIP3    H126699   1.522   0.619   5.454 -2.5853 -0.0655 -1.6653
 1736TIP3    H226700   1.670   0.635   5.424 -1.6480 -2.5961  1.1071
 1737TIP3   OH226701   0.749   5.349   1.751 -0.0389  0.2189  0.7071
 1737TIP3    H126702   0.774   5.411   1.819  0.2343  1.6231 -0.6009
 1737TIP3    H226703   0.653   5.353   1.750 -0.0098  1.2477  0.1267
 1738TIP3   OH226704   0.394   1.596  13.634  0.0730  0.1317 -0.1950
 1738TIP3    H126705   0.456   1.584  13.562  0.4336 -0.2754  0.1813
 1738TIP3    H226706   0.447   1.587  13.714 -0.6582 -1.4075  0.1509
 1739TIP3   OH226707   0.456   4.958   0.724  0.2040 -0.3936 -0.0806
 1739TIP3    H126708   0.418   4.961   0.812 -1.2903 -0.5895 -0.6987
 1739TIP3    H226709   0.550   4.961   0.739 -0.0277  1.4740  1.4605
 1740TIP3   OH226710   5.687   4.615  16.622  0.2829  0.1147  0.1570
 1740TIP3    H126711   5.725   4.572  16.698 -1.5699  1.7851  2.1267
 1740TIP3    H226712   5.762   4.627  16.562  2.3121  0.8216  2.6648
 1741TIP3   OH226713   5.075   3.063   5.811 -0.5801 -0.9688  0.5838
 1741TIP3    H126714   4.983   3.039   5.823 -0.9253  0.1879  0.3878
 1741TIP3    H226715   5.117   2.984   5.776 -2.0456 -0.7667 -1.8603
 1742TIP3   OH226716   5.300   2.410  16.940 -0.6280  0.4429 -0.3323
 1742TIP3    H126717   5.392   2.414  16.914 -0.6697  1.2454 -0.3689
 1742TIP3    H226718   5.283   2.316  16.951  0.4820  0.3481  0.7727
 1743TIP3   OH226719   3.511   6.626  12.374  0.4812 -0.0352  0.3933
 1743TIP3    H126720   3.598   6.618  12.334 -0.2428  0.9785 -1.5429
 1743TIP3    H226721   3.527   6.662  12.461  2.1659 -2.5896  1.2571
 1744TIP3   OH226722   5.695   4.716  15.464 -0.3231  0.4535 -0.6700
 1744TIP3    H126723   5.703   4.803  15.504  1.2448  0.5276 -1.1004
 1744TIP3    H226724   5.688   4.656  15.539 -1.1696  0.9118 -0.3685
 1745TIP3   OH226725   5.896   0.178  10.586  0.0345  0.7843 -0.4162
 1745TIP3    H126726   5.879   0.259  10.633  0.2902  0.7727 -0.3051
 1745TIP3    H226727   5.813   0.130  10.591  0.4939  0.0817  1.3987
 1746TIP3   OH226728   2.022   1.158   3.218 -0.0781  0.5912  0.3256
 1746TIP3    H126729   1.992   1.240   3.179  0.3121  1.2832  1.4360
 1746TIP3    H226730   1.944   1.121   3.260 -0.4091  0.0352 -0.7312
 1747TIP3   OH226731   0.985   2.850  12.697  0.5196 -0.8943 -0.2428
 1747TIP3    H126732   1.039   2.806  12.762 -0.0137  0.7363  1.3770
 1747TIP3    H226733   0.895   2.843  12.731  0.3690  0.9746 -0.1643
 1748TIP3   OH226734   0.583   1.068   0.201 -0.0326 -0.5648 -0.8357
 1748TIP3    H126735   0.544   1.016   0.131  1.6726 -1.0442 -1.4745
 1748TIP3    H226736   0.563   1.020   0.281 -0.7368 -0.7960 -1.1490
 1749TIP3   OH226737   5.531   0.873  12.382 -0.2024  0.0857 -0.6004
 1749TIP3    H126738   5.548   0.963  12.408  1.7308 -0.2029 -0.7342
 1749TIP3    H226739   5.466   0.880  12.312 -1.3899  1.2258  0.5680
 1750TIP3   OH226740   2.154   1.219   4.330 -0.5164  0.1780  0.1586
 1750TIP3    H126741   2.195   1.215   4.417 -0.1002  0.1866 -0.0343
 1750TIP3    H226742   2.219   1.263   4.275  0.9789 -3.2209 -1.1116
 1751TIP3   OH226743   5.387   2.016   4.876  0.2688 -0.1434  0.4978
 1751TIP3    H126744   5.392   1.974   4.962  1.0742 -0.2153  0.4166
 1751TIP3    H226745   5.408   2.108   4.893  0.9510 -0.2622  0.2972
 1752TIP3   OH226746   0.602   4.162  17.241  0.1181 -0.0900  0.3631
 1752TIP3    H126747   0.590   4.245  17.195 -0.2521 -0.4518 -0.2050
 1752TIP3    H226748   0.691   4.166  17.275  0.3356  0.2586 -0.2334
 1753TIP3   OH226749   5.123   5.630  11.135  0.8299 -0.2452 -0.2571
 1753TIP3    H126750   5.094   5.547  11.096  1.2778  0.3837 -2.0069
 1753TIP3    H226751   5.047   5.661  11.184 -0.0077 -0.7390 -1.2121
 1754TIP3   OH226752   5.410   5.315   3.090  0.3171  0.2595 -0.6384
 1754TIP3    H126753   5.500   5.310   3.121 -0.1194  1.0494  0.8570
 1754TIP3    H226754   5.394   5.230   3.049  1.1303 -0.6571  0.8422
 1755TIP3   OH226755   0.049   6.317  12.900 -0.4811 -0.5776  0.2640
 1755TIP3    H126756   0.113   6.377  12.939  0.8128 -0.3735 -1.9487
 1755TIP3    H226757  -0.028   6.324  12.956  0.5042  1.2275  1.5244
 1756TIP3   OH226758   6.504   1.031  11.449 -0.0670 -0.2465  0.4908
 1756TIP3    H126759   6.543   0.971  11.385 -1.1009 -0.5579  0.1294
 1756TIP3    H226760   6.410   1.028  11.431 -0.3035  0.2524  1.5291
 1757TIP3   OH226761   0.012   3.474   0.519 -0.2368 -0.1788 -0.4435
 1757TIP3    H126762  -0.046   3.415   0.566 -0.7808  0.8511  0.2271
 1757TIP3    H226763   0.100   3.446   0.545 -0.5021 -0.2497  0.4386
 1758TIP3   OH226764   0.061   2.363   5.328  0.0577  0.1867 -1.0838
 1758TIP3    H126765   0.078   2.393   5.239  0.6421  1.9985 -0.4098
 1758TIP3    H226766   0.105   2.427   5.384  0.8118 -1.6079  0.4996
 1759TIP3   OH226767   4.871   5.538  16.242  0.0294  0.3420  0.0669
 1759TIP3    H126768   4.793   5.557  16.190  0.5617  3.2753  0.1851
 1759TIP3    H226769   4.838   5.491  16.319 -1.6595  1.7118  0.2230
 1760TIP3   OH226770   0.981   4.226  12.770  0.8212  0.2691 -0.2527
 1760TIP3    H126771   0.981   4.313  12.808  0.9579 -0.4361  1.4504
 1760TIP3    H226772   1.036   4.233  12.692  1.0504  1.6347  0.0210
 1761TIP3   OH226773   2.614   1.471   1.736  0.2160 -0.1330 -0.1841
 1761TIP3    H126774   2.667   1.500   1.662  1.5996 -1.5508  0.1989
 1761TIP3    H226775   2.659   1.507   1.813 -1.4896  1.7642  0.0156
 1762TIP3   OH226776   3.603   3.977   2.686  0.4438 -0.0050 -0.3655
 1762TIP3    H126777   3.531   4.003   2.629 -0.6859 -0.7485  0.6886
 1762TIP3    H226778   3.581   4.014   2.772  2.3070  1.4356 -0.4288
 1763TIP3   OH226779   6.571   5.476   4.315 -0.0930  0.3986 -0.2044
 1763TIP3    H126780   6.610   5.406   4.367 -0.2209  1.3684  1.2395
 1763TIP3    H226781   6.477   5.466   4.327 -0.1251  0.6447 -0.2571
 1764TIP3   OH226782   3.019   6.388   1.561  0.0619 -0.9677  0.3459
 1764TIP3    H126783   2.985   6.412   1.475 -2.6444 -2.5378  0.8797
 1764TIP3    H226784   2.957   6.324   1.596  2.8697 -3.0345  2.0739
 1765TIP3   OH226785   2.456   3.753   4.675 -0.0455 -0.3069 -0.1411
 1765TIP3    H126786   2.370   3.757   4.633 -0.1267 -0.3457  0.0212
 1765TIP3    H226787   2.510   3.812   4.623  0.1353 -1.1576 -0.9365
 1766TIP3   OH226788   4.648   6.003  15.669 -0.6292  0.9907 -0.1197
 1766TIP3    H126789   4.556   6.021  15.650 -0.3629  1.0877 -1.3746
 1766TIP3    H226790   4.653   5.908  15.673 -0.3781  0.8748 -2.3246
 1767TIP3   OH226791   4.677   1.566  14.356 -0.2314 -0.6099  0.2129
 1767TIP3    H126792   4.759   1.530  14.389 -0.1848  0.1370  0.9390
 1767TIP3    H226793   4.614   1.550  14.426 -0.3561  0.1540  0.2818
 1768TIP3   OH226794   0.744   5.252   2.658 -0.1590  0.1564  0.0916
 1768TIP3    H126795   0.770   5.229   2.569  0.0778 -3.8117  1.0043
 1768TIP3    H226796   0.804   5.323   2.682  1.5438 -0.4396 -2.0291
 1769TIP3   OH226797   3.858   2.128   0.993  0.1143 -0.0845  0.0306
 1769TIP3    H126798   3.913   2.206   0.998 -1.0959  0.7303  1.0757
 1769TIP3    H226799   3.861   2.103   0.900  1.3279  0.5809 -0.1326
 1770TIP3   OH226800   0.691   1.994   2.044  0.4640  0.5744  0.2670
 1770TIP3    H126801   0.601   2.021   2.062  0.0461  0.4491 -1.4612
 1770TIP3    H226802   0.741   2.028   2.118 -1.3993 -2.0441  2.9776
 1771TIP3   OH226803   0.065   5.441  12.557  0.2867  0.4433  0.1122
 1771TIP3    H126804  -0.008   5.494  12.525  0.6598 -0.3273 -2.1765
 1771TIP3    H226805   0.090   5.483  12.639 -2.8819  0.5521  1.1679
 1772TIP3   OH226806   3.941   1.082  17.175  0.0424  0.0370 -0.3001
 1772TIP3    H126807   3.966   1.048  17.261  0.5529 -0.0919 -0.4960
 1772TIP3    H226808   3.867   1.140  17.193  0.8188  0.8588  0.3620
 1773TIP3   OH226809   5.899   6.804  12.171  0.1949  0.7202 -0.4000
 1773TIP3    H126810   5.920   6.720  12.212 -1.5399  0.9519  1.0839
 1773TIP3    H226811   5.857   6.780  12.088  1.1324  0.1846 -0.7370
 1774TIP3   OH226812   2.226   5.201  15.033  0.3547 -0.4780  0.2228
 1774TIP3    H126813   2.241   5.294  15.019  1.8339 -0.8746 -1.1637
 1774TIP3    H226814   2.302   5.158  14.993  0.2114 -2.2443  1.6887
 1775TIP3   OH226815   1.340   6.647   0.553  0.4240  0.1795 -0.2250
 1775TIP3    H126816   1.343   6.720   0.616  0.2296  1.2935 -1.4509
 1775TIP3    H226817   1.405   6.671   0.486 -2.1891  1.1302 -2.5915
 1776TIP3   OH226818   4.639   2.496  10.680 -0.3704  0.0903  0.0815
 1776TIP3    H126819   4.545   2.506  10.666 -0.4874 -0.1062  0.7057
 1776TIP3    H226820   4.674   2.473  10.594 -1.1767 -1.9873  0.2546
 1777TIP3   OH226821   1.492   1.208  10.983  0.2873  0.0040 -0.0167
 1777TIP3    H126822   1.522   1.216  10.892 -1.8690  1.6872 -0.6664
 1777TIP3    H226823   1.550   1.265  11.033  2.1618 -1.7394 -0.0892
 1778TIP3   OH226824   3.716   1.990  13.520 -0.5264 -0.1884  0.1533
 1778TIP3    H126825   3.809   2.008  13.505 -0.8469  0.8993 -0.6295
 1778TIP3    H226826   3.671   2.068  13.488 -1.7261 -0.7433  0.4353
 1779TIP3   OH226827   2.569   0.687   0.180  0.6984 -0.1246  0.8749
 1779TIP3    H126828   2.509   0.669   0.252  1.0527  0.7783  1.4056
 1779TIP3    H226829   2.512   0.707   0.106  0.3386 -0.7506  0.9702
 1780TIP3   OH226830   5.864   4.332  12.458 -0.0652 -0.2893  0.5477
 1780TIP3    H126831   5.853   4.427  12.467 -2.3124 -0.5027  0.5325
 1780TIP3    H226832   5.951   4.322  12.420  0.6140  1.7041  1.4126
 1781TIP3   OH226833   0.002   5.558  16.785  0.5516 -0.1438 -0.0356
 1781TIP3    H126834  -0.038   5.626  16.732  2.5125  0.9942 -0.1461
 1781TIP3    H226835   0.091   5.550  16.752  1.0351 -1.2503  1.3812
 1782TIP3   OH226836   2.288   3.715  12.368  0.1264 -0.3702  0.3436
 1782TIP3    H126837   2.233   3.643  12.337 -1.7162  0.0996  2.3129
 1782TIP3    H226838   2.288   3.778  12.295  0.7842 -1.7944 -0.9382
 1783TIP3   OH226839   1.463   6.437   5.965 -0.0429  0.3443 -0.0755
 1783TIP3    H126840   1.406   6.469   6.035 -0.6444 -0.7868 -0.0262
 1783TIP3    H226841   1.478   6.513   5.910 -1.1390  0.8044  0.2252
 1784TIP3   OH226842   5.939   2.884   5.551  0.3682 -0.2099  0.2457
 1784TIP3    H126843   5.991   2.964   5.555 -1.0792  0.8003 -0.2000
 1784TIP3    H226844   5.848   2.915   5.545 -0.2638 -1.8951  0.5906
 1785TIP3   OH226845   4.113   0.287  16.624 -0.2374  0.5349 -0.6157
 1785TIP3    H126846   4.197   0.325  16.649 -0.4342  0.7406 -0.2658
 1785TIP3    H226847   4.048   0.355  16.642 -0.7616 -0.3975  1.3019
 1786TIP3   OH226848   0.174   6.525  13.030  0.4629  0.6407 -0.9506
 1786TIP3    H126849   0.128   6.594  12.982  2.0610  1.5627 -1.2000
 1786TIP3    H226850   0.265   6.532  13.002  0.6701 -1.6832 -1.1150
 1787TIP3   OH226851   5.592   1.930  15.352  0.4427  0.3138  0.2501
 1787TIP3    H126852   5.666   1.913  15.410  0.3101  0.5505  0.4922
 1787TIP3    H226853   5.517   1.889  15.396  0.5491 -0.5429 -0.3397
 1788TIP3   OH226854   3.958   5.851   1.328  0.8983  0.2031  0.4129
 1788TIP3    H126855   3.880   5.903   1.311 -0.7262 -1.9525  0.8258
 1788TIP3    H226856   3.991   5.884   1.412  0.0073  0.6951  0.5825
 1789TIP3   OH226857   2.921   3.374   2.848 -0.5103 -0.3442  0.0303
 1789TIP3    H126858   3.010   3.402   2.825 -1.1257  0.1182 -1.9733
 1789TIP3    H226859   2.886   3.447   2.900 -0.9535  1.2521 -2.3613
 1790TIP3   OH226860   2.516   3.401   2.376  1.0854  0.4494 -0.3492
 1790TIP3    H126861   2.552   3.436   2.457  0.8517  0.1672 -0.1230
 1790TIP3    H226862   2.558   3.316   2.365  0.9712  0.4026 -0.4265
 1791TIP3   OH226863   5.735   3.184  13.178 -0.4922  0.7758  0.3262
 1791TIP3    H126864   5.751   3.137  13.096  0.0951  1.3955  0.0825
 1791TIP3    H226865   5.733   3.276  13.153 -0.5307  0.9556  0.9741
 1792TIP3   OH226866   0.346   0.268   0.303 -0.7369 -0.0206 -0.4403
 1792TIP3    H126867   0.306   0.182   0.313  1.0158 -0.8472 -0.0268
 1792TIP3    H226868   0.409   0.257   0.231  0.0513  0.6780  0.1197
 1793TIP3   OH226869   0.550   5.293  16.845 -0.0690  0.7574  0.0507
 1793TIP3    H126870   0.555   5.253  16.932  1.1088  1.5482  0.3673
 1793TIP3    H226871   0.609   5.367  16.849  1.0389  0.0576 -1.8296
 1794TIP3   OH226872   3.104   1.266   2.447 -0.3868  0.4472 -0.0041
 1794TIP3    H126873   3.134   1.337   2.503 -3.3509 -0.6814  3.4070
 1794TIP3    H226874   3.034   1.224   2.497 -2.1389 -1.8594 -3.9156
 1795TIP3   OH226875   2.712   4.800  16.070 -0.5149  0.0356  0.1726
 1795TIP3    H126876   2.746   4.710  16.074 -2.2601 -0.6214  2.1331
 1795TIP3    H226877   2.693   4.815  15.978 -0.2111 -1.6244 -0.1852
 1796TIP3   OH226878   6.233   5.309   2.181  0.0434 -0.1334  0.2505
 1796TIP3    H126879   6.200   5.340   2.264 -0.5855 -0.9805  0.3315
 1796TIP3    H226880   6.267   5.387   2.137  1.5401  0.1474  1.8025
 1797TIP3   OH226881   0.702   5.024   0.183 -0.5174  0.3065 -0.1732
 1797TIP3    H126882   0.710   5.111   0.142 -0.8410 -0.1817 -1.3141
 1797TIP3    H226883   0.633   4.981   0.133 -1.0241 -0.2761  1.0045
 1798TIP3   OH226884   1.703   6.197   5.022  0.5447 -0.0580 -0.5494
 1798TIP3    H126885   1.708   6.151   5.105  1.0538 -0.2164 -0.6665
 1798TIP3    H226886   1.789   6.238   5.012  0.0388  1.0919 -0.3450
 1799TIP3   OH226887   0.318   4.474  13.786  0.9089  0.3114  0.5281
 1799TIP3    H126888   0.263   4.407  13.827  1.8755 -3.3809 -3.4297
 1799TIP3    H226889   0.405   4.461  13.824  0.7425  0.5156  0.9807
 1800TIP3   OH226890   4.302   1.741  14.805  0.2390 -0.0243 -0.1634
 1800TIP3    H126891   4.389   1.779  14.795 -0.3612  1.4423 -0.0360
 1800TIP3    H226892   4.243   1.804  14.764 -0.6788 -1.5425 -1.2960
 1801TIP3   OH226893   3.708   4.937   0.819  0.7487 -0.2194 -0.0417
 1801TIP3    H126894   3.776   4.917   0.755 -0.1174 -1.7069 -0.5331
 1801TIP3    H226895   3.660   4.855   0.830 -1.7774  1.0750 -0.6996
 1802TIP3   OH226896   5.886   0.102   3.275 -0.5417  0.0060  0.4115
 1802TIP3    H126897   5.918   0.106   3.185 -1.7013 -2.8397 -0.2378
 1802TIP3    H226898   5.965   0.092   3.328  0.0776 -4.3780 -0.9377
 1803TIP3   OH226899   0.636   2.645  11.491 -0.2323 -0.3335  0.0620
 1803TIP3    H126900   0.683   2.626  11.572 -0.2512 -2.0108 -0.2954
 1803TIP3    H226901   0.606   2.735  11.502  0.6468 -0.1776  1.4746
 1804TIP3   OH226902   5.966   4.991   3.663 -0.0873  0.1585  0.0070
 1804TIP3    H126903   6.053   4.958   3.644 -0.9003 -0.6177 -2.9195
 1804TIP3    H226904   5.920   4.988   3.579 -2.3951  2.2364  1.0507
 1805TIP3   OH226905   0.665   6.310   0.296 -0.4012  0.5763 -0.1042
 1805TIP3    H126906   0.623   6.382   0.249  0.0828  0.7866 -0.2278
 1805TIP3    H226907   0.758   6.320   0.276 -0.3265 -0.0673 -0.0965
 1806TIP3   OH226908   3.536   3.273  14.988  0.0641 -0.5956  0.2464
 1806TIP3    H126909   3.554   3.192  15.036 -0.3556 -0.3302  0.8732
 1806TIP3    H226910   3.441   3.272  14.974 -0.0234  0.0383  0.7366
 1807TIP3   OH226911   6.283   3.198  10.974  0.3018 -0.5290  0.3104
 1807TIP3    H126912   6.206   3.178  10.922  2.4475 -2.2289 -2.5236
 1807TIP3    H226913   6.305   3.288  10.950  1.0440 -1.1639 -1.5944
 1808TIP3   OH226914   5.103   2.212  14.028  0.3005 -0.8837  0.3174
 1808TIP3    H126915   5.055   2.130  14.015 -0.3841 -0.4166 -0.2363
 1808TIP3    H226916   5.035   2.279  14.027  1.0591 -0.0445 -2.0414
 1809TIP3   OH226917   5.182   3.371  16.812 -0.4230 -0.4084  0.2122
 1809TIP3    H126918   5.227   3.356  16.896 -0.2385 -1.0889 -0.0003
 1809TIP3    H226919   5.160   3.283  16.781 -0.2570 -0.1742 -0.5831
 1810TIP3   OH226920   2.821   4.744  14.956 -0.5116 -0.3063 -0.1187
 1810TIP3    H126921   2.794   4.821  15.007 -0.4583  1.0621 -2.0331
 1810TIP3    H226922   2.890   4.704  15.008 -1.4109  0.1685  1.5420
 1811TIP3   OH226923   0.489   5.238   3.435 -0.9267  0.5566  0.2618
 1811TIP3    H126924   0.510   5.312   3.492 -0.8580  1.4847 -0.9462
 1811TIP3    H226925   0.393   5.232   3.438 -1.0138  1.4287 -0.5305
 1812TIP3   OH226926   5.362   6.287  11.209  0.5259  1.0070 -0.3491
 1812TIP3    H126927   5.364   6.286  11.114  1.0675  2.1069 -0.3621
 1812TIP3    H226928   5.320   6.204  11.233  4.7461 -1.7055 -1.4028
 1813TIP3   OH226929   0.253   3.914  12.328  0.2875 -0.0158  0.0479
 1813TIP3    H126930   0.261   3.972  12.253  0.3880 -1.3922 -1.0496
 1813TIP3    H226931   0.243   3.972  12.403 -1.1037  1.4089 -1.1678
 1814TIP3   OH226932   4.174   2.527  12.469 -0.0772 -0.1320 -0.2973
 1814TIP3    H126933   4.184   2.545  12.563 -0.5751 -1.7115  0.0866
 1814TIP3    H226934   4.228   2.594  12.426 -0.2854  0.9725  1.0773
 1815TIP3   OH226935   0.708   4.039   2.486  0.0753 -0.1852 -0.1869
 1815TIP3    H126936   0.652   4.033   2.409  1.4258  0.0706 -1.2348
 1815TIP3    H226937   0.730   4.132   2.493  1.1444 -0.4044 -0.4067
 1816TIP3   OH226938   4.808   1.199   3.483  0.2089  0.2401  0.2065
 1816TIP3    H126939   4.870   1.220   3.413 -0.9829  2.9515 -0.1543
 1816TIP3    H226940   4.722   1.221   3.447 -0.6846 -0.6674  1.6900
 1817TIP3   OH226941   6.226   2.974   3.032  0.3589 -0.6259  0.0341
 1817TIP3    H126942   6.284   3.050   3.020  1.4927 -1.5526 -0.5960
 1817TIP3    H226943   6.282   2.908   3.073 -1.5840  0.0899  4.4219
 1818TIP3   OH226944   1.225   2.891  12.462 -0.2090 -0.0880 -0.1283
 1818TIP3    H126945   1.293   2.951  12.432 -0.4320  0.1487 -0.1696
 1818TIP3    H226946   1.266   2.840  12.532  0.0141  0.0390 -0.1655
 1819TIP3   OH226947   0.776   3.535   2.495 -0.2409  0.5962 -0.5512
 1819TIP3    H126948   0.709   3.468   2.479 -0.9757  1.2183 -0.1529
 1819TIP3    H226949   0.753   3.571   2.581 -0.3957  1.9816 -1.1612
 1820TIP3   OH226950   3.770   4.454   1.091 -0.6736  1.0491  0.7039
 1820TIP3    H126951   3.752   4.548   1.083 -1.0491  1.0428  1.3847
 1820TIP3    H226952   3.706   4.412   1.033 -0.1536  1.2332 -0.0177
 1821TIP3   OH226953   4.302   3.335   3.077 -0.0063  0.3025 -0.5958
 1821TIP3    H126954   4.210   3.356   3.097 -0.6975 -2.3352 -0.6105
 1821TIP3    H226955   4.330   3.280   3.151  1.5864  1.0422 -0.6090
 1822TIP3   OH226956   1.779   2.448   4.432 -0.0121  0.7156  0.2803
 1822TIP3    H126957   1.834   2.376   4.402  1.3936  1.1699  1.6446
 1822TIP3    H226958   1.835   2.498   4.491 -1.1303  2.6066 -0.1795
 1823TIP3   OH226959   6.518   3.270   3.590  0.3242 -0.5681 -0.1709
 1823TIP3    H126960   6.445   3.230   3.637  1.5491 -2.2885  0.3748
 1823TIP3    H226961   6.523   3.359   3.624 -1.3936 -0.4486 -0.1169
 1824TIP3   OH226962   0.973   0.724  16.106  0.5204  0.1169 -0.2960
 1824TIP3    H126963   1.010   0.782  16.040 -2.9320 -1.1180 -3.7223
 1824TIP3    H226964   0.920   0.781  16.162  0.6353  0.7837 -0.8649
 1825TIP3   OH226965   0.317   0.281  13.780 -0.0402  0.0645 -0.4273
 1825TIP3    H126966   0.241   0.338  13.789 -0.4812 -0.6636  0.5950
 1825TIP3    H226967   0.308   0.216  13.850  1.7303  0.2141  0.0130
 1826TIP3   OH226968   3.544   3.888   4.374 -0.2168 -0.4583 -0.1481
 1826TIP3    H126969   3.625   3.839   4.358  0.8305  0.3603  2.2844
 1826TIP3    H226970   3.479   3.820   4.393  0.4924 -1.0431  0.2568
 1827TIP3   OH226971   1.482   2.154  14.983 -0.1807 -0.0022  0.1317
 1827TIP3    H126972   1.562   2.194  15.015 -0.7656  2.0710 -0.8374
 1827TIP3    H226973   1.412   2.193  15.035 -0.7998  0.5119 -1.0375
 1828TIP3   OH226974   1.983   2.726   0.175 -0.7712  0.0939  0.4847
 1828TIP3    H126975   1.957   2.691   0.090 -1.3121  0.2779  0.5692
 1828TIP3    H226976   1.900   2.747   0.218 -0.5225 -0.7834  1.3970
 1829TIP3   OH226977   5.003   1.315  16.571  0.5335 -0.7759  0.1591
 1829TIP3    H126978   4.962   1.397  16.543  1.9131 -0.1910 -0.2194
 1829TIP3    H226979   4.935   1.270  16.621  0.3257  1.4474  2.0374
 1830TIP3   OH226980   6.437   2.911  12.281 -0.0205 -0.5742 -0.5529
 1830TIP3    H126981   6.507   2.901  12.345  0.3835  2.8172 -0.2747
 1830TIP3    H226982   6.464   2.856  12.208  3.0835  0.6595 -0.5071
 1831TIP3   OH226983   4.672   2.991  13.021  0.1987 -0.7256  0.2401
 1831TIP3    H126984   4.713   2.997  13.107 -1.6829 -0.0356  1.1484
 1831TIP3    H226985   4.599   2.931  13.033 -0.6027  0.0454 -0.6489
 1832TIP3   OH226986   3.782   6.595  12.637 -0.1385  0.1796 -0.6424
 1832TIP3    H126987   3.827   6.540  12.701 -0.9464 -0.8094 -0.8919
 1832TIP3    H226988   3.698   6.616  12.677  0.2346  1.4108 -0.4750
 1833TIP3   OH226989   2.242   2.440  16.098 -0.1317 -0.4722 -0.2487
 1833TIP3    H126990   2.227   2.455  16.191 -0.9729  1.5369 -0.6344
 1833TIP3    H226991   2.155   2.425  16.062 -0.2317  1.8262 -1.1217
 1834TIP3   OH226992   2.457   0.293   6.476  0.2754  0.0966  0.3444
 1834TIP3    H126993   2.549   0.298   6.450  0.1407 -0.2027 -0.2175
 1834TIP3    H226994   2.438   0.199   6.480 -0.4421  0.1555 -1.1606
 1835TIP3   OH226995   3.861   2.112   5.659 -0.9198 -0.3210 -0.4746
 1835TIP3    H126996   3.819   2.042   5.609  0.6211 -0.7118 -1.2892
 1835TIP3    H226997   3.853   2.189   5.604 -1.8761 -0.0268  0.0513
 1836TIP3   OH226998   0.228   0.820  15.743  0.3592  0.6628  0.3265
 1836TIP3    H126999   0.132   0.822  15.751  0.4253 -1.0260  2.7712
 1836TIP3    H227000   0.245   0.753  15.678 -0.1175  0.7601  0.0926
 1837TIP3   OH227001   6.753   4.923  17.099 -0.3099 -0.0877 -0.5307
 1837TIP3    H127002   6.695   4.969  17.038  0.6894  1.2829 -0.5145
 1837TIP3    H227003   6.784   4.847  17.050 -1.4485 -0.3725 -0.8278
 1838TIP3   OH227004   4.832   2.975   5.841 -0.4798  0.0428 -0.2506
 1838TIP3    H127005   4.800   2.954   5.928  1.1590 -2.0182 -0.0712
 1838TIP3    H227006   4.838   2.891   5.796  2.1406  0.5644 -1.0755
 1839TIP3   OH227007   6.767   6.272   0.308  0.3629 -0.0300  0.1639
 1839TIP3    H127008   6.833   6.334   0.341  1.9553 -1.5763 -0.0013
 1839TIP3    H227009   6.818   6.199   0.272 -1.4201 -0.4807 -1.6111
 1840TIP3   OH227010   1.243   3.041   4.112 -0.2398  0.1578  0.1666
 1840TIP3    H127011   1.315   3.103   4.119 -2.5136  2.9452  0.8565
 1840TIP3    H227012   1.204   3.038   4.200 -1.6723 -0.3172 -0.4374
 1841TIP3   OH227013   5.436   0.947   2.203 -0.4771  0.8473  0.3245
 1841TIP3    H127014   5.451   0.862   2.160 -1.6654 -0.4398  2.2980
 1841TIP3    H227015   5.511   0.957   2.262 -1.5493 -0.0929  1.9110
 1842TIP3   OH227016   0.245   5.612  14.156 -0.2455  0.2024  0.3625
 1842TIP3    H127017   0.271   5.704  14.162  0.2232  0.1016 -0.1074
 1842TIP3    H227018   0.158   5.614  14.117  0.1139  0.4074 -0.4562
 1843TIP3   OH227019   0.066   0.370   5.618  0.8866 -0.0997  0.0507
 1843TIP3    H127020  -0.019   0.409   5.637  1.1163  0.5256 -0.1833
 1843TIP3    H227021   0.045   0.290   5.571  0.4561  1.1381 -1.9934
 1844TIP3   OH227022   3.082   4.002  14.983  0.2557 -0.9469 -0.9519
 1844TIP3    H127023   3.077   3.944  14.907 -0.7014 -0.6076 -1.1624
 1844TIP3    H227024   3.076   3.943  15.058 -1.2850 -1.1037 -1.1660
 1845TIP3   OH227025   3.762   2.511  16.430  0.1393 -0.3563 -0.2248
 1845TIP3    H127026   3.816   2.535  16.506  1.0718  0.8350 -1.2107
 1845TIP3    H227027   3.810   2.439  16.388 -1.1700 -2.1038  1.1150
 1846TIP3   OH227028   1.055   0.414  12.381 -0.3895 -0.2079  0.6256
 1846TIP3    H127029   1.047   0.369  12.297 -0.0377 -0.4833  0.7393
 1846TIP3    H227030   0.978   0.471  12.385 -0.8912 -0.8769  0.5348
 1847TIP3   OH227031   2.021   6.578   6.180 -0.2292 -0.2180 -0.2104
 1847TIP3    H127032   1.947   6.629   6.148 -0.3364 -0.5306 -0.4584
 1847TIP3    H227033   2.096   6.638   6.174 -0.6133  0.4031  0.8971
 1848TIP3   OH227034   4.483   4.930  12.340  0.7455 -0.1336 -0.1753
 1848TIP3    H127035   4.566   4.884  12.356  0.3316 -0.4654  1.1868
 1848TIP3    H227036   4.418   4.879  12.389 -0.3357 -0.0647 -1.4786
 1849TIP3   OH227037   6.602   1.589   1.533  0.0562 -0.1782  0.0772
 1849TIP3    H127038   6.632   1.675   1.562  0.4845 -0.2084 -0.2611
 1849TIP3    H227039   6.576   1.544   1.613 -0.9147  0.5444  0.1822
 1850TIP3   OH227040   2.411   6.216  13.665  0.3190  0.1544  0.2090
 1850TIP3    H127041   2.369   6.131  13.681 -2.9221  1.6966  0.7815
 1850TIP3    H227042   2.344   6.267  13.620  1.8835  2.6941  0.5763
 1851TIP3   OH227043   1.179   6.584  15.592  0.2661 -0.2438  0.6040
 1851TIP3    H127044   1.215   6.655  15.646  0.7105  0.1352 -0.1788
 1851TIP3    H227045   1.153   6.627  15.511 -0.1435 -0.8618  0.4056
 1852TIP3   OH227046   3.865   1.896   1.790  0.1752  0.2109  0.1234
 1852TIP3    H127047   3.954   1.870   1.812  0.5624  1.1834 -0.2628
 1852TIP3    H227048   3.870   1.990   1.774 -0.8969  0.2583 -0.0205
 1853TIP3   OH227049   0.676   1.454  14.067  0.2072 -0.3828  0.5811
 1853TIP3    H127050   0.736   1.393  14.110 -1.2983 -0.9454  1.9553
 1853TIP3    H227051   0.643   1.510  14.137 -1.3544 -0.4932 -0.0139
 1854TIP3   OH227052   2.779   3.535  15.415  0.4525  0.1722 -0.1077
 1854TIP3    H127053   2.778   3.583  15.333 -0.2722  1.2340  0.4981
 1854TIP3    H227054   2.687   3.522  15.437  0.6294 -1.2323 -0.0891
 1855TIP3   OH227055   1.529   3.657   4.917 -0.0184  0.0070 -0.7567
 1855TIP3    H127056   1.601   3.708   4.879  0.9782 -0.1794  0.7833
 1855TIP3    H227057   1.518   3.583   4.857  2.1708 -0.8178 -0.2255
 1856TIP3   OH227058   6.115   2.171   1.137  0.2232 -0.8538 -0.4293
 1856TIP3    H127059   6.121   2.220   1.219  2.3922  1.2284 -1.7080
 1856TIP3    H227060   6.073   2.089   1.162  1.0614 -0.4551  2.8225
 1857TIP3   OH227061   1.429   2.637   5.473 -0.5535 -0.4627  0.0570
 1857TIP3    H127062   1.410   2.620   5.565  1.5916 -0.6255  0.5369
 1857TIP3    H227063   1.387   2.564   5.426 -2.0265 -0.1446  0.8318
 1858TIP3   OH227064   3.012   3.852   2.112  0.6024  0.0232 -0.5059
 1858TIP3    H127065   3.007   3.939   2.151  0.9267 -0.7108  1.2595
 1858TIP3    H227066   3.064   3.801   2.174  0.0613 -1.5428 -1.2989
 1859TIP3   OH227067   0.294   4.590   3.570 -0.4884  1.1693  0.9368
 1859TIP3    H127068   0.336   4.588   3.485 -0.6907  0.8883  0.8415
 1859TIP3    H227069   0.259   4.502   3.582  0.2341  0.9722  1.6663
 1860TIP3   OH227070   2.976   0.170  17.099 -0.0701  0.7638 -0.2355
 1860TIP3    H127071   2.979   0.265  17.109 -0.1293  0.8195 -0.7242
 1860TIP3    H227072   2.923   0.156  17.020  0.2007  0.3387 -0.3429
 1861TIP3   OH227073   6.518   2.510  15.012 -0.5007  0.4350  0.0564
 1861TIP3    H127074   6.584   2.529  15.080  2.0752 -0.8871 -1.9014
 1861TIP3    H227075   6.461   2.587  15.012  0.1624  1.0510  2.7920
 1862TIP3   OH227076   3.969   6.147   4.340  0.5978 -0.4001 -0.5761
 1862TIP3    H127077   4.063   6.141   4.358  0.2182 -1.4645  1.2374
 1862TIP3    H227078   3.945   6.235   4.371  0.6553 -0.8543  0.8233
 1863TIP3   OH227079   2.797   3.281  16.107 -0.3940  0.6287  0.2087
 1863TIP3    H127080   2.879   3.241  16.135 -1.8238 -0.9623  2.4388
 1863TIP3    H227081   2.818   3.373  16.093  2.0025  0.0315 -0.5305
 1864TIP3   OH227082   5.017   1.755   3.213  0.7868 -0.0343  0.3498
 1864TIP3    H127083   5.109   1.766   3.191  1.0304 -0.3691  1.1668
 1864TIP3    H227084   4.994   1.835   3.260  0.8177 -0.2006  0.6499
 1865TIP3   OH227085   5.486   1.140  10.614  0.0798  0.1875 -0.4239
 1865TIP3    H127086   5.555   1.174  10.670  0.1378  0.6655 -0.7764
 1865TIP3    H227087   5.430   1.216  10.597 -0.9743 -0.3643  0.4937
 1866TIP3   OH227088   3.076   2.937   1.381 -0.1635 -0.1182 -0.2292
 1866TIP3    H127089   3.086   2.850   1.419 -0.0562  0.0405  0.1092
 1866TIP3    H227090   3.068   2.921   1.286 -0.0816 -0.4883 -0.1759
 1867TIP3   OH227091   5.574   5.113   0.579 -0.0243 -0.1289  0.0498
 1867TIP3    H127092   5.493   5.160   0.563 -0.1184 -0.3613 -0.1625
 1867TIP3    H227093   5.560   5.027   0.539 -0.4156 -0.8613  1.6473
 1868TIP3   OH227094   0.766   3.242   6.495 -0.0966  0.2040 -0.3953
 1868TIP3    H127095   0.799   3.294   6.569 -0.5722 -0.5368  0.3591
 1868TIP3    H227096   0.687   3.288   6.468  0.6114  1.0482 -1.1299
 1869TIP3   OH227097   0.983   3.284  13.740  0.6029  0.1776 -0.5546
 1869TIP3    H127098   0.966   3.249  13.827  0.8107 -0.8478 -0.9100
 1869TIP3    H227099   1.075   3.264  13.723  1.0305  1.8493 -0.3622
 1870TIP3   OH227100   3.806   1.958  12.685  0.1396  0.0940 -0.0668
 1870TIP3    H127101   3.786   1.902  12.610 -1.0209 -0.0406  0.3144
 1870TIP3    H227102   3.720   1.978  12.723  0.5703  1.6949  0.1345
 1871TIP3   OH227103   6.399   1.798  14.169 -0.5055 -0.6656  0.2284
 1871TIP3    H127104   6.341   1.834  14.236 -1.2622  2.5817 -1.9194
 1871TIP3    H227105   6.486   1.832  14.192 -1.0229  1.8073 -1.1356
 1872TIP3   OH227106   3.492   3.815  12.382  0.0574  0.3101  0.4937
 1872TIP3    H127107   3.573   3.781  12.420  0.9077  0.4406 -1.1228
 1872TIP3    H227108   3.514   3.905  12.357 -1.2680  1.1088  2.0074
 1873TIP3   OH227109   3.019   4.585  12.877  0.4728 -0.0601  1.1986
 1873TIP3    H127110   2.948   4.636  12.916  0.1147  0.5337 -0.1579
 1873TIP3    H227111   3.099   4.630  12.903  0.2078  0.6520  0.7994
 1874TIP3   OH227112   4.160   0.730   2.975  0.1169  0.0198 -0.3944
 1874TIP3    H127113   4.073   0.769   2.986  0.3778  0.6052 -0.3688
 1874TIP3    H227114   4.176   0.685   3.057  0.1273  0.5023 -0.1260
 1875TIP3   OH227115   1.687   0.725   4.949 -0.3126  0.0025 -0.1529
 1875TIP3    H127116   1.670   0.664   4.877 -0.8419 -0.1662  0.1143
 1875TIP3    H227117   1.628   0.698   5.019 -2.0994  2.0881 -0.7385
 1876TIP3   OH227118   3.472   0.231   0.410 -0.4053 -0.5336  0.2266
 1876TIP3    H127119   3.414   0.158   0.390  0.1160 -0.8834 -0.0301
 1876TIP3    H227120   3.495   0.220   0.502 -0.7630 -0.3795  0.3358
 1877TIP3   OH227121   4.601   4.454   1.973 -0.1369 -0.5249  0.3593
 1877TIP3    H127122   4.556   4.525   1.925  0.8480  0.2131  0.4988
 1877TIP3    H227123   4.620   4.389   1.906  1.3411  0.5537 -0.3290
 1878TIP3   OH227124   1.718   0.548  13.675  0.0761 -0.0157 -0.1592
 1878TIP3    H127125   1.727   0.453  13.671 -1.1207 -0.1454 -0.3589
 1878TIP3    H227126   1.709   0.575  13.584  0.3249  0.2818 -0.0958
 1879TIP3   OH227127   4.598   6.223   0.199  0.0461  0.2575  0.3951
 1879TIP3    H127128   4.635   6.142   0.233  1.5173  0.5713 -0.3807
 1879TIP3    H227129   4.503   6.209   0.201  0.2516 -1.1873  0.9604
 1880TIP3   OH227130   4.073   5.167   3.171 -0.1584 -0.0905 -0.1082
 1880TIP3    H127131   4.001   5.227   3.149 -0.9341 -1.1192 -0.4191
 1880TIP3    H227132   4.092   5.186   3.263  0.9113  1.9641 -0.6798
 1881TIP3   OH227133   5.034   2.918  11.533  0.0060  0.5769 -0.3413
 1881TIP3    H127134   4.939   2.916  11.521  0.0418 -0.0763 -0.5681
 1881TIP3    H227135   5.056   3.011  11.539 -0.4757  0.7975 -1.6693
 1882TIP3   OH227136   5.272   1.141  16.750 -0.2836 -0.6095  0.1175
 1882TIP3    H127137   5.183   1.124  16.718 -1.2048  1.2776  1.4777
 1882TIP3    H227138   5.318   1.176  16.673 -1.2776  0.1352 -0.1672
 1883TIP3   OH227139   6.301   5.574   4.568  0.1562 -0.3089 -0.6827
 1883TIP3    H127140   6.299   5.536   4.656  1.9340  0.1929 -0.3877
 1883TIP3    H227141   6.271   5.503   4.511 -2.4027 -0.2145  0.4145
 1884TIP3   OH227142   6.617   1.474  12.828 -0.1719 -0.1564 -0.2774
 1884TIP3    H127143   6.540   1.451  12.881 -0.3172 -0.5824 -0.6612
 1884TIP3    H227144   6.586   1.467  12.738 -0.7348  3.2933 -0.4713
 1885TIP3   OH227145   2.739   1.398   2.938 -0.2437  0.0902 -0.6316
 1885TIP3    H127146   2.792   1.478   2.937 -2.4149  1.5941 -1.2391
 1885TIP3    H227147   2.773   1.346   2.865  0.6668  0.8220 -0.7427
 1886TIP3   OH227148   1.485   1.201   6.336  0.0272  0.2546  0.3023
 1886TIP3    H127149   1.430   1.265   6.382  1.6726  1.3435  0.8469
 1886TIP3    H227150   1.461   1.117   6.376 -1.5674  0.6098  0.1771
 1887TIP3   OH227151   2.798   2.421  12.253  0.0841 -0.1509 -0.1252
 1887TIP3    H127152   2.887   2.394  12.276  0.3017  0.5307 -0.1473
 1887TIP3    H227153   2.770   2.477  12.325  0.6141  1.6600 -1.2446
 1888TIP3   OH227154   0.989   5.408  11.647 -0.4067 -0.0153  0.1368
 1888TIP3    H127155   1.012   5.339  11.584  1.3063 -0.1667  0.8712
 1888TIP3    H227156   0.917   5.371  11.698 -1.1634 -0.2704 -1.0604
 1889TIP3   OH227157   0.840   5.234   3.407  0.8050 -0.0743 -0.1174
 1889TIP3    H127158   0.926   5.208   3.376  0.2864 -2.5152  0.2503
 1889TIP3    H227159   0.850   5.242   3.502  0.6351 -0.3353 -0.0768
 1890TIP3   OH227160   5.573   4.134   1.337 -0.4120 -0.4160  0.5133
 1890TIP3    H127161   5.524   4.089   1.406 -1.6918 -0.5180 -0.4111
 1890TIP3    H227162   5.545   4.225   1.344 -0.3411 -0.3785  0.3041
 1891TIP3   OH227163   1.594   2.421   4.774 -0.4460 -0.1519 -0.4427
 1891TIP3    H127164   1.684   2.447   4.794 -0.8272  0.6287  0.3033
 1891TIP3    H227165   1.602   2.334   4.735  0.5535 -0.4992  0.5267
 1892TIP3   OH227166   1.326   0.791  12.294 -0.2635 -0.4438  0.0642
 1892TIP3    H127167   1.347   0.719  12.234 -2.6363 -2.5843  1.5397
 1892TIP3    H227168   1.266   0.847  12.245  0.6905 -0.0836 -0.7182
 1893TIP3   OH227169   5.123   6.143  13.193  0.1107 -0.0005 -0.0205
 1893TIP3    H127170   5.201   6.097  13.163  0.4948  0.7490 -0.1951
 1893TIP3    H227171   5.139   6.235  13.171 -1.0934  0.0809 -0.6520
 1894TIP3   OH227172   2.177   6.067   5.910  0.2795  0.4046 -0.7492
 1894TIP3    H127173   2.248   6.015   5.873  1.1076  0.7099  0.3434
 1894TIP3    H227174   2.113   6.075   5.839  1.3250  0.1019 -1.7567
 1895TIP3   OH227175   5.830   3.255   3.019 -0.2793 -0.7950 -0.4123
 1895TIP3    H127176   5.883   3.247   3.098 -0.0114  1.4309 -0.2903
 1895TIP3    H227177   5.865   3.332   2.975 -0.7770 -1.6771 -2.4479
 1896TIP3   OH227178   4.478   0.606  15.779  0.4270 -0.5237  0.1828
 1896TIP3    H127179   4.489   0.517  15.813  0.0394 -0.7308 -0.2193
 1896TIP3    H227180   4.540   0.659  15.829  0.0596 -0.8718  1.0220
 1897TIP3   OH227181   2.535   3.911   5.195 -0.0502  0.2670  0.0113
 1897TIP3    H127182   2.482   3.833   5.208 -0.3490  0.5675  0.6680
 1897TIP3    H227183   2.472   3.979   5.169  0.2374  0.2380 -0.7767
 1898TIP3   OH227184   6.418   1.336   6.797 -0.0286 -0.1393  0.0863
 1898TIP3    H127185   6.360   1.337   6.720  1.4286  0.2593 -1.0631
 1898TIP3    H227186   6.489   1.397   6.774  0.6585 -0.3231  1.5974
 1899TIP3   OH227187   3.300   6.460  14.766 -0.0551  0.4501 -0.1728
 1899TIP3    H127188   3.259   6.430  14.686  0.6192 -0.1306 -0.3087
 1899TIP3    H227189   3.279   6.393  14.831 -1.5993  1.4917  0.4630
 1900TIP3   OH227190   2.325   2.011   4.679 -0.3544 -0.4165  0.4356
 1900TIP3    H127191   2.264   2.031   4.608  1.0604  1.0102 -0.4575
 1900TIP3    H227192   2.346   1.919   4.668 -0.0109 -0.1775 -1.1636
 1901TIP3   OH227193   3.794   5.172   3.014 -0.2163  0.0078 -0.2310
 1901TIP3    H127194   3.820   5.251   3.061  1.1618 -0.2215 -0.5692
 1901TIP3    H227195   3.871   5.148   2.963 -1.0791 -0.7716 -1.2127
 1902TIP3   OH227196   1.492   0.914  12.850  0.4878 -0.1049  0.0052
 1902TIP3    H127197   1.400   0.919  12.821  0.2253  1.0787  0.9420
 1902TIP3    H227198   1.537   0.867  12.780 -1.1106 -2.0477  0.2126
 1903TIP3   OH227199   0.656   1.476   4.788 -0.4127 -0.0963  0.1120
 1903TIP3    H127200   0.567   1.508   4.772 -1.0230 -1.0506  1.4219
 1903TIP3    H227201   0.694   1.540   4.848  0.1198  0.7839 -1.1244
 1904TIP3   OH227202   0.097   0.790   1.704 -0.0536 -0.2936  0.3388
 1904TIP3    H127203   0.162   0.787   1.774 -0.5938  1.0559  0.9200
 1904TIP3    H227204   0.086   0.698   1.678  1.3962 -0.6359  0.8451
 1905TIP3   OH227205   4.092   0.265  14.011  0.4655  0.6659 -0.0571
 1905TIP3    H127206   4.130   0.350  13.989 -2.5265  2.3651  0.6685
 1905TIP3    H227207   4.052   0.279  14.097 -0.3296 -1.4077 -0.0401
 1906TIP3   OH227208   1.136   1.702  11.863 -0.3743  0.7938 -0.6350
 1906TIP3    H127209   1.173   1.637  11.803 -2.3063  0.7330 -1.8247
 1906TIP3    H227210   1.144   1.662  11.950  3.7428  1.4426 -0.4936
 1907TIP3   OH227211   1.384   3.725  11.902 -0.1865 -0.0447 -0.8263
 1907TIP3    H127212   1.404   3.688  11.988 -2.2667 -1.7739 -1.0052
 1907TIP3    H227213   1.299   3.769  11.913  0.2213  1.0055 -1.6666
 1908TIP3   OH227214   4.353   6.225  14.793 -0.5903  0.3556 -0.0783
 1908TIP3    H127215   4.356   6.144  14.743 -2.4925 -0.3996  0.9452
 1908TIP3    H227216   4.384   6.201  14.881 -0.6488  0.8698  0.0903
 1909TIP3   OH227217   1.837   3.704   3.601  0.4455 -0.4249 -0.1442
 1909TIP3    H127218   1.857   3.693   3.508 -1.1072 -0.8005 -0.4604
 1909TIP3    H227219   1.779   3.780   3.605  0.2851 -0.5714  0.4920
 1910TIP3   OH227220   3.418   2.821  17.020  0.4753  0.2397 -0.1840
 1910TIP3    H127221   3.484   2.753  17.027 -0.4728 -0.7779 -0.8712
 1910TIP3    H227222   3.385   2.833  17.110 -0.0620 -0.9371 -0.2152
 1911TIP3   OH227223   0.033   2.600   4.429  0.6378  0.0598 -0.5706
 1911TIP3    H127224  -0.027   2.666   4.394 -0.5192 -0.8705 -0.3938
 1911TIP3    H227225   0.002   2.517   4.393  0.6774 -0.6684  0.9962
 1912TIP3   OH227226   3.831   6.758   3.765  0.1971 -0.3422  0.2955
 1912TIP3    H127227   3.908   6.717   3.726  0.2688 -0.6017  0.7040
 1912TIP3    H227228   3.863   6.841   3.800 -0.0614  0.3494 -1.0286
 1913TIP3   OH227229   3.295   4.745   6.807  0.1553 -0.2123  0.4579
 1913TIP3    H127230   3.232   4.674   6.821 -0.6736  0.1576 -1.0774
 1913TIP3    H227231   3.366   4.703   6.759 -0.8514  0.1355 -1.4751
 1914TIP3   OH227232   4.905   2.356   3.753  0.0591 -0.0721  0.4114
 1914TIP3    H127233   4.940   2.443   3.733 -0.5848  0.2743  0.7604
 1914TIP3    H227234   4.926   2.343   3.846  1.0960 -0.7440  0.0962
 1915TIP3   OH227235   6.120   5.030  13.190  0.3635 -0.2520  0.6110
 1915TIP3    H127236   6.151   4.999  13.105  2.3340 -0.0048  1.1829
 1915TIP3    H227237   6.029   5.056  13.175  0.8572  0.3971 -1.5570
 1916TIP3   OH227238   3.148   6.234  16.408 -0.4742 -0.3747 -0.0884
 1916TIP3    H127239   3.151   6.327  16.388 -0.2121  0.0179  1.6121
 1916TIP3    H227240   3.100   6.229  16.491 -0.9527 -1.8154 -0.4199
 1917TIP3   OH227241   6.618   4.173  11.918 -0.4287 -0.2764 -0.2096
 1917TIP3    H127242   6.708   4.139  11.919 -0.2807 -0.0158  1.9524
 1917TIP3    H227243   6.564   4.099  11.948 -0.9801 -0.4719 -1.6187
 1918TIP3   OH227244   1.452   2.201  12.881 -0.3022 -0.1629  0.1018
 1918TIP3    H127245   1.425   2.166  12.797  0.9093  0.4796 -0.5822
 1918TIP3    H227246   1.399   2.281  12.892 -0.0175  0.0937 -0.3535
 1919TIP3   OH227247   2.012   0.476   1.537  0.5900  0.4103  0.0169
 1919TIP3    H127248   1.938   0.512   1.488  1.1996  2.5693  0.5539
 1919TIP3    H227249   2.088   0.520   1.501  1.5092 -1.0068  0.1806
 1920TIP3   OH227250   6.703   6.455   3.283 -0.3654 -0.0726  0.2352
 1920TIP3    H127251   6.701   6.547   3.257  4.1810  0.2783  0.1910
 1920TIP3    H227252   6.720   6.408   3.202  0.6283 -0.5109  0.6791
 1921TIP3   OH227253   1.077   5.809   2.944 -0.3267 -0.2079 -0.3559
 1921TIP3    H127254   1.165   5.818   2.981 -1.1517 -0.8538  1.9407
 1921TIP3    H227255   1.071   5.717   2.917 -0.5935 -0.4046  0.3567
 1922TIP3   OH227256   3.084   3.309   1.976 -0.0461  0.0450 -0.4502
 1922TIP3    H127257   3.033   3.302   2.057 -0.8610  1.5647 -0.7971
 1922TIP3    H227258   3.174   3.293   2.004 -0.5823 -2.0000  0.2946
 1923TIP3   OH227259   1.380   1.936  11.940 -0.1585 -0.3583  0.7012
 1923TIP3    H127260   1.450   2.000  11.938 -0.9029  0.4638  0.1173
 1923TIP3    H227261   1.424   1.851  11.948  1.1543 -0.1965 -2.8302
 1924TIP3   OH227262   3.821   6.450   2.853 -0.1678  0.0298 -0.1036
 1924TIP3    H127263   3.843   6.543   2.850  1.5697 -0.3768 -1.3555
 1924TIP3    H227264   3.809   6.426   2.761 -0.1997 -1.0740  0.1821
 1925TIP3   OH227265   5.192   4.151  16.999 -0.5965 -0.4250 -0.1875
 1925TIP3    H127266   5.208   4.121  17.089 -0.6372 -0.7123 -0.2747
 1925TIP3    H227267   5.162   4.073  16.953  0.9090 -0.6423 -0.8368
 1926TIP3   OH227268   3.534   4.187  13.556 -0.4356  0.2128 -0.3539
 1926TIP3    H127269   3.447   4.169  13.520 -0.7349 -0.0272  0.4443
 1926TIP3    H227270   3.554   4.276  13.528 -0.6050 -0.0015 -1.1791
 1927TIP3   OH227271   4.423   3.789   0.369  0.3352  0.4762 -0.6526
 1927TIP3    H127272   4.436   3.877   0.334  0.2859  1.1723  0.9770
 1927TIP3    H227273   4.328   3.778   0.370  0.1197  1.6977  1.9650
 1928TIP3   OH227274   6.748   3.020  15.071  0.1258 -0.7429 -0.5432
 1928TIP3    H127275   6.788   2.962  15.005 -2.4896 -3.8542  0.3580
 1928TIP3    H227276   6.669   3.052  15.029 -0.8412 -1.6323  0.5544
 1929TIP3   OH227277   2.649   5.363   2.106  0.5261  0.3894  0.2892
 1929TIP3    H127278   2.740   5.389   2.089  0.8587 -1.6230 -1.3383
 1929TIP3    H227279   2.638   5.378   2.200  2.6528  0.3460  0.6099
 1930TIP3   OH227280   4.699   3.913  12.237  0.3654 -0.1135 -0.4434
 1930TIP3    H127281   4.697   3.875  12.325  1.6568 -1.7703 -1.0712
 1930TIP3    H227282   4.792   3.933  12.222  0.4416 -1.4585 -2.0395
 1931TIP3   OH227283   3.951   3.617   1.750 -0.3488 -0.0325 -0.1996
 1931TIP3    H127284   3.995   3.565   1.683 -1.2542 -0.6774 -0.3138
 1931TIP3    H227285   3.873   3.651   1.706 -0.3151  0.5446  0.1838
 1932TIP3   OH227286   4.589   2.763  16.024 -0.1626 -0.3144 -0.0640
 1932TIP3    H127287   4.621   2.724  15.943 -0.6361  0.1464 -0.4766
 1932TIP3    H227288   4.661   2.817  16.055  0.3291 -1.1375  0.2672
 1933TIP3   OH227289   5.145   0.588  10.780 -0.3491  0.3684 -0.2039
 1933TIP3    H127290   5.050   0.600  10.785 -0.7205 -1.0015 -2.4007
 1933TIP3    H227291   5.177   0.669  10.740 -0.8328  0.1960 -0.9636
 1934TIP3   OH227292   2.968   1.958   1.940  0.1224 -0.1751 -0.1495
 1934TIP3    H127293   2.936   1.886   1.995  0.6609 -0.8523 -0.7212
 1934TIP3    H227294   2.889   1.991   1.896  0.0165 -1.0717 -0.6485
 1935TIP3   OH227295   0.071   2.891   5.181 -0.6324 -0.2377  0.1263
 1935TIP3    H127296   0.028   2.975   5.200 -0.1770 -0.0752  0.4403
 1935TIP3    H227297   0.075   2.846   5.266 -1.7076 -0.9756 -0.1966
 1936TIP3   OH227298   3.462   6.175  16.318  0.5044  0.6299 -0.5085
 1936TIP3    H127299   3.508   6.257  16.337  0.8443  0.4068 -0.3581
 1936TIP3    H227300   3.406   6.196  16.243  0.8339  0.9143 -0.6802
 1937TIP3   OH227301   0.306   6.599   2.936 -0.0012  0.3351 -0.3539
 1937TIP3    H127302   0.223   6.611   2.890 -0.3771 -0.2059  0.1746
 1937TIP3    H227303   0.294   6.642   3.020 -0.3196 -1.1025  0.3639
 1938TIP3   OH227304   4.965   4.719   2.306 -0.5555  0.2444 -0.1416
 1938TIP3    H127305   4.928   4.786   2.364 -1.3796  0.9305 -1.4163
 1938TIP3    H227306   4.890   4.686   2.258  0.3059  0.8972 -2.0167
 1939TIP3   OH227307   2.663   5.569  15.313 -0.4679 -0.2961 -0.1758
 1939TIP3    H127308   2.706   5.607  15.390  0.1528  1.5731 -1.3703
 1939TIP3    H227309   2.715   5.492  15.291  0.4887  0.2391  0.1716
 1940TIP3   OH227310   3.265   5.612  13.272  0.0361 -0.0569  0.5246
 1940TIP3    H127311   3.187   5.602  13.217  0.6227  1.0578 -0.5615
 1940TIP3    H227312   3.238   5.580  13.358 -1.9110  1.1671  0.4346
 1941TIP3   OH227313   4.086   1.211  13.872 -0.3352 -0.0916  0.6540
 1941TIP3    H127314   4.173   1.203  13.909 -0.0726  0.3998  0.1531
 1941TIP3    H227315   4.079   1.303  13.846 -1.1943 -0.0003  1.1664
 1942TIP3   OH227316   0.303   2.517   6.473  0.1904  0.1251 -0.6082
 1942TIP3    H127317   0.366   2.567   6.420  0.0036  0.8843 -0.1394
 1942TIP3    H227318   0.339   2.428   6.476  1.3497  0.5790 -0.2154
 1943TIP3   OH227319   1.159   1.555  11.334  0.3228 -0.0147  0.6451
 1943TIP3    H127320   1.149   1.602  11.251 -1.4412  0.4616  1.0945
 1943TIP3    H227321   1.239   1.590  11.372  1.7635 -0.9841 -1.2925
 1944TIP3   OH227322   6.692   1.000  11.794 -0.6024  0.5960  0.3805
 1944TIP3    H127323   6.758   0.982  11.861 -0.7946  0.0048  0.4181
 1944TIP3    H227324   6.621   0.939  11.814 -0.4527  0.0696 -0.6583
 1945TIP3   OH227325   5.136   6.055   3.343 -0.7765  0.4974 -0.1133
 1945TIP3    H127326   5.137   5.969   3.302  0.8012  0.9288 -1.0440
 1945TIP3    H227327   5.149   6.038   3.437 -3.2363 -0.4149  0.1343
 1946TIP3   OH227328   2.240   2.103  11.134  0.3552 -0.2193 -1.1449
 1946TIP3    H127329   2.213   2.195  11.128  0.0875 -0.1827  0.2839
 1946TIP3    H227330   2.161   2.056  11.158  1.2365 -0.1994  2.4003
 1947TIP3   OH227331   4.261   5.969  11.456  0.1269 -0.3434  0.6242
 1947TIP3    H127332   4.213   5.891  11.482  0.0770 -0.3443  0.5285
 1947TIP3    H227333   4.193   6.033  11.433  0.1786 -0.8155 -0.9213
 1948TIP3   OH227334   3.804   4.415   6.704  0.2294  0.5839 -0.2502
 1948TIP3    H127335   3.805   4.506   6.674  1.4564  0.6137 -0.1718
 1948TIP3    H227336   3.888   4.380   6.676  0.4837 -0.0336  1.2132
 1949TIP3   OH227337   3.710   2.737   3.527 -0.4685  0.1843 -0.0128
 1949TIP3    H127338   3.682   2.814   3.576  2.5487 -0.1062  2.4606
 1949TIP3    H227339   3.780   2.769   3.469 -0.2951 -0.4209 -0.1499
 1950TIP3   OH227340   2.819   2.561  11.784 -0.1188  0.3279 -0.0717
 1950TIP3    H127341   2.736   2.532  11.744  0.6177  2.2346 -3.4339
 1950TIP3    H227342   2.886   2.510  11.739  0.6849  0.8276  0.5452
 1951TIP3   OH227343   4.700   1.689  14.658  0.6812 -0.5144 -0.1548
 1951TIP3    H127344   4.723   1.646  14.740  0.3491 -1.1150 -0.3713
 1951TIP3    H227345   4.604   1.693  14.659  0.6501  3.4695  1.5225
 1952TIP3   OH227346   3.941   3.643  11.915  0.1934 -0.0358 -0.7332
 1952TIP3    H127347   3.992   3.606  11.843  1.8168  1.4649 -0.4402
 1952TIP3    H227348   3.990   3.619  11.994 -0.4813  0.0128 -0.2935
 1953TIP3   OH227349   1.037   1.434   5.033 -0.6306  0.2720  0.0160
 1953TIP3    H127350   1.066   1.523   5.054 -2.9549  0.7167  1.7095
 1953TIP3    H227351   0.990   1.444   4.950  0.7314  0.2103 -0.8025
 1954TIP3   OH227352   2.758   1.672  14.454 -0.0546  0.4588  0.0748
 1954TIP3    H127353   2.706   1.719  14.519  1.3218  2.2592 -0.0397
 1954TIP3    H227354   2.829   1.732  14.432  1.5273 -1.4933 -0.5067
 1955TIP3   OH227355   2.909   0.583  13.589 -0.5174 -0.2047 -0.4529
 1955TIP3    H127356   2.922   0.674  13.615  2.1244 -0.9206  1.1634
 1955TIP3    H227357   2.994   0.556  13.554 -1.5047 -1.8428 -1.7399
 1956TIP3   OH227358   5.024   4.892   1.716  0.1959  1.0693 -0.3635
 1956TIP3    H127359   5.105   4.930   1.750  0.1267  0.3889  0.6160
 1956TIP3    H227360   4.966   4.967   1.703  0.1653  1.3756  1.2353
 1957TIP3   OH227361   3.996   3.303  14.733 -0.4789 -0.1913 -0.3660
 1957TIP3    H127362   4.078   3.296  14.782 -0.3691 -1.8001 -0.7341
 1957TIP3    H227363   3.928   3.300  14.800 -0.2857 -0.7908 -0.1912
 1958TIP3   OH227364   6.055   1.588   3.408 -0.1073 -0.3456 -0.2237
 1958TIP3    H127365   6.074   1.498   3.436  0.0610 -0.7524 -1.5558
 1958TIP3    H227366   6.117   1.604   3.337  0.5395  1.1993  0.6325
 1959TIP3   OH227367   5.873   4.769   0.224  0.2844  0.2754 -0.0599
 1959TIP3    H127368   5.946   4.751   0.165  0.3185 -0.8119  0.2867
 1959TIP3    H227369   5.914   4.772   0.311 -0.0348 -0.0617  0.1048
 1960TIP3   OH227370   2.547   3.053  13.990 -0.5711 -0.1836 -0.0742
 1960TIP3    H127371   2.468   3.001  14.006 -1.1478  0.4666 -0.7197
 1960TIP3    H227372   2.619   2.991  13.998 -1.1421 -0.7782  0.5745
 1961TIP3   OH227373   1.999   6.188   5.488 -0.6350  0.2221 -0.1795
 1961TIP3    H127374   2.089   6.203   5.458 -1.0631 -0.9615 -2.2229
 1961TIP3    H227375   1.972   6.109   5.443 -1.6055 -1.4023  2.9590
 1962TIP3   OH227376   3.099   2.125   0.959 -0.5471 -0.5401 -0.7735
 1962TIP3    H127377   3.125   2.214   0.982 -0.5444 -0.5486 -0.7442
 1962TIP3    H227378   3.022   2.137   0.904  1.9758 -0.2624 -4.6137
 1963TIP3   OH227379   6.117   0.990  10.651 -0.2665  0.2371  0.2449
 1963TIP3    H127380   6.035   0.963  10.609 -0.6902  2.0321 -0.1573
 1963TIP3    H227381   6.186   0.957  10.593 -0.8019  1.1310 -0.9533
 1964TIP3   OH227382   2.002   1.298  10.489  0.3532 -0.7460  0.3600
 1964TIP3    H127383   1.979   1.223  10.434 -1.2562 -1.4387  1.8650
 1964TIP3    H227384   2.037   1.363  10.429 -0.1175 -1.9561 -1.2751
 1965TIP3   OH227385   6.493   6.584  15.716 -0.4027 -0.3094  0.1606
 1965TIP3    H127386   6.512   6.490  15.713 -3.1053 -0.9058 -1.5479
 1965TIP3    H227387   6.510   6.614  15.627  1.1059  1.0388  0.8573
 1966TIP3   OH227388   4.253   2.646   0.827 -0.0075 -0.4422  0.6310
 1966TIP3    H127389   4.267   2.669   0.919  1.3961  0.0272  0.3298
 1966TIP3    H227390   4.307   2.709   0.778  0.5635 -1.7038 -0.4310
 1967TIP3   OH227391   3.489   0.392   5.927 -0.8458  0.5132  0.1197
 1967TIP3    H127392   3.513   0.322   5.867 -0.0206 -0.4095  1.4876
 1967TIP3    H227393   3.415   0.358   5.976  0.0318  0.2609  1.3187
 1968TIP3   OH227394   4.153   6.114  16.166  0.4900  0.0103 -0.6013
 1968TIP3    H127395   4.230   6.132  16.219 -0.8708  0.5688  1.3085
 1968TIP3    H227396   4.112   6.199  16.152 -0.3243 -0.3817 -0.6957
 1969TIP3   OH227397   0.458   3.642  14.882 -0.0783 -0.5326  0.2299
 1969TIP3    H127398   0.492   3.648  14.971 -0.5566 -0.9401  0.4468
 1969TIP3    H227399   0.454   3.548  14.864  0.1361 -0.4488 -0.2718
 1970TIP3   OH227400   2.386   6.400  14.999 -0.1571 -0.7249  0.6789
 1970TIP3    H127401   2.295   6.410  14.972 -0.1633  0.8873  1.1750
 1970TIP3    H227402   2.383   6.347  15.078 -0.5465 -1.5689  0.1152
 1971TIP3   OH227403   1.130   5.769   4.511 -0.0996  0.0115 -0.2719
 1971TIP3    H127404   1.220   5.799   4.510  0.7074 -2.2179 -0.9579
 1971TIP3    H227405   1.080   5.840   4.470  1.4053  1.0477 -0.3754
 1972TIP3   OH227406   6.725   0.781   3.882  0.4895 -0.5818 -0.3101
 1972TIP3    H127407   6.744   0.688   3.873  0.2811 -0.5161 -1.6397
 1972TIP3    H227408   6.665   0.787   3.956  0.4582 -1.5117 -0.2539
 1973TIP3   OH227409   5.553   1.741  13.730 -0.3624  0.0607  0.3263
 1973TIP3    H127410   5.495   1.685  13.678 -0.4613 -0.4362  0.9643
 1973TIP3    H227411   5.633   1.747  13.677 -0.9948  0.7980 -0.5876
 1974TIP3   OH227412   6.639   0.399  12.295  0.0265  0.2467 -0.0496
 1974TIP3    H127413   6.682   0.438  12.218  0.8826 -0.4560  0.0496
 1974TIP3    H227414   6.690   0.431  12.369  0.6198 -0.8864  0.0454
 1975TIP3   OH227415   3.469   4.350   3.312 -0.2089 -0.4797 -0.1518
 1975TIP3    H127416   3.539   4.321   3.371 -0.8968 -1.5577  0.1667
 1975TIP3    H227417   3.455   4.276   3.253 -0.3906  0.1126 -0.8705
 1976TIP3   OH227418   1.561   6.362  14.429 -0.1328  0.2351 -0.3185
 1976TIP3    H127419   1.623   6.313  14.375  1.6740  0.8663  1.0730
 1976TIP3    H227420   1.582   6.454  14.412 -1.6365  0.4981 -0.8522
 1977TIP3   OH227421   4.296   3.534  11.152 -0.0183 -0.2070  0.5132
 1977TIP3    H127422   4.240   3.457  11.139  0.6743 -0.5336 -0.7345
 1977TIP3    H227423   4.284   3.586  11.073  0.6111  0.2569  0.7140
 1978TIP3   OH227424   2.310   5.240  17.280  0.0148 -0.3187  0.2027
 1978TIP3    H127425   2.357   5.321  17.262  1.3700 -0.8698  1.0782
 1978TIP3    H227426   2.219   5.259  17.259  0.7044  0.5560 -2.3531
 1979TIP3   OH227427   3.704   4.633  12.794  0.2699  0.0792 -0.4698
 1979TIP3    H127428   3.651   4.692  12.848  0.7435  0.0039  0.0874
 1979TIP3    H227429   3.787   4.679  12.782  0.3117 -0.0788 -0.8007
 1980TIP3   OH227430   5.081   2.677  15.502 -0.2953  0.1371 -0.3875
 1980TIP3    H127431   5.072   2.590  15.462  0.6873 -0.7346  1.1705
 1980TIP3    H227432   5.175   2.691  15.509 -0.4448  1.2316 -0.3770
 1981TIP3   OH227433   2.376   5.452  11.503 -0.0245  0.8888 -0.3286
 1981TIP3    H127434   2.286   5.481  11.487 -0.3652 -0.4179 -0.9449
 1981TIP3    H227435   2.430   5.510  11.449 -0.7075  0.1994 -1.8157
 1982TIP3   OH227436   6.178   1.322  13.166  0.0504 -0.1557 -0.4964
 1982TIP3    H127437   6.103   1.373  13.136 -0.2821 -1.6007 -2.2957
 1982TIP3    H227438   6.189   1.347  13.258 -3.1154 -0.4305  0.0817
 1983TIP3   OH227439   0.583   6.337   2.299  0.4724 -0.6504 -0.3728
 1983TIP3    H127440   0.673   6.329   2.329  0.1468 -0.9943  0.5734
 1983TIP3    H227441   0.537   6.375   2.374 -0.0934 -0.1156 -0.9814
 1984TIP3   OH227442   4.035   3.713   5.155  0.0736  0.2309 -0.1940
 1984TIP3    H127443   3.993   3.636   5.192 -3.5579  2.8633  1.8847
 1984TIP3    H227444   4.080   3.754   5.229  1.8662  0.2195 -1.2310
 1985TIP3   OH227445   4.905   3.344   4.696 -0.8090 -0.4129 -0.4049
 1985TIP3    H127446   4.986   3.393   4.708 -1.5898  1.1509 -1.2567
 1985TIP3    H227447   4.910   3.273   4.760  0.2337  0.9351  1.0703
 1986TIP3   OH227448   1.270   1.270  11.569  0.2814  0.0739  0.2872
 1986TIP3    H127449   1.310   1.283  11.483  0.1308  1.2043  0.3655
 1986TIP3    H227450   1.176   1.276  11.552  0.2694  1.1469  0.6278
 1987TIP3   OH227451   6.005   2.761  12.244 -0.3589  0.7633  0.0553
 1987TIP3    H127452   6.007   2.746  12.339  2.0696 -0.3791 -0.0905
 1987TIP3    H227453   5.922   2.723  12.216 -1.1399  1.1272  1.6964
 1988TIP3   OH227454   6.011   2.016  14.455  0.7564  0.3166 -0.0042
 1988TIP3    H127455   5.972   1.944  14.406  0.8047  0.3214 -0.0489
 1988TIP3    H227456   6.001   1.991  14.547 -1.0806  1.1681  0.0810
 1989TIP3   OH227457   1.373   1.051  16.384  0.2377 -0.2167  0.0197
 1989TIP3    H127458   1.431   1.127  16.385  0.7189 -0.5684  0.9093
 1989TIP3    H227459   1.285   1.087  16.390  0.2397  0.3860 -2.6323
 1990TIP3   OH227460   1.252   4.301   0.296  0.2412 -0.2121  0.0088
 1990TIP3    H127461   1.290   4.388   0.295 -0.9036  0.3049 -0.2473
 1990TIP3    H227462   1.158   4.315   0.282 -0.4297 -1.2476  2.7815
 1991TIP3   OH227463   3.581   2.096  17.040 -0.5579  0.1059 -0.1168
 1991TIP3    H127464   3.548   2.129  16.956 -0.2869 -3.0622 -1.6019
 1991TIP3    H227465   3.673   2.121  17.041 -0.3087 -0.6780 -1.2803
 1992TIP3   OH227466   1.790   2.392  16.535 -0.5109 -0.1686 -0.6842
 1992TIP3    H127467   1.775   2.333  16.608  0.5712  0.1886 -0.1540
 1992TIP3    H227468   1.884   2.387  16.518  0.3117  3.7644  1.5234
 1993TIP3   OH227469   5.689   3.112   2.831  0.5728  0.3502 -0.1200
 1993TIP3    H127470   5.707   3.166   2.909 -1.3653  0.6684  0.1603
 1993TIP3    H227471   5.659   3.029   2.867  1.8651 -0.3223 -0.5593
 1994TIP3   OH227472   1.652   3.428  10.539  0.2053 -0.1746 -0.3124
 1994TIP3    H127473   1.660   3.392  10.628 -0.6514  1.5822  0.5187
 1994TIP3    H227474   1.735   3.474  10.525  0.5946 -0.9714 -0.6924
 1995TIP3   OH227475   2.898   4.823  16.690 -0.1368  0.6189 -0.2404
 1995TIP3    H127476   2.987   4.841  16.720 -0.5947 -1.1377  2.4921
 1995TIP3    H227477   2.842   4.871  16.751 -1.0765 -0.9599  0.1955
 1996TIP3   OH227478   6.127   0.946  14.957  0.5447 -0.1049  0.4024
 1996TIP3    H127479   6.203   0.923  14.904 -0.5302 -2.7897 -0.1733
 1996TIP3    H227480   6.060   0.969  14.893 -0.2019 -1.5244  0.6244
 1997TIP3   OH227481   2.430   3.404   4.989  0.0224 -0.1632 -0.5447
 1997TIP3    H127482   2.461   3.314   4.985  1.7138  0.3040  0.7252
 1997TIP3    H227483   2.348   3.399   5.038 -0.1669 -1.0614 -0.9369
 1998TIP3   OH227484   2.401   0.382  12.349 -0.5241  0.6731  0.9855
 1998TIP3    H127485   2.386   0.333  12.430  0.5324  0.8272  1.2861
 1998TIP3    H227486   2.483   0.428  12.364  1.0098 -1.1994 -1.0506
 1999TIP3   OH227487   2.990   6.249   5.323 -0.4685  0.2833 -0.0255
 1999TIP3    H127488   2.941   6.305   5.263 -0.5634  1.2153  0.9025
 1999TIP3    H227489   3.078   6.245   5.286 -0.4583  1.0543 -0.0864
 2000TIP3   OH227490   4.427   5.761   0.686  0.2760  0.3371 -0.5409
 2000TIP3    H127491   4.469   5.687   0.730 -2.0065  0.2645  1.7677
 2000TIP3    H227492   4.405   5.728   0.599 -0.2022 -1.5897  0.2499
 2001TIP3   OH227493   3.244   3.721  10.645 -0.0102 -0.5076 -0.1938
 2001TIP3    H127494   3.248   3.667  10.565  1.2939  0.4876 -0.8408
 2001TIP3    H227495   3.289   3.802  10.621 -0.8307  0.3705  1.1503
 2002TIP3   OH227496   2.353   4.245   1.837 -0.0347  0.0242 -0.4039
 2002TIP3    H127497   2.439   4.286   1.845 -0.1251 -0.0732  2.2541
 2002TIP3    H227498   2.365   4.177   1.772  1.5757  0.7841 -0.9632
 2003TIP3   OH227499   6.491   0.852   1.577  0.0997  0.2455  0.8383
 2003TIP3    H127500   6.488   0.946   1.564  0.8263 -0.0426 -2.0694
 2003TIP3    H227501   6.399   0.825   1.578 -0.1551  1.0257  2.7118
 2004TIP3   OH227502   2.871   6.438  16.499  0.4227 -0.0898  0.5067
 2004TIP3    H127503   2.801   6.374  16.510 -1.3157  1.3887 -1.1949
 2004TIP3    H227504   2.889   6.439  16.405  1.7116  0.6189  0.7269
 2005TIP3   OH227505   3.195   4.845   0.463  0.1864  0.0226  0.3670
 2005TIP3    H127506   3.182   4.863   0.370 -1.1058 -1.5533  0.2025
 2005TIP3    H227507   3.238   4.759   0.464 -1.4950 -0.8583  1.2207
 2006TIP3   OH227508   3.581   0.086  15.725  0.4351  0.3208 -0.0670
 2006TIP3    H127509   3.524   0.145  15.775  0.4017 -0.2673  0.5953
 2006TIP3    H227510   3.523   0.046  15.661  0.1834  0.0460  0.3263
 2007TIP3   OH227511   6.452   4.106  17.237 -0.0430  0.0716  0.6803
 2007TIP3    H127512   6.408   4.171  17.291 -1.3175  0.5391 -0.8546
 2007TIP3    H227513   6.411   4.023  17.262 -1.7711  0.4818 -0.6251
 2008TIP3   OH227514   1.649   1.323   1.228 -0.2431 -0.2599  0.3488
 2008TIP3    H127515   1.670   1.388   1.161  0.7211  0.3201  1.1889
 2008TIP3    H227516   1.670   1.239   1.186 -1.3839 -0.0614 -0.6960
 2009TIP3   OH227517   2.963   1.734   2.152  0.6403 -0.0137 -0.7757
 2009TIP3    H127518   2.917   1.664   2.106  1.4676 -0.8263 -0.4034
 2009TIP3    H227519   3.053   1.703   2.160  1.5025  1.9274 -2.2518
 2010TIP3   OH227520   2.626   4.594  12.402  0.5338  0.0361 -0.5342
 2010TIP3    H127521   2.699   4.656  12.402 -0.0665  0.7632 -1.6870
 2010TIP3    H227522   2.657   4.521  12.349  0.8374 -0.1689 -0.0800
 2011TIP3   OH227523   2.761   2.530   3.912 -0.8691 -0.1795 -0.1096
 2011TIP3    H127524   2.709   2.505   3.836 -0.1126 -0.1244 -0.6523
 2011TIP3    H227525   2.713   2.493   3.987 -1.5568 -0.3297 -0.6125
 2012TIP3   OH227526   4.395   3.870   4.358 -0.6952  0.0954  0.2690
 2012TIP3    H127527   4.370   3.784   4.394  0.7440 -0.1902  0.6412
 2012TIP3    H227528   4.443   3.913   4.429  0.9388  0.1042 -0.7984
 2013TIP3   OH227529   2.777   6.387  13.884 -0.2375 -0.6391 -0.2088
 2013TIP3    H127530   2.849   6.332  13.912 -0.1879 -0.9931 -1.0005
 2013TIP3    H227531   2.736   6.338  13.812 -1.1387 -0.3548  0.0929
 2014TIP3   OH227532   3.197   5.420  13.981 -0.4377 -0.0001 -0.4727
 2014TIP3    H127533   3.255   5.469  14.039 -1.9197  0.1459  0.9628
 2014TIP3    H227534   3.126   5.390  14.037 -1.1885 -1.1398 -1.9407
 2015TIP3   OH227535   3.354   4.476   3.006  0.1584  0.3264 -1.1480
 2015TIP3    H127536   3.312   4.468   3.092 -0.3366 -0.4702 -1.4489
 2015TIP3    H227537   3.447   4.463   3.023 -0.0998 -1.4651 -0.9230
 2016TIP3   OH227538   6.576   0.006  13.640  0.0557  0.0978 -0.2782
 2016TIP3    H127539   6.645   0.049  13.588 -1.0078  2.5257  0.1587
 2016TIP3    H227540   6.535   0.078  13.688 -1.6840 -1.5242  0.7721
 2017TIP3   OH227541   3.239   4.052   3.453  0.4054 -0.0720 -0.0681
 2017TIP3    H127542   3.331   4.031   3.439  0.5161  0.7189 -0.6069
 2017TIP3    H227543   3.240   4.120   3.521  0.2743  0.4370 -0.5696
 2018TIP3   OH227544   5.052   1.254   0.918 -0.3887  0.8348 -0.1697
 2018TIP3    H127545   5.071   1.208   0.836 -2.3395  0.0174 -0.2202
 2018TIP3    H227546   5.022   1.341   0.890  1.6598  1.6078 -0.1454
 2019TIP3   OH227547   3.152   0.639   2.422 -0.2902 -0.3468  0.7630
 2019TIP3    H127548   3.190   0.600   2.501  0.5953  1.9797  1.5612
 2019TIP3    H227549   3.085   0.576   2.394  1.5192 -2.7652  1.5040
 2020TIP3   OH227550   6.686   3.420  13.015  0.0587  0.5437 -0.1804
 2020TIP3    H127551   6.615   3.479  13.041 -0.6097 -0.0077 -0.7194
 2020TIP3    H227552   6.681   3.348  13.078  0.8274  1.0158  0.4334
 2021TIP3   OH227553   4.673   6.809   3.243  0.3526  0.2766  0.3322
 2021TIP3    H127554   4.720   6.727   3.228 -0.1306  0.1787 -0.7841
 2021TIP3    H227555   4.627   6.796   3.326  1.1294 -0.1707  0.7060
 2022TIP3   OH227556   4.734   5.316  10.308  0.0145  0.0100  0.4299
 2022TIP3    H127557   4.666   5.249  10.301 -0.6303  0.6037  0.9027
 2022TIP3    H227558   4.799   5.278  10.367 -1.1524  0.4415  2.0435
 2023TIP3   OH227559   6.163   5.525  14.614  0.1089  0.1585  0.2052
 2023TIP3    H127560   6.198   5.590  14.553  0.7522 -1.6794 -1.4635
 2023TIP3    H227561   6.195   5.553  14.699 -1.1865  3.0600 -0.1282
 2024TIP3   OH227562   5.948   5.725  13.515 -0.0331  0.0854 -0.1571
 2024TIP3    H127563   5.969   5.761  13.602 -0.9683 -2.2172  1.1094
 2024TIP3    H227564   6.027   5.680  13.488  0.0066  0.1514 -0.1527
 2025TIP3   OH227565   5.364   0.931   3.254  0.2573 -0.2442 -0.7482
 2025TIP3    H127566   5.306   0.869   3.208 -1.0373  2.1664 -2.6354
 2025TIP3    H227567   5.318   0.951   3.336  0.4309 -1.3535 -0.3718
 2026TIP3   OH227568   0.031   6.089  14.946  0.0501 -0.3643 -0.0859
 2026TIP3    H127569   0.029   6.184  14.944 -0.9198 -0.3408 -2.9635
 2026TIP3    H227570  -0.061   6.063  14.945  0.3142 -1.3057 -0.7951
 2027TIP3   OH227571   6.743   4.295   2.390  0.0629 -0.0011 -0.0333
 2027TIP3    H127572   6.837   4.280   2.401 -0.4545 -3.3975  0.8523
 2027TIP3    H227573   6.723   4.257   2.304 -0.9238 -2.3932  1.1570
 2028TIP3   OH227574   4.645   4.965   5.979  0.2003  0.1266  0.5407
 2028TIP3    H127575   4.636   4.993   6.070 -0.5021  2.1632 -0.1001
 2028TIP3    H227576   4.730   4.921   5.975 -0.1502 -0.7808  2.3382
 2029TIP3   OH227577   6.042   6.680   4.527  0.1971 -0.4046  0.3873
 2029TIP3    H127578   6.076   6.649   4.443 -0.5315 -1.4905  0.4764
 2029TIP3    H227579   5.971   6.739   4.503  0.0072 -0.6920  0.2365
 2030TIP3   OH227580   0.609   3.776   4.026  0.1099  0.2950  0.3607
 2030TIP3    H127581   0.676   3.729   3.977 -0.8795 -0.7126 -0.0534
 2030TIP3    H227582   0.597   3.858   3.977 -1.1408 -0.8596 -1.3648
 2031TIP3   OH227583   4.784   0.485   4.637 -0.0896  0.5808  0.1781
 2031TIP3    H127584   4.858   0.541   4.613 -1.6584  2.5247 -0.2881
 2031TIP3    H227585   4.757   0.517   4.723 -0.5479  0.0097  0.2520
 2032TIP3   OH227586   3.592   3.640   1.782 -0.6724  0.0430 -0.1132
 2032TIP3    H127587   3.517   3.685   1.742 -0.3456  0.9384  0.2494
 2032TIP3    H227588   3.663   3.649   1.718 -1.3222 -2.4133 -1.2976
 2033TIP3   OH227589   4.637   5.301  14.036 -0.6364 -0.7500  0.1882
 2033TIP3    H127590   4.594   5.277  14.118 -0.0351  0.8176  1.0009
 2033TIP3    H227591   4.705   5.363  14.062 -0.7783  0.1782 -1.5545
 2034TIP3   OH227592   2.864   5.871   3.059  0.3223  0.2580 -0.5172
 2034TIP3    H127593   2.842   5.781   3.035  1.5824  0.0240 -0.8633
 2034TIP3    H227594   2.814   5.887   3.139  1.9106 -1.6567  0.9916
 2035TIP3   OH227595   0.456   5.359   1.785 -0.2279  0.1687  0.0172
 2035TIP3    H127596   0.442   5.358   1.690 -1.5682  0.4780  0.1912
 2035TIP3    H227597   0.405   5.434   1.816  1.1346  0.7934  0.8668
 2036TIP3   OH227598   5.017   4.718  11.786 -0.3503 -0.0247  0.1884
 2036TIP3    H127599   4.977   4.648  11.735  0.2625 -1.0000  1.0149
 2036TIP3    H227600   5.103   4.731  11.747  0.8007 -1.9374  1.9468
 2037TIP3   OH227601   6.000   3.438  15.262  0.0687  0.3509  0.3541
 2037TIP3    H127602   5.983   3.394  15.345 -0.6969 -0.9402 -0.4352
 2037TIP3    H227603   5.917   3.431  15.214  0.5673  0.8304 -0.6136
 2038TIP3   OH227604   6.812   1.147  17.210 -0.3169 -0.1627 -0.3193
 2038TIP3    H127605   6.762   1.202  17.270  0.1574  1.2593 -1.1850
 2038TIP3    H227606   6.755   1.071  17.195 -1.7920  0.9411 -0.5219
 2039TIP3   OH227607   6.427   4.591   4.373 -0.1416  0.2419  0.4747
 2039TIP3    H127608   6.458   4.682   4.374 -0.8231  0.4867  0.2188
 2039TIP3    H227609   6.368   4.585   4.449 -1.1313  0.3989 -0.2643
 2040TIP3   OH227610   2.281   2.344  12.921  0.2918 -0.3237  0.1724
 2040TIP3    H127611   2.343   2.391  12.977  0.5726 -2.9834  2.3284
 2040TIP3    H227612   2.335   2.303  12.854  0.2047  1.1583 -0.8603
 2041TIP3   OH227613   0.835   6.060  12.174 -0.6609 -0.1181  0.1023
 2041TIP3    H127614   0.929   6.049  12.165 -0.3235  2.4854 -0.3827
 2041TIP3    H227615   0.801   6.050  12.085 -0.3026  2.4177 -0.4165
 2042TIP3   OH227616   0.270   0.636  15.563  0.6767 -0.1187 -0.3247
 2042TIP3    H127617   0.280   0.542  15.548  1.4904  0.0081 -0.6234
 2042TIP3    H227618   0.195   0.661  15.508 -0.0994 -0.7352  0.4163
 2043TIP3   OH227619   5.598   2.088  13.006  0.0795  0.0506 -0.0868
 2043TIP3    H127620   5.653   2.160  12.974  0.2926 -0.3885 -0.7220
 2043TIP3    H227621   5.532   2.131  13.060  1.5920  0.5365  1.5057
 2044TIP3   OH227622   2.577   4.717  13.767  0.7753  0.5849 -0.5741
 2044TIP3    H127623   2.641   4.703  13.697  0.4416 -0.1964 -0.7342
 2044TIP3    H227624   2.496   4.679  13.734  0.2419  1.4852 -0.3336
 2045TIP3   OH227625   3.916   2.719   5.725 -0.6086  0.0411  0.1566
 2045TIP3    H127626   3.868   2.723   5.807  0.5767 -0.0019  0.8631
 2045TIP3    H227627   4.005   2.693   5.749 -0.4789 -0.9149 -1.2360
 2046TIP3   OH227628   4.261   4.949   3.577 -0.2861 -0.5401 -0.5822
 2046TIP3    H127629   4.302   5.032   3.554 -1.3008  0.7692  1.9463
 2046TIP3    H227630   4.169   4.959   3.552 -0.7244 -0.2812  1.0059
 2047TIP3   OH227631   5.534   4.539  14.940 -0.1039 -0.4133  0.4644
 2047TIP3    H127632   5.534   4.608  14.874 -0.2769  1.2128  2.0876
 2047TIP3    H227633   5.441   4.521  14.956 -0.3016  2.3460  3.2886
 2048TIP3   OH227634   0.812   3.489  13.336 -0.2476 -0.6276 -0.0566
 2048TIP3    H127635   0.846   3.516  13.250 -0.8533 -1.5828 -0.6151
 2048TIP3    H227636   0.833   3.396  13.342 -0.8518 -0.7345  0.5178
 2049TIP3   OH227637   6.446   0.062  11.547  0.4327  0.1957  0.1921
 2049TIP3    H127638   6.407   0.149  11.543  0.4763  0.1788 -0.7114
 2049TIP3    H227639   6.424   0.021  11.463  1.0836 -0.3772  0.2863
 2050TIP3   OH227640   3.297   6.752  15.345 -0.4878  0.0536  0.5472
 2050TIP3    H127641   3.379   6.780  15.386 -0.0533 -0.7771  0.2741
 2050TIP3    H227642   3.318   6.745  15.252 -1.2366  1.1026  0.2942
 2051TIP3   OH227643   4.417   1.173   1.822  0.2705  0.2270  0.3159
 2051TIP3    H127644   4.419   1.104   1.756  1.3935 -1.9022  2.4077
 2051TIP3    H227645   4.342   1.152   1.877  0.9281  0.3267  1.2845
 2052TIP3   OH227646   3.680   6.654  15.983  0.0835 -0.2266  0.1454
 2052TIP3    H127647   3.634   6.586  15.934 -1.6126 -0.1296  1.5203
 2052TIP3    H227648   3.670   6.733  15.929 -0.9900 -0.3152  0.1964
 2053TIP3   OH227649   6.270   1.412   4.085  0.5333 -0.2034  0.4228
 2053TIP3    H127650   6.249   1.377   4.172 -0.2204 -1.9258 -0.4001
 2053TIP3    H227651   6.287   1.505   4.100 -0.3791 -0.2873  2.2979
 2054TIP3   OH227652   0.798   5.143   2.325 -0.8153 -0.2249  0.1699
 2054TIP3    H127653   0.847   5.225   2.331 -1.6644  0.2804  0.3083
 2054TIP3    H227654   0.834   5.100   2.248 -1.1138  0.7851 -0.5575
 2055TIP3   OH227655   3.851   0.441  16.284  0.4280  0.1744 -0.3680
 2055TIP3    H127656   3.921   0.506  16.292  0.7222 -0.2681  0.7128
 2055TIP3    H227657   3.811   0.461  16.199  0.1791  2.0898  0.1545
 2056TIP3   OH227658   3.194   1.248   0.634 -0.1748  0.1646  0.3916
 2056TIP3    H127659   3.148   1.329   0.654  1.2461  1.0200  0.3244
 2056TIP3    H227660   3.227   1.217   0.718  0.2750  0.2947  0.2689
 2057TIP3   OH227661   5.182   3.219  14.274  0.3514  0.2555  0.3823
 2057TIP3    H127662   5.194   3.149  14.209 -2.2801 -0.5533  0.6372
 2057TIP3    H227663   5.203   3.178  14.358  0.0946  0.1579  0.4001
 2058TIP3   OH227664   0.145   3.478   1.054 -0.5141 -0.3588 -0.0906
 2058TIP3    H127665   0.233   3.483   1.093  0.0959 -1.7201 -1.2030
 2058TIP3    H227666   0.087   3.514   1.121  0.9813  1.4307  0.3104
 2059TIP3   OH227667   1.644   2.114   4.138 -0.7291  0.3149  0.2326
 2059TIP3    H127668   1.552   2.122   4.165 -0.3722 -1.2106  2.0838
 2059TIP3    H227669   1.640   2.074   4.051 -1.8381 -1.7749  1.1731
 2060TIP3   OH227670   3.889   2.960  16.925  0.0546 -0.2125 -0.2574
 2060TIP3    H127671   3.799   2.990  16.910  0.0161  0.1072  0.5254
 2060TIP3    H227672   3.928   3.029  16.979  0.4739 -0.7997  0.2057
 2061TIP3   OH227673   2.762   1.833  13.542  0.0936  0.3985  0.1848
 2061TIP3    H127674   2.807   1.903  13.591  0.0928 -0.0770  0.8772
 2061TIP3    H227675   2.704   1.880  13.482  0.9422  1.0094 -0.1821
 2062TIP3   OH227676   3.808   3.381  14.960 -0.6453 -0.5330  1.2595
 2062TIP3    H127677   3.722   3.338  14.956 -0.0964 -1.6876  1.5917
 2062TIP3    H227678   3.852   3.340  15.034  0.3865 -0.2732  0.8066
 2063TIP3   OH227679   3.336   2.765  16.685 -0.7441  0.1481 -0.3455
 2063TIP3    H127680   3.408   2.723  16.732 -2.3677 -1.6736  0.6706
 2063TIP3    H227681   3.337   2.856  16.716  1.2134  0.2629 -0.5630
 2064TIP3   OH227682   6.555   5.326   1.599  0.5680  0.1298  0.1313
 2064TIP3    H127683   6.559   5.330   1.694 -0.7897 -3.0041  0.4342
 2064TIP3    H227684   6.491   5.394   1.575  0.3622  0.4403  1.5047
 2065TIP3   OH227685   4.986   1.707  15.935 -0.4939 -0.0854 -0.5829
 2065TIP3    H127686   5.016   1.617  15.926  1.0478  0.3722 -0.3845
 2065TIP3    H227687   4.891   1.701  15.938 -0.3800 -1.8320  0.9102
 2066TIP3   OH227688   5.131   6.148   1.803 -0.0501 -0.5995 -0.1082
 2066TIP3    H127689   5.150   6.065   1.758  0.6466 -0.1485 -0.6556
 2066TIP3    H227690   5.087   6.202   1.738  3.8780  1.3203 -1.4870
 2067TIP3   OH227691   2.166   4.797  17.219  0.1539  0.1105 -0.4738
 2067TIP3    H127692   2.157   4.850  17.299  2.7566 -1.1992  0.8185
 2067TIP3    H227693   2.228   4.846  17.165 -0.7130  0.4194 -1.2147
 2068TIP3   OH227694   0.683   3.092  12.129 -0.3180  0.3714 -0.2987
 2068TIP3    H127695   0.739   3.167  12.149 -2.2429  1.5684  0.9960
 2068TIP3    H227696   0.743   3.018  12.126  1.4700  1.7354 -0.1530
 2069TIP3   OH227697   4.791   4.199  11.055  0.2071  0.0766 -0.1013
 2069TIP3    H127698   4.766   4.107  11.043 -0.3971  0.2213  0.0053
 2069TIP3    H227699   4.738   4.228  11.130  2.3716 -0.2452  1.6580
 2070TIP3   OH227700   5.363   4.613   5.799  0.2326  0.0492 -0.0762
 2070TIP3    H127701   5.330   4.578   5.881  1.3090  0.1665  0.4292
 2070TIP3    H227702   5.457   4.625   5.814  0.5600 -0.4779 -1.5130
 2071TIP3   OH227703   0.777   5.643   0.279 -0.4916  0.1251  0.5826
 2071TIP3    H127704   0.774   5.719   0.336 -1.0650  0.7027 -0.1840
 2071TIP3    H227705   0.695   5.648   0.230 -0.2190 -0.6055  0.0439
 2072TIP3   OH227706   5.567   3.650   5.558 -0.4720  0.4144  0.2877
 2072TIP3    H127707   5.566   3.727   5.615 -1.8405  0.2047  0.5822
 2072TIP3    H227708   5.503   3.590   5.597 -0.4966 -0.2676 -0.7457
 2073TIP3   OH227709   3.337   2.405   5.848  0.2555  0.3200 -0.0743
 2073TIP3    H127710   3.315   2.362   5.931 -0.0641 -2.1630 -1.3317
 2073TIP3    H227711   3.424   2.371   5.825 -0.3297 -0.3235 -1.4870
 2074TIP3   OH227712   6.422   3.069  13.809  0.1012  0.2484  0.3670
 2074TIP3    H127713   6.515   3.063  13.831  0.1736  0.6104  0.1702
 2074TIP3    H227714   6.421   3.107  13.721 -0.2575  1.0158  0.6951
 2075TIP3   OH227715   3.667   3.541  11.905 -0.1627  0.1899  1.0035
 2075TIP3    H127716   3.633   3.598  11.835 -0.2185 -1.9123 -0.8012
 2075TIP3    H227717   3.757   3.570  11.918 -0.2755  0.8865  0.3382
 2076TIP3   OH227718   6.487   6.528  15.085  0.1637  0.3575 -0.3097
 2076TIP3    H127719   6.434   6.461  15.127  1.2028  0.3926  1.1420
 2076TIP3    H227720   6.425   6.595  15.057 -0.6380 -0.0040  0.5680
 2077TIP3   OH227721   1.250   2.439   5.873  0.8424 -0.0379 -0.3198
 2077TIP3    H127722   1.284   2.492   5.946 -0.5838 -0.0782  0.4053
 2077TIP3    H227723   1.159   2.422   5.897  1.1285 -2.4643 -0.7412
 2078TIP3   OH227724   6.488   1.301  11.680  0.0012  0.0690 -0.6794
 2078TIP3    H127725   6.456   1.349  11.756 -0.8161  0.3698 -1.2009
 2078TIP3    H227726   6.431   1.329  11.608 -0.2037 -1.3247 -1.0878
 2079TIP3   OH227727   4.782   5.303   0.143  0.2196 -0.1412 -0.5768
 2079TIP3    H127728   4.854   5.299   0.205  0.4674  0.5534 -0.8159
 2079TIP3    H227729   4.822   5.332   0.061 -0.2323 -0.3224 -0.8659
 2080TIP3   OH227730   5.305   3.375   4.535  0.8434  0.3564 -0.2829
 2080TIP3    H127731   5.249   3.452   4.525  0.0758 -0.3713 -1.8851
 2080TIP3    H227732   5.366   3.399   4.605 -2.0233  0.8174  2.2558
 2081TIP3   OH227733   0.933   4.366  11.937 -0.7160 -0.0782 -0.0860
 2081TIP3    H127734   0.885   4.293  11.976  0.3726  0.0492  1.6113
 2081TIP3    H227735   0.945   4.341  11.845  1.2670 -2.9853  0.8278
 2082TIP3   OH227736   6.384   6.632   1.674  0.1912  0.3795 -0.0417
 2082TIP3    H127737   6.442   6.564   1.707 -2.1565 -1.5742  0.3411
 2082TIP3    H227738   6.389   6.625   1.579 -0.2636 -0.5832 -0.0052
 2083TIP3   OH227739   1.486   2.122  11.065 -0.3230  0.4265 -0.1692
 2083TIP3    H127740   1.410   2.124  11.123 -1.0291 -1.7046 -0.9409
 2083TIP3    H227741   1.454   2.078  10.986  1.5051  0.2216 -0.8305
 2084TIP3   OH227742   0.321   5.564  12.372  0.0207  0.0148 -0.0205
 2084TIP3    H127743   0.241   5.611  12.351 -0.0339  0.8914  1.8679
 2084TIP3    H227744   0.302   5.473  12.350 -2.4745 -0.2637  2.5440
 2085TIP3   OH227745   0.720   2.240  14.839 -0.4344  0.2660 -0.0088
 2085TIP3    H127746   0.666   2.299  14.893 -0.3302  0.6992 -0.3695
 2085TIP3    H227747   0.658   2.184  14.793 -0.4982 -1.2707  1.8219
 2086TIP3   OH227748   3.168   0.884   0.817 -0.8429  0.3195 -0.1135
 2086TIP3    H127749   3.143   0.976   0.810 -1.0310  0.4316  1.5601
 2086TIP3    H227750   3.240   0.874   0.754  0.2491  2.0235  0.7824
 2087TIP3   OH227751   4.881   3.477   4.141  0.2923 -0.4130  0.1176
 2087TIP3    H127752   4.967   3.463   4.101  0.9818  2.2678  0.4405
 2087TIP3    H227753   4.821   3.485   4.067  0.7389 -0.0605 -0.2136
 2088TIP3   OH227754   2.495   6.532  16.267 -0.4756  0.0106  0.2093
 2088TIP3    H127755   2.482   6.455  16.212  0.9253  0.4598 -0.7975
 2088TIP3    H227756   2.441   6.600  16.227 -0.2410  0.0592 -0.0302
 2089TIP3   OH227757   0.614   2.798  16.305 -0.5150 -0.2328 -0.0149
 2089TIP3    H127758   0.703   2.780  16.276 -0.4178  1.2275 -0.7027
 2089TIP3    H227759   0.558   2.771  16.232 -0.4113  1.4961 -0.7813
 2090TIP3   OH227760   0.851   2.517   3.707 -0.0001  0.0985 -0.0118
 2090TIP3    H127761   0.892   2.431   3.722  0.2771  0.3657  0.8701
 2090TIP3    H227762   0.918   2.580   3.733 -0.0333  0.6020 -1.1025
 2091TIP3   OH227763   0.195   2.080   5.425 -0.2181  0.7468 -0.5046
 2091TIP3    H127764   0.221   2.115   5.340  0.4274 -0.8663 -1.0108
 2091TIP3    H227765   0.140   2.148   5.463  1.2652  2.4407 -1.2529
 2092TIP3   OH227766   2.925   4.170   3.568  0.5098  0.1713 -0.1791
 2092TIP3    H127767   2.891   4.128   3.489  0.3128  1.2679 -0.6959
 2092TIP3    H227768   2.947   4.259   3.540 -0.7105  0.9672  1.2749
 2093TIP3   OH227769   3.810   3.778   5.586 -0.5549 -0.0300 -0.0082
 2093TIP3    H127770   3.902   3.768   5.565 -0.7045 -2.0291  0.0340
 2093TIP3    H227771   3.806   3.854   5.644  0.7455  1.3765 -1.6674
 2094TIP3   OH227772   5.552   6.666   1.844  0.2538  0.3016  0.2855
 2094TIP3    H127773   5.527   6.747   1.888  0.1144  0.5432 -0.2359
 2094TIP3    H227774   5.480   6.605   1.861  0.6598  0.0617  1.2417
 2095TIP3   OH227775   0.431   6.781  16.321  0.3311 -0.2219 -0.2349
 2095TIP3    H127776   0.472   6.704  16.360  0.7673  0.1290  0.0111
 2095TIP3    H227777   0.451   6.773  16.227 -0.7843 -1.1038 -0.4129
 2096TIP3   OH227778   5.208   4.921  16.276  0.3956  0.0090 -0.3552
 2096TIP3    H127779   5.289   4.950  16.233  1.0918  0.1377  0.9827
 2096TIP3    H227780   5.214   4.825  16.276  0.1388 -0.0135 -0.9859
 2097TIP3   OH227781   2.852   1.631  12.346 -0.0105 -0.0511 -0.0103
 2097TIP3    H127782   2.819   1.558  12.399 -0.3768 -0.9673 -1.4531
 2097TIP3    H227783   2.824   1.611  12.257  0.3395  1.6066 -0.5252
 2098TIP3   OH227784   0.861   3.745  11.141  0.5556  0.2025  0.0735
 2098TIP3    H127785   0.945   3.699  11.135  0.4642  0.1617 -1.1801
 2098TIP3    H227786   0.823   3.737  11.053  0.8917  3.3768 -0.4715
 2099TIP3   OH227787   0.987   5.661  17.138  0.3853  0.4842  0.1409
 2099TIP3    H127788   0.928   5.736  17.132 -0.0333  0.2525  1.1553
 2099TIP3    H227789   0.989   5.625  17.049 -0.4925  0.8832 -0.0566
 2100TIP3   OH227790   2.157   3.369   0.491 -0.1551 -0.2295 -0.1024
 2100TIP3    H127791   2.214   3.364   0.568  0.5831 -1.1918 -0.6905
 2100TIP3    H227792   2.186   3.448   0.445  0.6879 -0.6900 -0.3765
 2101TIP3   OH227793   4.975   6.470   5.078 -0.3132 -0.2954  0.2807
 2101TIP3    H127794   5.008   6.394   5.031 -0.0273 -0.3862  0.6254
 2101TIP3    H227795   4.921   6.433   5.147  0.2231 -0.2049  0.7533
 2102TIP3   OH227796   5.740   0.668   4.032  0.0643 -0.1532  0.3934
 2102TIP3    H127797   5.833   0.666   4.053 -0.5161 -1.9618  3.3659
 2102TIP3    H227798   5.706   0.742   4.082 -0.4823 -1.1936  1.6201
 2103TIP3   OH227799   3.803   0.960  15.135  0.6839 -0.4796 -0.0043
 2103TIP3    H127800   3.717   0.975  15.095  0.1303  0.5225  1.4758
 2103TIP3    H227801   3.808   0.865  15.145 -0.9556 -0.4833  1.2988
 2104TIP3   OH227802   1.962   4.999  15.451 -0.5270  0.2658 -0.1142
 2104TIP3    H127803   2.000   5.046  15.376 -1.1673 -1.3733 -1.5472
 2104TIP3    H227804   1.991   5.049  15.527  0.0567  2.0912 -1.4398
 2105TIP3   OH227805   3.374   1.409   5.813 -0.1744  0.2504  0.1996
 2105TIP3    H127806   3.366   1.483   5.874 -0.0308  0.8043 -0.4406
 2105TIP3    H227807   3.319   1.433   5.739 -1.8072 -1.2489  0.8754
 2106TIP3   OH227808   3.154   3.731   2.309 -0.3423 -0.2603 -0.2488
 2106TIP3    H127809   3.150   3.745   2.403 -0.0843  0.4907 -0.3397
 2106TIP3    H227810   3.178   3.639   2.299 -2.1899 -0.8394  0.3899
 2107TIP3   OH227811   2.229   0.515   3.963  0.2420  0.2340  0.1190
 2107TIP3    H127812   2.180   0.593   3.988 -2.0433 -0.7019 -1.1879
 2107TIP3    H227813   2.280   0.542   3.887 -1.3119  0.2610 -0.9605
 2108TIP3   OH227814   2.596   6.711   0.399  0.1299  0.0191  0.3965
 2108TIP3    H127815   2.577   6.618   0.400 -0.3314 -0.1546 -3.9700
 2108TIP3    H227816   2.521   6.751   0.354  1.7764  1.9552 -0.8551
 2109TIP3   OH227817   4.791   5.770   4.259  0.1768  0.6313 -0.1796
 2109TIP3    H127818   4.783   5.841   4.322 -0.7642 -0.6234  1.1940
 2109TIP3    H227819   4.715   5.714   4.276  1.4104 -1.2366 -0.4950
 2110TIP3   OH227820   2.672   6.014  14.843  0.6945 -0.1391 -0.1339
 2110TIP3    H127821   2.690   5.921  14.856  0.1915 -0.0228  1.7794
 2110TIP3    H227822   2.590   6.029  14.891 -1.4198  0.5359 -3.6092
 2111TIP3   OH227823   6.472   2.653   4.907 -0.3915  0.1443 -0.1671
 2111TIP3    H127824   6.541   2.689   4.963 -1.4339  1.9590  0.0142
 2111TIP3    H227825   6.428   2.730   4.870 -1.6680 -0.9789 -1.0851
 2112TIP3   OH227826   1.035   5.160  11.960  0.0129 -0.6702  0.0424
 2112TIP3    H127827   1.131   5.156  11.956  0.3543  3.6054 -1.1869
 2112TIP3    H227828   1.017   5.182  12.052  0.5129  0.8794 -0.1843
 2113TIP3   OH227829   0.627   1.780  14.762  0.1892  0.0080  0.4373
 2113TIP3    H127830   0.684   1.709  14.732 -2.0982 -1.6048 -0.4273
 2113TIP3    H227831   0.563   1.737  14.819 -0.8143  1.5166  0.5228
 2114TIP3   OH227832   0.677   2.754   4.102  0.2092 -0.2767  0.5910
 2114TIP3    H127833   0.659   2.719   4.015  2.1192 -1.3494  0.5639
 2114TIP3    H227834   0.705   2.845   4.086  0.2090 -0.3566  0.1150
 2115TIP3   OH227835   6.454   4.995   0.827 -0.0175  0.2684 -0.2427
 2115TIP3    H127836   6.398   5.072   0.832 -1.0124 -0.3623 -1.3842
 2115TIP3    H227837   6.458   4.973   0.734 -0.5468 -1.6178  0.1475
 2116TIP3   OH227838   0.157   3.725  12.053 -0.3258 -0.1572  0.1683
 2116TIP3    H127839   0.242   3.724  12.099 -1.0078  0.8841  1.5273
 2116TIP3    H227840   0.171   3.668  11.977  1.5474 -0.1341  0.4273
 2117TIP3   OH227841   2.010   1.577  15.343  1.1706 -0.5946 -0.1247
 2117TIP3    H127842   2.056   1.501  15.378 -2.0266 -1.4870  2.6813
 2117TIP3    H227843   2.044   1.651  15.393  0.2157 -1.1323  1.3888
 2118TIP3   OH227844   2.146   1.904   3.167 -0.4111 -0.4116  0.2650
 2118TIP3    H127845   2.098   1.874   3.090  2.5665 -1.6212 -1.3035
 2118TIP3    H227846   2.180   1.991   3.142 -0.5329 -0.2262  0.7379
 2119TIP3   OH227847   3.234   1.512  14.890 -0.5673 -0.4820 -0.0041
 2119TIP3    H127848   3.309   1.551  14.935 -1.5321  0.0889  1.1791
 2119TIP3    H227849   3.260   1.507  14.798  0.5470  0.6097  0.2314
 2120TIP3   OH227850   5.404   5.009  16.525 -0.8424 -0.7084 -0.2863
 2120TIP3    H127851   5.418   5.103  16.521 -0.7780 -0.6124  1.4328
 2120TIP3    H227852   5.443   4.975  16.444 -1.8257  0.8155 -1.4660
 2121TIP3   OH227853   3.989   0.775  15.307 -0.6370 -0.3314  1.1217
 2121TIP3    H127854   3.919   0.757  15.244  0.0614 -1.1489  0.5470
 2121TIP3    H227855   4.067   0.736  15.267 -0.0758 -0.3890  2.2453
 2122TIP3   OH227856   3.041   0.012  16.661 -0.4496 -0.0006  0.6393
 2122TIP3    H127857   2.984   0.017  16.584  0.1527 -1.1104  0.1127
 2122TIP3    H227858   3.022  -0.073  16.700  0.2996 -0.0605  0.8926
 2123TIP3   OH227859   1.319   1.707  10.802  0.2859 -0.4383  0.2692
 2123TIP3    H127860   1.247   1.770  10.807  0.2095 -0.1484 -2.7736
 2123TIP3    H227861   1.277   1.625  10.779  0.7413 -0.8331  0.8111
 2124TIP3   OH227862   0.746   5.923   4.918 -0.3620 -0.2140 -0.1258
 2124TIP3    H127863   0.774   5.966   4.998  0.8196 -0.4679 -0.3815
 2124TIP3    H227864   0.750   5.829   4.938  0.0298 -0.2833 -0.4970
 2125TIP3   OH227865   3.371   0.621   6.170 -0.0071  0.7859  0.1371
 2125TIP3    H127866   3.346   0.707   6.204 -3.2759 -0.4162  1.1290
 2125TIP3    H227867   3.318   0.609   6.091  2.3944  0.6939 -1.5561
 2126TIP3   OH227868   6.692   6.174  17.048 -0.2585  0.2013  0.0830
 2126TIP3    H127869   6.695   6.190  17.143 -0.9633  0.0846  0.1283
 2126TIP3    H227870   6.780   6.143  17.027 -0.5291 -1.2880  0.9808
 2127TIP3   OH227871   1.129   0.576  12.067 -0.3938  0.7205  0.3507
 2127TIP3    H127872   1.036   0.594  12.080 -1.0945 -0.9219 -1.8772
 2127TIP3    H227873   1.138   0.562  11.973  2.2242  1.2473  0.4421
 2128TIP3   OH227874   5.647   6.386   2.034 -0.7409  0.0735  0.3332
 2128TIP3    H127875   5.671   6.440   2.110 -1.4028 -0.1223  0.6852
 2128TIP3    H227876   5.588   6.441   1.983  0.0544  0.3727 -0.2833
 2129TIP3   OH227877   3.897   6.604   3.196 -0.1060 -0.0502 -0.0894
 2129TIP3    H127878   3.965   6.537   3.200  0.8888  0.9205 -0.2446
 2129TIP3    H227879   3.817   6.559   3.220  0.4304 -1.4404 -0.8256
 2130TIP3   OH227880   2.840   4.574   5.739 -0.6111 -0.8225  0.0499
 2130TIP3    H127881   2.775   4.621   5.688 -1.3447  0.2441  1.8537
 2130TIP3    H227882   2.789   4.514   5.793 -0.1104 -0.1999  1.2568
 2131TIP3   OH227883   6.535   4.421   1.141  0.0932  0.3830 -0.6426
 2131TIP3    H127884   6.610   4.451   1.193  2.0264 -1.3665 -2.2777
 2131TIP3    H227885   6.555   4.330   1.121 -1.8513  0.2644 -2.2741
 2132TIP3   OH227886   6.390   5.876   5.365  0.3269 -0.2287 -0.5889
 2132TIP3    H127887   6.310   5.832   5.391  0.9928 -0.2779  1.5394
 2132TIP3    H227888   6.363   5.934   5.293 -1.4671 -0.6562 -0.3085
 2133TIP3   OH227889   5.785   5.353   3.006  0.3500 -0.4830 -0.3230
 2133TIP3    H127890   5.748   5.404   3.078  3.1520 -0.5546  1.2933
 2133TIP3    H227891   5.798   5.416   2.936 -2.2227 -0.3721 -0.8131
 2134TIP3   OH227892   0.172   2.445   5.618 -0.5411 -0.1714  0.3736
 2134TIP3    H127893   0.122   2.406   5.690 -0.4091  1.0883  1.1707
 2134TIP3    H227894   0.161   2.539   5.629  0.6007  0.0774 -0.4547
 2135TIP3   OH227895   2.691   1.158   1.317 -0.1200 -0.1934  0.3669
 2135TIP3    H127896   2.639   1.121   1.389  2.0809  0.0795  2.2329
 2135TIP3    H227897   2.771   1.188   1.359  0.1834  2.4573 -1.8142
 2136TIP3   OH227898   4.181   2.408  14.525  0.9486  0.0352  0.9024
 2136TIP3    H127899   4.125   2.355  14.582  1.2346  0.2475  1.3844
 2136TIP3    H227900   4.218   2.475  14.582  1.9852 -0.3153  0.6826
 2137TIP3   OH227901   0.047   0.902  12.006  0.0694  0.0927  0.2943
 2137TIP3    H127902  -0.002   0.868  12.081  0.4650 -0.9968  0.0755
 2137TIP3    H227903   0.138   0.901  12.034  0.3553 -1.4370 -0.5704
 2138TIP3   OH227904   1.485   3.062  15.731  0.6262 -0.3496 -0.7641
 2138TIP3    H127905   1.427   3.030  15.662 -1.0872 -1.0773  0.8984
 2138TIP3    H227906   1.460   3.011  15.808  2.7618  0.1041  0.3176
 2139TIP3   OH227907   2.401   3.855  13.923 -0.5258  0.6154  0.5564
 2139TIP3    H127908   2.310   3.841  13.951 -0.6615 -0.4158 -0.3171
 2139TIP3    H227909   2.453   3.802  13.984 -0.8609 -2.0631 -1.2902
 2140TIP3   OH227910   6.339   5.827   0.896 -0.1878  0.1690  0.4756
 2140TIP3    H127911   6.258   5.784   0.867  0.6833 -1.1640 -0.0680
 2140TIP3    H227912   6.387   5.844   0.815 -0.1254  1.4371  0.7552
 2141TIP3   OH227913   5.147   0.494   2.821  0.5609  0.2616 -0.4495
 2141TIP3    H127914   5.137   0.544   2.741  0.2600  1.9823  0.6198
 2141TIP3    H227915   5.237   0.461   2.819 -0.7051 -3.8655 -3.7120
 2142TIP3   OH227916   2.868   1.130  13.421  0.6524 -0.0326  0.5440
 2142TIP3    H127917   2.832   1.203  13.470 -0.1131 -0.8983  1.3027
 2142TIP3    H227918   2.963   1.144  13.424  0.4943  2.2612 -1.4666
 2143TIP3   OH227919   1.818   5.161  11.449  0.2268  0.4494 -0.3382
 2143TIP3    H127920   1.810   5.127  11.360  0.8104  1.4684 -0.7959
 2143TIP3    H227921   1.882   5.232  11.442 -0.2487  1.0042  0.7652
 2144TIP3   OH227922   2.879   5.921   4.155  0.2274  0.6540 -0.0839
 2144TIP3    H127923   2.830   5.955   4.230  1.0863 -0.7428  1.1581
 2144TIP3    H227924   2.812   5.890   4.095 -0.4718  1.7088  0.1172
 2145TIP3   OH227925   1.538   6.130  16.430  0.2785 -0.0119  0.1652
 2145TIP3    H127926   1.559   6.172  16.514  1.1013 -1.5479  0.7608
 2145TIP3    H227927   1.460   6.078  16.448  0.7864 -0.7903  0.1343
 2146TIP3   OH227928   1.469   0.815   2.765 -0.6565  0.2163  0.5471
 2146TIP3    H127929   1.498   0.857   2.684  0.6370  0.6630  1.2213
 2146TIP3    H227930   1.465   0.886   2.829 -1.0975 -0.2347  1.0348
 2147TIP3   OH227931   4.620   6.517  11.672  0.5364  0.1896  0.4136
 2147TIP3    H127932   4.576   6.507  11.587  1.8307  2.8455 -0.6808
 2147TIP3    H227933   4.714   6.516  11.650  1.0244 -1.7092  2.2229
 2148TIP3   OH227934   1.656   5.691  16.967 -0.5791  0.4084 -0.0429
 2148TIP3    H127935   1.726   5.706  16.904  0.9135  0.4336  1.5673
 2148TIP3    H227936   1.700   5.660  17.046 -2.4803 -0.6421  0.6823
 2149TIP3   OH227937   1.375   4.458  15.668  0.7269  0.1917  0.2936
 2149TIP3    H127938   1.333   4.505  15.740  1.1384  1.2540 -0.1384
 2149TIP3    H227939   1.303   4.430  15.612  0.5166  1.0049  0.1488
 2150TIP3   OH227940   2.627   6.492   0.697 -0.0635 -0.2549  0.5862
 2150TIP3    H127941   2.601   6.580   0.726 -0.2818  0.1577 -0.8112
 2150TIP3    H227942   2.582   6.433   0.758 -3.3636  0.4606 -0.9326
 2151TIP3   OH227943   0.144   4.038  16.350  0.1653 -0.4085  0.0088
 2151TIP3    H127944   0.176   3.988  16.275  0.4859  0.6610 -0.5870
 2151TIP3    H227945   0.064   3.993  16.376  0.9128 -1.7654  0.0800
 2152TIP3   OH227946   4.750   3.123  16.062 -0.4911  0.2582 -0.5914
 2152TIP3    H127947   4.840   3.117  16.031 -0.1094 -0.8985  0.6445
 2152TIP3    H227948   4.733   3.038  16.103 -1.8209  0.7922  0.0298
 2153TIP3   OH227949   0.377   1.192  12.700  0.2716  0.1794 -0.1083
 2153TIP3    H127950   0.325   1.133  12.754  0.4907  0.2777  0.2050
 2153TIP3    H227951   0.444   1.227  12.758 -0.7372  1.8928  0.1287
 2154TIP3   OH227952   6.034   5.009   2.139  0.4452 -0.1042 -0.7000
 2154TIP3    H127953   5.967   5.012   2.207 -0.3210 -0.2807 -1.4405
 2154TIP3    H227954   6.105   5.064   2.174  0.0524 -0.1556  0.2149
 2155TIP3   OH227955   5.773   2.750   5.282 -0.0338  0.1415  0.5957
 2155TIP3    H127956   5.681   2.727   5.299 -0.4079 -0.1723 -1.5740
 2155TIP3    H227957   5.823   2.680   5.323 -0.7757  0.0514  1.3799
 2156TIP3   OH227958   1.011   0.121  13.008 -0.3057 -0.2506 -0.5230
 2156TIP3    H127959   1.101   0.137  13.036  0.3491 -1.9995 -1.4529
 2156TIP3    H227960   0.976   0.060  13.073 -1.5069  1.8030  0.8808
 2157TIP3   OH227961   6.492   3.680  14.761  0.2336 -0.2959 -0.6227
 2157TIP3    H127962   6.584   3.655  14.761  0.1826 -0.4905 -0.4468
 2157TIP3    H227963   6.483   3.742  14.689  0.4317 -0.5368 -0.8524
 2158TIP3   OH227964   5.685   6.302  16.907 -0.1803 -0.3150  0.1678
 2158TIP3    H127965   5.633   6.299  16.827  1.4480  1.4235 -1.0562
 2158TIP3    H227966   5.727   6.216  16.911 -0.2009 -0.3924 -0.9360
 2159TIP3   OH227967   5.107   6.764   2.308  0.4347  0.3076 -0.1367
 2159TIP3    H127968   5.181   6.821   2.287  0.8448 -0.1620 -0.0066
 2159TIP3    H227969   5.053   6.815   2.367  0.7765  0.5786 -0.0541
 2160TIP3   OH227970   2.265   0.413   5.797  0.3161  0.0303 -0.1970
 2160TIP3    H127971   2.189   0.460   5.830  0.0677  0.0024 -0.7222
 2160TIP3    H227972   2.332   0.426   5.864 -0.0988  0.1844  0.1953
 2161TIP3   OH227973   0.106   5.660   2.204  0.6894 -0.2141 -0.2005
 2161TIP3    H127974   0.035   5.657   2.268  0.7437 -0.0860 -0.1364
 2161TIP3    H227975   0.175   5.712   2.245  0.1862  1.0378 -0.9062
 2162TIP3   OH227976   6.126   0.797   5.074 -0.5448  0.1632 -0.5637
 2162TIP3    H127977   6.098   0.722   5.127 -0.9941  1.1051  0.5751
 2162TIP3    H227978   6.056   0.808   5.010 -0.1847 -0.7435 -1.1459
 2163TIP3   OH227979   6.508   5.058   5.163  0.1715  0.4452  0.1638
 2163TIP3    H127980   6.548   5.056   5.076  1.1749 -0.5929  0.6224
 2163TIP3    H227981   6.580   5.085   5.221  0.4981 -2.2361  1.1127
 2164TIP3   OH227982   1.569   1.857   3.049 -0.1118 -0.5980 -0.1120
 2164TIP3    H127983   1.504   1.823   2.987 -1.4241  0.4944  0.6073
 2164TIP3    H227984   1.536   1.831   3.135 -0.0443  0.6829  0.3160
 2165TIP3   OH227985   4.278   0.462  11.665 -0.4066 -0.0843 -0.4438
 2165TIP3    H127986   4.250   0.551  11.644 -0.1621  0.1274  0.1075
 2165TIP3    H227987   4.289   0.462  11.760 -1.4741 -1.0225 -0.3085
 2166TIP3   OH227988   4.116   5.079   4.846 -0.2529  0.4174 -0.1488
 2166TIP3    H127989   4.029   5.092   4.808 -0.9129 -1.3136  0.6430
 2166TIP3    H227990   4.175   5.074   4.770 -1.1826 -0.5689 -0.8380
 2167TIP3   OH227991   1.171   0.002  12.226 -0.4388  0.4026  0.2568
 2167TIP3    H127992   1.250   0.052  12.245 -0.6319  0.2051  1.7135
 2167TIP3    H227993   1.179  -0.077  12.279 -1.3217  0.0882 -0.0547
 2168TIP3   OH227994   6.503   4.183   0.862 -0.6806  0.1152  0.3326
 2168TIP3    H127995   6.506   4.124   0.787 -0.6751 -0.2198  0.5939
 2168TIP3    H227996   6.455   4.134   0.929 -3.1108  1.4011 -0.3186
 2169TIP3   OH227997   1.466   4.013   1.151  0.1822 -0.1452 -0.2127
 2169TIP3    H127998   1.515   3.979   1.076 -0.0757 -1.5091  0.2070
 2169TIP3    H227999   1.496   3.960   1.225 -1.3122 -0.4454  0.2026
 2170TIP3   OH228000   3.732   1.100  15.420 -0.5614  0.1209 -0.2543
 2170TIP3    H128001   3.742   1.065  15.332 -1.0030  0.5446 -0.4790
 2170TIP3    H228002   3.658   1.051  15.457  0.0564 -0.5395  0.1360
 2171TIP3   OH228003   6.254   3.985  12.739 -0.7448  0.5667  0.5073
 2171TIP3    H128004   6.288   3.900  12.711  0.0913  0.6490  1.2128
 2171TIP3    H228005   6.284   3.994  12.829 -2.8121  0.5880  1.2528
 2172TIP3   OH228006   6.604   2.956   3.093  0.1243  0.0069 -0.2457
 2172TIP3    H128007   6.676   3.002   3.051 -0.3764  1.3995  0.3741
 2172TIP3    H228008   6.627   2.955   3.186 -0.3153 -0.1671 -0.1344
 2173TIP3   OH228009   5.535   0.663  14.565 -0.4152 -0.0167  0.1429
 2173TIP3    H128010   5.610   0.690  14.618  0.3933  0.1912 -1.0650
 2173TIP3    H228011   5.563   0.679  14.475 -0.7171 -2.8408 -0.5404
 2174TIP3   OH228012   4.870   2.376  16.685  0.9106 -0.1737  0.0098
 2174TIP3    H128013   4.873   2.366  16.780 -1.6228 -0.4229  0.1274
 2174TIP3    H228014   4.896   2.290  16.651 -3.6613 -2.1629  0.7143
 2175TIP3   OH228015   4.252   3.792  13.125  0.7892  0.0048  0.2531
 2175TIP3    H128016   4.219   3.836  13.046  0.7769 -2.5725 -1.2937
 2175TIP3    H228017   4.189   3.723  13.142 -0.9442  2.2951  4.5310
 2176TIP3   OH228018   5.900   2.254   2.769 -0.5058 -0.6456 -0.4726
 2176TIP3    H128019   5.897   2.292   2.856 -2.2761 -1.2635 -0.2268
 2176TIP3    H228020   5.961   2.180   2.776  0.1524 -0.0697 -0.0475
 2177TIP3   OH228021   5.925   1.226   3.339 -0.4538 -1.0262  0.1279
 2177TIP3    H128022   6.008   1.196   3.375  0.1271  1.5034  1.1757
 2177TIP3    H228023   5.940   1.319   3.318 -3.2013 -0.2285  1.1466
 2178TIP3   OH228024   0.158   6.434   1.761  0.3771 -0.1131 -0.3538
 2178TIP3    H128025   0.123   6.507   1.709 -0.9860 -0.5760 -0.1348
 2178TIP3    H228026   0.249   6.457   1.776 -0.1779  1.9238  0.3064
 2179TIP3   OH228027   3.430   1.707  15.048 -0.2369 -0.1809 -0.1739
 2179TIP3    H128028   3.460   1.737  14.962  1.0778 -1.3565 -0.1630
 2179TIP3    H228029   3.502   1.726  15.107 -0.8128 -0.1063  0.5233
 2180TIP3   OH228030   5.255   4.005   2.888 -0.5267  0.0955 -0.1304
 2180TIP3    H128031   5.294   4.083   2.850  0.3946 -0.3369 -0.0958
 2180TIP3    H228032   5.207   3.964   2.816  0.2863 -0.1279 -0.5532
 2181TIP3   OH228033   2.734   2.851   4.809  0.1783 -0.3193 -0.3140
 2181TIP3    H128034   2.654   2.811   4.843  0.1840 -1.1736 -1.2800
 2181TIP3    H228035   2.705   2.905   4.736  0.4941 -0.6829 -0.7067
 2182TIP3   OH228036   1.239   2.559  10.457  0.0122 -0.3925 -0.3721
 2182TIP3    H128037   1.150   2.591  10.476  0.1599  0.4825 -1.1236
 2182TIP3    H228038   1.296   2.614  10.511  0.1069 -0.9763  0.1353
 2183TIP3   OH228039   6.676   1.804  12.674  0.0386 -0.0507 -0.7262
 2183TIP3    H128040   6.634   1.888  12.693 -0.7135 -0.3891 -0.8678
 2183TIP3    H228041   6.682   1.802  12.579  0.1790 -0.0992 -0.7159
 2184TIP3   OH228042   0.200   2.880   6.017  0.2292 -0.1688  0.0066
 2184TIP3    H128043   0.178   2.910   5.929 -0.4045 -0.4449  0.0682
 2184TIP3    H228044   0.268   2.814   6.004  2.5639  2.1008 -0.0617
 2185TIP3   OH228045   1.218   2.472  14.628 -0.2196 -0.3364  0.2533
 2185TIP3    H128046   1.268   2.391  14.642  2.0631  0.7525 -1.1415
 2185TIP3    H228047   1.126   2.445  14.639  0.2542 -3.6431 -2.3334
 2186TIP3   OH228048   2.375   6.055   4.904 -0.3928  0.3599  0.4660
 2186TIP3    H128049   2.286   6.019   4.896  0.5734 -1.7868 -3.3818
 2186TIP3    H228050   2.364   6.149   4.889 -1.9636 -0.0114 -1.0462
 2187TIP3   OH228051   4.337   1.683   4.126  0.4464 -0.1833  0.1641
 2187TIP3    H128052   4.363   1.775   4.116  1.1769 -0.4636 -0.6869
 2187TIP3    H228053   4.381   1.638   4.054 -1.1705 -0.9521 -0.3995
 2188TIP3   OH228054   0.021   1.797   1.011  0.5587 -0.1425 -0.1117
 2188TIP3    H128055   0.001   1.716   0.963 -1.1761 -0.6289  1.3143
 2188TIP3    H228056   0.053   1.767   1.096  0.2495  0.6648  0.2963
 2189TIP3   OH228057   1.435   4.410   3.616  0.4298 -0.3106 -0.1465
 2189TIP3    H128058   1.386   4.492   3.616 -0.6166 -0.8523  2.5369
 2189TIP3    H228059   1.430   4.379   3.525 -1.4183  1.2562 -0.6483
 2190TIP3   OH228060   6.122   4.950   0.336  0.4243 -0.5072 -0.3255
 2190TIP3    H128061   6.202   4.948   0.388 -0.2353 -0.0281  0.7457
 2190TIP3    H228062   6.117   5.039   0.302 -0.2165 -0.1915  0.5532
 2191TIP3   OH228063   5.097   3.495  12.622  0.2735 -0.3284  0.2431
 2191TIP3    H128064   5.012   3.539  12.623  1.1363  1.4619 -0.4098
 2191TIP3    H228065   5.150   3.547  12.561  1.7052 -1.6625  0.2939
 2192TIP3   OH228066   0.671   0.210  11.564  0.3936  0.0986 -0.2826
 2192TIP3    H128067   0.752   0.159  11.563  0.7775  0.7022 -0.6764
 2192TIP3    H228068   0.634   0.200  11.477  0.8347  1.0418 -0.5946
 2193TIP3   OH228069   5.981   5.716  14.339  0.4327 -0.0916  0.0134
 2193TIP3    H128070   5.917   5.786  14.343  0.6295  0.0682  0.4117
 2193TIP3    H228071   5.939   5.641  14.382 -0.0762 -0.4624 -1.1029
 2194TIP3   OH228072   4.349   3.233   4.047 -0.0748 -0.0817  0.6314
 2194TIP3    H128073   4.412   3.222   4.118 -0.1169 -1.5958  0.4689
 2194TIP3    H228074   4.297   3.153   4.049 -0.4830  0.1274 -0.7055
 2195TIP3   OH228075   3.512   4.127   3.587 -0.4062 -0.6395 -0.2459
 2195TIP3    H128076   3.587   4.077   3.555 -0.4030 -0.8523  0.0877
 2195TIP3    H228077   3.491   4.086   3.671  0.3400  0.6528  0.6086
 2196TIP3   OH228078   5.640   3.965   2.547 -0.3998 -0.5121  0.1973
 2196TIP3    H128079   5.568   3.949   2.486 -1.1743  0.0017  0.9392
 2196TIP3    H228080   5.719   3.939   2.500 -0.7722  1.5545 -1.7243
 2197TIP3   OH228081   3.615   3.435  14.605 -0.9238  0.3121  0.2205
 2197TIP3    H128082   3.601   3.478  14.690  0.4612 -0.6712  1.0097
 2197TIP3    H228083   3.638   3.345  14.629 -1.1126 -0.1368 -1.2460
 2198TIP3   OH228084   3.864   2.891  16.350  0.3242  0.2809 -0.3464
 2198TIP3    H128085   3.834   2.838  16.276 -1.0838  0.8387 -0.2159
 2198TIP3    H228086   3.807   2.865  16.422  1.9567 -0.5537  0.6758
 2199TIP3   OH228087   2.458   2.386   4.972 -0.4223  0.3041  0.0032
 2199TIP3    H128088   2.548   2.352   4.970 -0.4531 -0.2123  2.8687
 2199TIP3    H228089   2.431   2.388   4.880  2.6668  0.9528 -1.0079
 2200TIP3   OH228090   3.388   1.608   0.129  0.1601 -0.0495 -0.1295
 2200TIP3    H128091   3.382   1.651   0.043  2.3603 -0.3454 -0.4916
 2200TIP3    H228092   3.476   1.629   0.160  0.3422 -2.0956  0.8883
 2201TIP3   OH228093   4.415   6.698  12.749  0.2650 -0.5223  0.1105
 2201TIP3    H128094   4.508   6.680  12.757 -0.0505 -2.0777  0.6093
 2201TIP3    H228095   4.377   6.617  12.714 -0.6111  0.8464 -2.3537
 2202TIP3   OH228096   0.183   3.715   3.111  0.1471 -0.5955  0.0762
 2202TIP3    H128097   0.104   3.671   3.078 -1.1301  0.0831  2.0461
 2202TIP3    H228098   0.208   3.774   3.041 -0.3157 -1.7540 -1.1152
 2203TIP3   OH228099   1.917   0.845  13.299 -0.0186 -0.1229  0.0148
 2203TIP3    H128100   1.961   0.897  13.232  0.4134 -0.1908  0.2466
 2203TIP3    H228101   1.980   0.777  13.322  0.0511  0.2158  0.8778
 2204TIP3   OH228102   1.989   4.774  11.276 -0.0840  0.3203 -0.4821
 2204TIP3    H128103   1.927   4.801  11.344  1.0179  2.5354 -0.2751
 2204TIP3    H228104   1.974   4.835  11.204  0.8845 -0.0252 -0.9898
 2205TIP3   OH228105   2.852   6.234  14.148 -0.1448 -0.1132  0.3147
 2205TIP3    H128106   2.869   6.209  14.239  1.3643  1.0608  0.4107
 2205TIP3    H228107   2.825   6.326  14.154 -0.7767 -0.2526 -0.3666
 2206TIP3   OH228108   0.027   4.660  17.053  1.0810 -0.1535 -0.1313
 2206TIP3    H128109   0.037   4.571  17.019  0.5395  0.2367 -1.3329
 2206TIP3    H228110  -0.026   4.649  17.132  2.0573 -1.0219  0.4468
 2207TIP3   OH228111   0.967   6.122   6.066 -0.4903 -0.1428  0.2014
 2207TIP3    H128112   1.048   6.080   6.092 -0.2424 -0.5677 -1.1677
 2207TIP3    H228113   0.984   6.215   6.074 -0.2918 -0.2400  1.0753
 2208TIP3   OH228114   1.847   3.631   0.453 -0.5153 -0.8935  0.2327
 2208TIP3    H128115   1.765   3.679   0.439  0.4072  0.5156 -0.5429
 2208TIP3    H228116   1.819   3.548   0.492 -2.5264 -1.3951 -1.9686
 2209TIP3   OH228117   6.296   6.167  13.896 -0.2908 -0.3838 -0.1624
 2209TIP3    H128118   6.218   6.119  13.923  1.1347 -3.0330 -0.4811
 2209TIP3    H228119   6.369   6.113  13.926  1.4828  2.0137  0.1676
 2210TIP3   OH228120   1.792   1.503   5.055 -0.0276 -0.1173 -0.7791
 2210TIP3    H128121   1.713   1.468   5.014 -0.4200 -1.7796  1.1908
 2210TIP3    H228122   1.820   1.434   5.116 -0.3548  2.5858  2.7923
 2211TIP3   OH228123   0.373   1.638  16.811  0.9641 -0.1070 -0.6107
 2211TIP3    H128124   0.377   1.591  16.727  0.5127 -0.2646 -0.5431
 2211TIP3    H228125   0.340   1.574  16.873 -1.7038  0.8434 -0.9261
 2212TIP3   OH228126   1.015   6.796   2.037  0.1468  0.3121  0.2258
 2212TIP3    H128127   0.989   6.865   1.976  1.7198  0.8900  0.1786
 2212TIP3    H228128   1.016   6.838   2.123  0.1353  0.0801  0.3406
 2213TIP3   OH228129   5.908   0.080   0.776  0.2491 -0.1785  0.6026
 2213TIP3    H128130   6.001   0.089   0.794  0.1957  0.4752  0.5939
 2213TIP3    H228131   5.866   0.090   0.862  0.2020 -0.7423  0.6458
 2214TIP3   OH228132   5.659   1.332  13.140  0.6315  0.4517  0.9918
 2214TIP3    H128133   5.591   1.393  13.169  1.1291  0.8573  1.3188
 2214TIP3    H228134   5.685   1.363  13.054 -1.4164 -1.2208 -0.3253
 2215TIP3   OH228135   0.205   5.388  15.304 -0.1256 -0.3934 -0.5825
 2215TIP3    H128136   0.113   5.413  15.300 -0.2454 -0.9425 -1.7775
 2215TIP3    H228137   0.245   5.431  15.228  0.3867 -1.0060 -0.6680
 2216TIP3   OH228138   4.037   1.908  12.346  0.1992 -0.1913 -0.1409
 2216TIP3    H128139   4.061   1.961  12.422 -0.5729  1.1040 -0.7643
 2216TIP3    H228140   3.963   1.855  12.377  0.4135 -0.2670  0.2480
 2217TIP3   OH228141   3.633   0.513   2.647 -0.2736  0.7253 -0.4600
 2217TIP3    H128142   3.589   0.551   2.723 -0.2894  0.0127 -0.1056
 2217TIP3    H228143   3.687   0.584   2.613 -0.8486  1.2796 -0.2385
 2218TIP3   OH228144   2.455   3.175   3.630 -0.2510 -0.2444 -0.2386
 2218TIP3    H128145   2.446   3.095   3.682  1.8276 -0.3848 -0.0097
 2218TIP3    H228146   2.400   3.159   3.553  1.0596 -2.4621 -0.8179
 2219TIP3   OH228147   5.994   1.734  15.291  0.0780 -0.0629  0.1529
 2219TIP3    H128148   5.967   1.755  15.202  0.1270  1.7950  0.5376
 2219TIP3    H228149   5.929   1.671  15.322 -1.5473  1.3375 -0.2864
 2220TIP3   OH228150   3.799   1.662  11.096  0.2045 -0.1134 -0.4012
 2220TIP3    H128151   3.839   1.672  11.010  0.6552 -0.2440 -0.2090
 2220TIP3    H228152   3.740   1.737  11.104  0.7321  0.3252 -0.5191
 2221TIP3   OH228153   3.272   1.256   2.107  0.5908  0.1446  0.0548
 2221TIP3    H128154   3.259   1.201   2.030  2.5380 -1.6401  0.9056
 2221TIP3    H228155   3.341   1.316   2.083 -0.7544  1.5250 -0.4898
 2222TIP3   OH228156   0.575   1.814   1.740 -0.3901 -0.2543 -0.0867
 2222TIP3    H128157   0.603   1.794   1.829  1.4436 -0.5105 -0.6795
 2222TIP3    H228158   0.506   1.880   1.750 -0.5928 -0.6826  1.5221
 2223TIP3   OH228159   0.265   1.780  17.163 -0.6874 -0.3972 -0.4154
 2223TIP3    H128160   0.242   1.696  17.123 -2.1639  0.4225 -1.3690
 2223TIP3    H228161   0.231   1.773  17.253  1.1145 -1.5897  0.2319
 2224TIP3   OH228162   3.503   6.077  12.423  0.3079 -0.3591  0.5284
 2224TIP3    H128163   3.523   6.165  12.392 -0.1044  0.0428  1.3833
 2224TIP3    H228164   3.554   6.019  12.365  0.6640  0.4360  0.0332
 2225TIP3   OH228165   5.684   3.377   0.773  0.9581 -0.0706  0.1512
 2225TIP3    H128166   5.630   3.379   0.852  1.1266  0.0803  0.2633
 2225TIP3    H228167   5.654   3.452   0.721  1.4399  0.3490  0.4687
 2226TIP3   OH228168   0.534   3.990  16.037 -0.6033  0.2200  0.1605
 2226TIP3    H128169   0.488   4.073  16.032 -1.3830 -0.2191 -0.1961
 2226TIP3    H228170   0.563   3.984  16.128 -1.3554  0.4671  0.4272
 2227TIP3   OH228171   5.908   0.328  11.733  0.1722 -0.2552  0.4868
 2227TIP3    H128172   5.965   0.305  11.806 -0.7444  0.2169  1.3755
 2227TIP3    H228173   5.918   0.423  11.724 -1.8581  0.1749  1.9244
 2228TIP3   OH228174   3.429   2.311   2.742  0.4842 -0.3111 -0.6328
 2228TIP3    H128175   3.432   2.395   2.788  2.3084 -1.0167  0.6795
 2228TIP3    H228176   3.354   2.318   2.684  0.8129  2.3930 -0.8803
 2229TIP3   OH228177   1.895   5.164   6.136 -0.2153  0.0232 -0.2491
 2229TIP3    H128178   1.824   5.216   6.097 -2.0318 -2.0013  0.1828
 2229TIP3    H228179   1.873   5.159   6.228  1.1811  0.3220  0.1290
 2230TIP3   OH228180   3.848   4.391   0.428  0.0320 -0.0188  0.1405
 2230TIP3    H128181   3.791   4.334   0.376 -1.6341 -0.6768  2.5119
 2230TIP3    H228182   3.937   4.358   0.411 -0.6684 -1.6948 -0.5125
 2231TIP3   OH228183   2.864   0.792  13.792  0.5834 -0.2375 -0.6148
 2231TIP3    H128184   2.897   0.776  13.880 -1.8250  0.3493  0.4773
 2231TIP3    H228185   2.892   0.881  13.771 -0.2243  0.2574  0.2990
 2232TIP3   OH228186   2.196   3.420   3.139 -0.1361 -0.9227  0.6035
 2232TIP3    H128187   2.127   3.425   3.073 -2.3296  0.7697  2.8806
 2232TIP3    H228188   2.215   3.511   3.161  2.1827 -1.3799  0.7781
 2233TIP3   OH228189   4.676   4.143  16.555  0.6746  0.4547  0.2980
 2233TIP3    H128190   4.631   4.224  16.580 -0.0402  0.2506 -0.2653
 2233TIP3    H228191   4.622   4.107  16.484  0.8593 -0.6242  0.6840
 2234TIP3   OH228192   1.251   2.241  11.919 -0.0415  0.2071  0.3187
 2234TIP3    H128193   1.266   2.218  12.011  1.9213  1.6708  0.4311
 2234TIP3    H228194   1.326   2.204  11.872  1.0777  2.7533 -0.0628
 2235TIP3   OH228195   2.902   3.048   2.212  0.6722 -0.1680  0.0126
 2235TIP3    H128196   2.964   2.976   2.220 -0.2153 -0.8690  0.9204
 2235TIP3    H228197   2.824   3.009   2.172  0.7913  0.6943 -1.0982
 2236TIP3   OH228198   2.033   0.582  12.184  0.5349 -0.2089  0.3405
 2236TIP3    H128199   2.103   0.531  12.143  0.6259  1.1944 -1.3684
 2236TIP3    H228200   2.046   0.671  12.151 -0.4293  0.6548  2.1557
 2237TIP3   OH228201   1.140   4.776  11.540  0.1284  0.4901 -0.2442
 2237TIP3    H128202   1.088   4.840  11.588  0.2667  0.5538 -0.1801
 2237TIP3    H228203   1.176   4.718  11.608  0.8379  0.9539 -0.2132
 2238TIP3   OH228204   0.014   5.667  15.764  0.0146 -0.7880 -0.1062
 2238TIP3    H128205   0.004   5.692  15.672 -1.5941 -1.6168 -0.1878
 2238TIP3    H228206   0.042   5.576  15.761 -2.9529 -1.8293  0.1435
 2239TIP3   OH228207   6.079   6.279  12.797  0.0121 -0.1780 -0.3957
 2239TIP3    H128208   6.005   6.242  12.750 -0.4754 -0.1156  0.2982
 2239TIP3    H228209   6.068   6.374  12.788  0.5046 -0.1807 -1.0360
 2240TIP3   OH228210   2.327   5.691   2.594 -0.1541 -0.3759 -0.0175
 2240TIP3    H128211   2.242   5.707   2.554 -1.3795  0.7574  2.7251
 2240TIP3    H228212   2.389   5.743   2.543 -1.6508  1.2963 -0.2130
 2241TIP3   OH228213   4.532   2.671  16.282  0.2057  0.3708  0.3312
 2241TIP3    H128214   4.552   2.734  16.351 -1.0756  1.9645 -0.6833
 2241TIP3    H228215   4.550   2.718  16.201  1.2664 -1.3232 -0.4545
 2242TIP3   OH228216   1.007   3.667   0.281 -0.1933 -0.0392  0.1977
 2242TIP3    H128217   1.073   3.705   0.223 -1.0346 -0.0477 -0.7835
 2242TIP3    H228218   0.953   3.742   0.308 -2.1318 -0.5074 -2.0947
 2243TIP3   OH228219   3.993   0.363   2.178  0.2261  0.0221 -0.0711
 2243TIP3    H128220   3.951   0.278   2.191 -0.3320  0.2031 -0.6973
 2243TIP3    H228221   3.971   0.413   2.257 -3.2418  1.1455 -1.5822
 2244TIP3   OH228222   4.814   0.949  14.158 -0.0405  0.1389 -0.0644
 2244TIP3    H128223   4.819   0.861  14.196  0.7971  0.8798  1.6112
 2244TIP3    H228224   4.889   0.954  14.100  0.1742 -0.0935  0.1927
 2245TIP3   OH228225   2.435   1.821   3.102  0.1549  0.4344 -0.1920
 2245TIP3    H128226   2.419   1.890   3.038 -0.5628  1.3270  0.8951
 2245TIP3    H228227   2.399   1.856   3.184  1.0689 -0.6445  0.7086
 2246TIP3   OH228228   4.899   3.834   5.368  0.3645 -0.5791 -0.3756
 2246TIP3    H128229   4.853   3.918   5.374  0.4708 -0.5179 -0.4240
 2246TIP3    H228230   4.962   3.836   5.439  1.0152 -0.2220 -0.9464
 2247TIP3   OH228231   3.828   1.938   2.561  0.2312  0.8103 -0.3729
 2247TIP3    H128232   3.822   1.975   2.473  0.5379 -0.4471 -0.9455
 2247TIP3    H228233   3.895   1.991   2.605 -1.8324  3.2413  0.0788
 2248TIP3   OH228234   1.136   1.209   2.924  0.0066 -0.5118 -0.3036
 2248TIP3    H128235   1.135   1.304   2.911 -0.8338 -0.3786  0.5715
 2248TIP3    H228236   1.167   1.173   2.840  0.9449  0.5504 -0.4342
 2249TIP3   OH228237   4.911   4.233   1.414  0.4064 -0.2877 -0.0573
 2249TIP3    H128238   4.970   4.304   1.439  1.1101 -0.3542 -1.4594
 2249TIP3    H228239   4.842   4.275   1.363  1.0746 -0.6416 -1.2929
 2250TIP3   OH228240   0.498   3.844   3.178  0.2856 -0.5862  0.2031
 2250TIP3    H128241   0.481   3.885   3.263 -2.5828  0.2871 -0.6939
 2250TIP3    H228242   0.460   3.757   3.185  0.4106 -0.6639 -0.0680
 2251TIP3   OH228243   0.969   5.971   4.411  0.1941  0.5432 -0.5497
 2251TIP3    H128244   0.874   5.976   4.399  0.3853  2.1549 -1.8335
 2251TIP3    H228245   0.998   6.062   4.403  1.9436 -0.0313 -1.0796
 2252TIP3   OH228246   1.320   2.928   4.350  0.1858  0.4967  0.3277
 2252TIP3    H128247   1.322   2.844   4.395  2.1493 -0.9044 -2.1400
 2252TIP3    H228248   1.308   2.992   4.420  2.2804 -1.5665  2.7869
 2253TIP3   OH228249   0.073   0.195   6.768  0.5241  0.2416  0.3015
 2253TIP3    H128250  -0.014   0.163   6.792  0.6172  0.2385  0.6398
 2253TIP3    H228251   0.113   0.121   6.723 -1.2379  1.5802 -4.0081
 2254TIP3   OH228252   3.838   5.075  12.063  0.6004  0.2822  0.0847
 2254TIP3    H128253   3.916   5.118  12.028  0.3061 -0.2720 -1.3127
 2254TIP3    H228254   3.785   5.147  12.097  1.2790  0.7587  0.1704
 2255TIP3   OH228255   3.108   5.166  16.427  0.9160  0.0129 -0.2615
 2255TIP3    H128256   3.073   5.077  16.428  1.3303 -0.1605 -0.5878
 2255TIP3    H228257   3.031   5.223  16.421  0.6163 -0.2950  0.6329
 2256TIP3   OH228258   4.808   1.438  13.570  0.0610 -0.0305 -0.7413
 2256TIP3    H128259   4.824   1.357  13.619 -0.7857  0.3920  0.2663
 2256TIP3    H228260   4.795   1.409  13.479  0.4886 -0.9457 -0.5197
 2257TIP3   OH228261   5.390   6.121   0.401  0.1745  0.2253  0.3625
 2257TIP3    H128262   5.373   6.110   0.308  0.3305 -3.1378  0.6223
 2257TIP3    H228263   5.348   6.204   0.424  0.0572  1.0861 -2.6455
 2258TIP3   OH228264   5.460   4.726   0.985 -0.6339 -0.4644 -1.0561
 2258TIP3    H128265   5.417   4.681   1.057 -0.4398 -0.6700 -1.0685
 2258TIP3    H228266   5.535   4.670   0.962 -0.3223 -0.0830 -0.9918
 2259TIP3   OH228267   6.687   1.100   1.016 -0.1477  0.0217  0.0842
 2259TIP3    H128268   6.599   1.086   1.051 -0.2181 -0.5396 -0.2940
 2259TIP3    H228269   6.701   1.025   0.957  0.5300  0.1780  0.0414
 2260TIP3   OH228270   3.068   0.131   5.319  0.2635  0.1015  0.0235
 2260TIP3    H128271   3.084   0.188   5.244  0.2155  0.8543  0.5704
 2260TIP3    H228272   3.079   0.042   5.285 -1.6647  0.3248 -1.3587
 2261TIP3   OH228273   2.854   5.416  16.731 -0.3347  0.1421  0.1633
 2261TIP3    H128274   2.910   5.342  16.753 -0.4841  0.1219  0.4839
 2261TIP3    H228275   2.839   5.461  16.815 -0.0933  0.6392 -0.0524
 2262TIP3   OH228276   5.346   1.532   6.356  0.0833 -0.1847  0.3673
 2262TIP3    H128277   5.437   1.514   6.334 -0.8790 -1.9566 -2.8248
 2262TIP3    H228278   5.328   1.477   6.432  1.4700 -0.3040  0.6384
 2263TIP3   OH228279   2.934   0.320  16.698  0.2177 -0.1550  0.3521
 2263TIP3    H128280   2.862   0.314  16.635 -0.8887  2.0029  1.3256
 2263TIP3    H228281   2.906   0.267  16.772  1.2169 -2.1296 -0.6120
 2264TIP3   OH228282   2.849   5.031  12.734 -0.9538  0.1688 -0.2976
 2264TIP3    H128283   2.871   5.123  12.724  2.4060 -0.5636 -0.7138
 2264TIP3    H228284   2.796   5.027  12.814 -0.0636  2.3055  0.4514
 2265TIP3   OH228285   0.742   1.151   6.249 -0.1039  0.0353  0.0183
 2265TIP3    H128286   0.762   1.082   6.312 -0.6161  0.8866  1.1361
 2265TIP3    H228287   0.821   1.204   6.246 -0.1959  0.1826  0.1932
 2266TIP3   OH228288   1.546   1.009  13.870 -0.4362 -0.1020 -0.0666
 2266TIP3    H128289   1.522   0.918  13.884  1.9044 -0.6712  0.7065
 2266TIP3    H228290   1.549   1.047  13.958 -1.2830  0.7103 -0.3704
 2267TIP3   OH228291   5.937   5.589  10.907 -0.3133 -0.5099  0.4190
 2267TIP3    H128292   6.008   5.638  10.864  0.6297 -1.4275  0.8696
 2267TIP3    H228293   5.942   5.616  10.998 -0.9232 -0.1575  0.3505
 2268TIP3   OH228294   1.975   0.555   1.807  0.3743 -0.0251 -0.4062
 2268TIP3    H128295   2.018   0.509   1.879 -0.4881  0.1890  0.2558
 2268TIP3    H228296   2.019   0.522   1.729  0.7602 -0.8970  0.1558
 2269TIP3   OH228297   0.331   6.550  12.447 -0.1214 -0.3307  0.0602
 2269TIP3    H128298   0.395   6.479  12.433  1.0114  0.8026 -0.7204
 2269TIP3    H228299   0.342   6.607  12.371 -2.5428 -0.4062 -0.4248
 2270TIP3   OH228300   4.202   2.668   1.879 -0.4694 -0.3276  0.1388
 2270TIP3    H128301   4.188   2.576   1.856 -2.9731 -0.4650  1.8401
 2270TIP3    H228302   4.147   2.716   1.816  0.4560  0.0074 -0.4340
 2271TIP3   OH228303   3.832   4.663   5.858 -0.1057  0.1554  0.0199
 2271TIP3    H128304   3.920   4.627   5.843 -1.1115 -3.1538  1.1550
 2271TIP3    H228305   3.840   4.713   5.938  0.6221 -0.7415  0.5323
 2272TIP3   OH228306   2.787   6.378  11.179 -0.3804 -0.3368 -0.1644
 2272TIP3    H128307   2.850   6.419  11.119  1.4079 -2.6348 -0.0218
 2272TIP3    H228308   2.704   6.379  11.131  0.3065  0.5878 -1.4091
 2273TIP3   OH228309   4.630   3.095  16.955  0.0063  0.1157 -0.2967
 2273TIP3    H128310   4.612   3.001  16.966  0.4621 -0.4283 -3.2540
 2273TIP3    H228311   4.668   3.101  16.867 -0.6644  3.1723 -0.4734
 2274TIP3   OH228312   6.256   4.040   1.997 -0.2616  0.5417  0.5232
 2274TIP3    H128313   6.330   3.980   1.997 -2.0213 -1.7621  0.6409
 2274TIP3    H228314   6.201   4.010   1.924 -2.8512 -0.2186  2.6494
 2275TIP3   OH228315   6.726   0.502   5.298 -0.3994  0.4066 -0.0270
 2275TIP3    H128316   6.778   0.581   5.311  2.8711 -1.6811  0.9006
 2275TIP3    H228317   6.775   0.452   5.232 -2.5365 -0.7392 -0.8443
 2276TIP3   OH228318   5.140   1.238  14.302 -0.3591 -0.3843 -1.0847
 2276TIP3    H128319   5.083   1.201  14.369 -0.3536  1.3109 -0.1025
 2276TIP3    H228320   5.108   1.199  14.220 -0.2307 -2.6369 -0.1343
 2277TIP3   OH228321   5.320   3.808  11.844 -0.6753  0.8885  0.7849
 2277TIP3    H128322   5.390   3.745  11.861 -3.4204 -2.1427  1.8489
 2277TIP3    H228323   5.360   3.873  11.786  2.9912 -0.5495  1.4357
 2278TIP3   OH228324   5.758   0.992  14.892  0.2334 -0.6503  0.2145
 2278TIP3    H128325   5.829   1.026  14.839  0.6780 -0.3464  0.9994
 2278TIP3    H228326   5.801   0.951  14.967 -0.3446 -1.8273 -0.0744
 2279TIP3   OH228327   0.139   2.422  14.435 -0.6598  0.2906  0.1032
 2279TIP3    H128328   0.070   2.360  14.413  0.0229 -0.7450  0.8170
 2279TIP3    H228329   0.218   2.369  14.443 -0.0636  1.2464  0.7376
 2280TIP3   OH228330   6.242   1.923   1.088  0.3385 -0.0752  0.6282
 2280TIP3    H128331   6.333   1.908   1.061  0.2203 -0.6073  0.5121
 2280TIP3    H228332   6.192   1.857   1.039 -0.0212 -0.2780  1.2594
 2281TIP3   OH228333   5.300   3.255  14.905 -0.0776  0.3233 -0.0680
 2281TIP3    H128334   5.216   3.272  14.948  0.0058  0.2532  0.1242
 2281TIP3    H228335   5.277   3.208  14.825 -0.1605 -0.4498  0.3996
 2282TIP3   OH228336   0.301   1.117   5.428  0.6442  0.2788 -0.1068
 2282TIP3    H128337   0.284   1.025   5.408  1.9630 -0.1084  0.4685
 2282TIP3    H228338   0.227   1.164   5.388  1.2989 -0.7490 -2.7282
 2283TIP3   OH228339   3.360   2.423   3.561 -0.4686 -0.0392 -0.1500
 2283TIP3    H128340   3.324   2.353   3.615 -0.5848 -0.2835 -0.5355
 2283TIP3    H228341   3.400   2.484   3.623  0.9434 -1.1839  0.1369
 2284TIP3   OH228342   3.817   3.414  13.959  0.0369 -0.3369 -0.2850
 2284TIP3    H128343   3.768   3.346  13.911  1.1152 -1.1825 -0.2396
 2284TIP3    H228344   3.773   3.496  13.936 -1.3701 -1.0478 -0.2601
 2285TIP3   OH228345   0.825   4.638  14.004 -0.6540  0.4098 -0.2582
 2285TIP3    H128346   0.843   4.551  14.038 -0.7549  0.9073  1.1274
 2285TIP3    H228347   0.895   4.655  13.941  1.4548  0.7218  2.0524
 2286TIP3   OH228348   0.999   5.176  11.523  0.0889  0.0562  0.2538
 2286TIP3    H128349   0.971   5.124  11.598 -0.4351  1.3618  0.9923
 2286TIP3    H228350   0.936   5.155  11.454  1.1211 -1.8707 -0.1699
 2287TIP3   OH228351   2.141   1.149  16.408 -0.4161  0.0112 -0.0084
 2287TIP3    H128352   2.118   1.231  16.452  2.0699 -0.4601  2.5239
 2287TIP3    H228353   2.057   1.108  16.388 -1.7166  2.1378  0.6972
 2288TIP3   OH228354   0.334   1.452  15.664  0.1979 -0.4539  0.5254
 2288TIP3    H128355   0.297   1.369  15.694 -1.1784 -0.8186 -1.9740
 2288TIP3    H228356   0.305   1.460  15.573  2.9107  1.2788 -0.2813
 2289TIP3   OH228357   1.172   0.404  15.539  0.4334 -0.3432  0.0003
 2289TIP3    H128358   1.083   0.439  15.538  0.3004 -0.5384  1.7085
 2289TIP3    H228359   1.228   0.480  15.544  0.2977 -0.2538  0.1877
 2290TIP3   OH228360   0.513   6.716  13.082  0.0399 -0.4203  0.5700
 2290TIP3    H128361   0.607   6.712  13.067  0.1763  0.4743  1.0601
 2290TIP3    H228362   0.474   6.680  13.003  0.7645  0.9214 -0.4398
 2291TIP3   OH228363   3.741   4.581  13.216 -0.4394 -0.0658  0.5659
 2291TIP3    H128364   3.778   4.644  13.154  2.0396 -1.2296  0.7108
 2291TIP3    H228365   3.709   4.634  13.289  1.2415  1.0783  0.5306
 2292TIP3   OH228366   4.913   5.376  11.740  0.0234  0.0695 -0.4773
 2292TIP3    H128367   4.871   5.292  11.757  1.9057 -0.6218  1.1553
 2292TIP3    H228368   4.901   5.390  11.646 -0.1987 -2.0961 -0.8286
 2293TIP3   OH228369   1.471   5.659   0.749  0.1956 -0.2324  0.2374
 2293TIP3    H128370   1.439   5.689   0.835 -0.9082 -1.6033  0.3278
 2293TIP3    H228371   1.480   5.565   0.758  1.4074 -0.2326 -0.7507
 2294TIP3   OH228372   0.078   1.961   5.805 -0.1913  0.0389 -0.1010
 2294TIP3    H128373   0.101   1.910   5.728  1.4853 -0.8765  0.9202
 2294TIP3    H228374   0.091   1.900   5.878  0.4726  1.5030  1.0539
 2295TIP3   OH228375   2.730   5.036  13.782  0.1283  0.0554 -0.5618
 2295TIP3    H128376   2.659   4.978  13.756  1.6433 -2.0131 -0.3583
 2295TIP3    H228377   2.711   5.058  13.873 -0.3127 -0.4319 -0.5315
 2296TIP3   OH228378   2.969   4.401  11.186 -0.2064  0.5251 -0.1538
 2296TIP3    H128379   2.893   4.368  11.234  0.3196  1.2008  1.1853
 2296TIP3    H228380   2.986   4.334  11.119 -2.5052  0.7978 -1.0750
 2297TIP3   OH228381   1.583   3.521  16.977 -0.1143 -0.4816  0.1152
 2297TIP3    H128382   1.591   3.427  16.962  1.1716 -0.5146  0.8606
 2297TIP3    H228383   1.635   3.561  16.908  0.1064 -0.3616  0.3492
 2298TIP3   OH228384   3.730   1.661  11.440  0.1195  0.1208 -0.5413
 2298TIP3    H128385   3.683   1.680  11.359 -0.9928 -1.7952 -0.4084
 2298TIP3    H228386   3.713   1.737  11.497 -0.8437  0.5331 -1.3546
 2299TIP3   OH228387   4.067   0.557  13.909  0.0542  0.0176 -0.6832
 2299TIP3    H128388   3.980   0.533  13.877  0.2644 -1.5703 -0.1635
 2299TIP3    H228389   4.126   0.531  13.839  0.2353 -0.3513 -0.3968
 2300TIP3   OH228390   1.956   0.742   0.003  0.4023  0.3791  0.6397
 2300TIP3    H128391   1.930   0.740  -0.089 -1.5283  0.2018  1.1276
 2300TIP3    H228392   2.003   0.659   0.016 -0.1699 -0.0603  0.0176
 2301TIP3   OH228393   4.924   4.659  14.067 -0.1822 -0.4431  0.0777
 2301TIP3    H128394   4.847   4.696  14.111  0.7479 -0.5932  1.9347
 2301TIP3    H228395   4.994   4.722  14.083  0.5728 -1.2931  0.2362
 2302TIP3   OH228396   4.202   1.540  11.133 -0.0807 -0.0583  0.4799
 2302TIP3    H128397   4.127   1.584  11.174 -0.7559 -1.4022  0.7119
 2302TIP3    H228398   4.169   1.454  11.107  1.2051 -0.4210 -0.0299
 2303TIP3   OH228399   0.923   1.383   1.623  0.2914 -0.7435  0.1005
 2303TIP3    H128400   0.889   1.304   1.666  0.4927 -0.4686  0.7827
 2303TIP3    H228401   0.860   1.452   1.644 -0.3025 -0.8726 -1.1530
 2304TIP3   OH228402   6.265   3.705  12.681 -0.1701 -0.1327 -0.3991
 2304TIP3    H128403   6.357   3.689  12.703  0.4938 -0.2379 -2.9716
 2304TIP3    H228404   6.226   3.617  12.676 -0.1841 -0.1357 -0.2558
 2305TIP3   OH228405   1.759   6.134   0.352 -0.9640  0.3907  0.0492
 2305TIP3    H128406   1.719   6.168   0.272 -1.2921 -0.1209 -0.0033
 2305TIP3    H228407   1.775   6.042   0.334 -0.6841  0.3616  0.4374
 2306TIP3   OH228408   3.838   6.494  11.581 -0.1627  0.3889 -0.0354
 2306TIP3    H128409   3.810   6.431  11.647  3.6868 -1.0552  0.4523
 2306TIP3    H228410   3.852   6.575  11.629  1.5403 -0.3541  0.8032
 2307TIP3   OH228411   4.844   2.778   4.751 -0.1876  0.1370 -0.6646
 2307TIP3    H128412   4.758   2.783   4.709 -0.8290  0.0408  0.6168
 2307TIP3    H228413   4.885   2.862   4.729 -0.2643 -0.1288 -1.9517
 2308TIP3   OH228414   6.617   3.105  12.871 -0.1402 -0.5667 -0.3578
 2308TIP3    H128415   6.567   3.092  12.951 -1.5046 -1.5963 -1.3303
 2308TIP3    H228416   6.560   3.156  12.814  0.7056 -0.0747 -0.7951
 2309TIP3   OH228417   2.299   4.919   2.485  0.1038 -0.2260  0.2554
 2309TIP3    H128418   2.362   4.877   2.426 -0.0377 -0.9479  0.6095
 2309TIP3    H228419   2.269   4.848   2.543 -0.6842  0.2055  0.3908
 2310TIP3   OH228420   4.377   3.897   3.668  0.1036 -0.3715 -0.2168
 2310TIP3    H128421   4.455   3.929   3.712 -0.1533 -0.8598  0.6075
 2310TIP3    H228422   4.305   3.940   3.713 -0.1049  0.1805 -1.0594
 2311TIP3   OH228423   1.784   3.847  10.855 -0.0156  0.2481  0.3849
 2311TIP3    H128424   1.846   3.785  10.894 -0.5958  0.4974  1.7577
 2311TIP3    H228425   1.803   3.930  10.897 -2.1964  0.0393  1.9634
 2312TIP3   OH228426   5.079   1.987  15.002 -0.5584  0.4488  0.0124
 2312TIP3    H128427   5.029   1.922  14.954  0.0945  0.6515 -0.9648
 2312TIP3    H228428   5.165   1.988  14.960  0.6691 -0.6280  2.2715
 2313TIP3   OH228429   4.798   4.407  11.356  0.3561 -0.2245  0.1836
 2313TIP3    H128430   4.784   4.314  11.371 -1.0037  0.2200  1.9097
 2313TIP3    H228431   4.716   4.438  11.318  1.4060 -0.0066 -2.0748
 2314TIP3   OH228432   1.985   1.685  14.099 -0.1665  0.2182  0.0189
 2314TIP3    H128433   2.055   1.669  14.162 -2.7976  0.5205  3.2843
 2314TIP3    H228434   2.010   1.766  14.055  3.0162 -1.3521 -1.3820
 2315TIP3   OH228435   1.645   2.956  12.700 -0.4974  0.1985  0.6478
 2315TIP3    H128436   1.726   2.954  12.751 -0.5814 -1.1001  0.7579
 2315TIP3    H228437   1.674   2.955  12.609 -0.3181 -2.9051  0.6152
 2316TIP3   OH228438   5.014   6.265   5.492 -0.5342 -0.7601  0.4895
 2316TIP3    H128439   5.060   6.191   5.451  0.2668 -0.4889  0.8709
 2316TIP3    H228440   4.949   6.292   5.427 -0.8896 -1.8424  0.3718
 2317TIP3   OH228441   2.990   1.683   5.432 -0.1290  0.2219 -0.0409
 2317TIP3    H128442   3.084   1.662   5.436 -0.2670 -0.3078  0.6874
 2317TIP3    H228443   2.983   1.746   5.361  1.2658  2.8331  1.9315
 2318TIP3   OH228444   3.617   3.823   2.435 -0.0845  0.3999  0.3206
 2318TIP3    H128445   3.617   3.776   2.518 -1.2779 -0.4141 -0.1087
 2318TIP3    H228446   3.689   3.785   2.385  0.3618  0.5932  0.8043
 2319TIP3   OH228447   4.667   1.045   3.178 -0.2396  0.5868  0.3590
 2319TIP3    H128448   4.679   1.077   3.088 -1.0528  2.0611  0.7447
 2319TIP3    H228449   4.648   0.952   3.167 -0.2514  0.7173 -0.9927
 2320TIP3   OH228450   6.399   3.894   4.607  0.2424  0.2247 -0.5385
 2320TIP3    H128451   6.454   3.926   4.678  1.6642 -0.4615 -1.2873
 2320TIP3    H228452   6.442   3.814   4.576 -1.7885 -0.9969 -0.4419
 2321TIP3   OH228453   2.424   2.988  15.109  0.3329  0.0589  0.3265
 2321TIP3    H128454   2.402   2.934  15.185 -2.8040 -0.0322 -0.5326
 2321TIP3    H228455   2.359   3.058  15.110  1.0155  0.7788 -1.5930
 2322TIP3   OH228456   2.505   2.371  16.454 -0.7628  0.3656  0.3394
 2322TIP3    H128457   2.502   2.324  16.371 -1.6502  0.5206  0.2774
 2322TIP3    H228458   2.594   2.355  16.487 -0.5203  0.0104 -0.4594
 2323TIP3   OH228459   3.653   2.414   0.993  0.3786  0.2404 -0.3354
 2323TIP3    H128460   3.665   2.508   0.980 -0.3773  0.7440  2.1068
 2323TIP3    H228461   3.739   2.383   1.020  0.5038  0.3318 -0.6254
 2324TIP3   OH228462   0.943   1.123   1.976 -0.1779  0.0819 -0.2426
 2324TIP3    H128463   0.875   1.189   1.961 -0.8262 -0.1821  1.3087
 2324TIP3    H228464   0.976   1.102   1.889 -1.4581  0.8861 -0.9524
 2325TIP3   OH228465   3.101   4.711  13.755  0.0905 -0.3665  0.2516
 2325TIP3    H128466   3.141   4.680  13.674 -2.1350 -0.7064 -0.8004
 2325TIP3    H228467   3.101   4.806  13.747  1.8923 -0.2652  0.9361
 2326TIP3   OH228468   6.079   4.893  12.729 -0.0665  0.1572  0.1700
 2326TIP3    H128469   6.141   4.879  12.657  0.2575  0.1830  0.4403
 2326TIP3    H228470   6.086   4.986  12.749 -0.1216  0.1421  0.2612
 2327TIP3   OH228471   4.266   5.182   5.708  0.5121 -0.6860 -0.6640
 2327TIP3    H128472   4.217   5.105   5.681 -0.9851 -0.3065  0.7536
 2327TIP3    H228473   4.330   5.149   5.771  1.3335 -1.0427 -1.6794
 2328TIP3   OH228474   2.155   6.707   3.633 -0.4669 -0.3827 -0.4297
 2328TIP3    H128475   2.104   6.773   3.680 -0.4143 -1.0273  0.5626
 2328TIP3    H228476   2.218   6.675   3.697 -0.4957 -1.4008 -0.8849
 2329TIP3   OH228477   2.246   1.890   4.388  0.1214 -0.1254  0.6266
 2329TIP3    H128478   2.232   1.797   4.368 -0.7224  0.1236  0.0110
 2329TIP3    H228479   2.162   1.931   4.370  0.5148  0.7800  0.8185
 2330TIP3   OH228480   2.985   2.373  11.679 -1.1970 -0.3260  0.0580
 2330TIP3    H128481   3.000   2.302  11.742  0.3828  0.9006  1.1167
 2330TIP3    H228482   3.008   2.335  11.594  1.3078 -0.6468  0.8027
 2331TIP3   OH228483   5.575   5.739  15.840  0.0611 -0.4296 -0.4608
 2331TIP3    H128484   5.531   5.788  15.909 -0.1616 -1.8748  0.4769
 2331TIP3    H228485   5.512   5.734  15.769 -0.3051 -0.2485 -0.1502
 2332TIP3   OH228486   2.994   5.582  13.051 -0.3767  0.3564  0.6780
 2332TIP3    H128487   2.930   5.647  13.078 -2.1418 -1.0604  0.0614
 2332TIP3    H228488   2.982   5.509  13.111 -1.5500 -1.1692 -1.2739
 2333TIP3   OH228489   0.349   4.167  11.670  0.0103 -0.0893  0.0574
 2333TIP3    H128490   0.259   4.144  11.650 -0.9050  2.9295  0.2256
 2333TIP3    H228491   0.357   4.153  11.765 -0.4178  0.0330  0.1132
 2334TIP3   OH228492   5.385   4.871   4.033 -0.3968  0.0687  0.5026
 2334TIP3    H128493   5.394   4.777   4.019 -0.2273  0.3405 -1.5235
 2334TIP3    H228494   5.308   4.896   3.982 -0.0959  1.1214  0.5371
 2335TIP3   OH228495   3.376   0.493  16.694  0.2481 -0.5044  0.2338
 2335TIP3    H128496   3.324   0.552  16.748 -2.6901 -1.8819 -0.8639
 2335TIP3    H228497   3.370   0.408  16.737 -0.5472 -1.2122 -1.1921
 2336TIP3   OH228498   4.240   2.052  15.219  0.6109  0.3052 -0.6639
 2336TIP3    H128499   4.270   2.107  15.147  2.2039  0.7792  0.3206
 2336TIP3    H228500   4.219   2.113  15.289  0.1362 -0.2116 -0.3534
 2337TIP3   OH228501   1.314   3.761  12.377 -0.5261 -0.0865 -0.0253
 2337TIP3    H128502   1.400   3.770  12.337 -0.7055  0.8217 -0.2150
 2337TIP3    H228503   1.308   3.668  12.401 -0.1474 -0.5123 -1.4871
 2338TIP3   OH228504   3.007   1.510  15.037 -0.4851 -0.5596 -0.4020
 2338TIP3    H128505   3.066   1.509  14.962 -1.1262 -0.0825 -0.9223
 2338TIP3    H228506   3.040   1.441  15.094  3.1719  2.2752  1.3745
 2339TIP3   OH228507   6.428   3.532  14.070 -0.9263  0.1623  0.3927
 2339TIP3    H128508   6.340   3.561  14.094 -0.7075  0.8388  0.4039
 2339TIP3    H228509   6.424   3.519  13.976 -0.2374  3.3030 -0.2023
 2340TIP3   OH228510   5.659   0.724  15.901 -0.1890  0.1138  0.3469
 2340TIP3    H128511   5.591   0.673  15.858 -1.0462  1.3219  0.2123
 2340TIP3    H228512   5.647   0.705  15.995  0.7436 -1.3887  0.1871
 2341TIP3   OH228513   5.136   5.553   1.981 -0.0498 -0.4074 -0.8622
 2341TIP3    H128514   5.194   5.479   1.997 -0.1025  0.0660  1.9700
 2341TIP3    H228515   5.051   5.526   2.015 -0.8545 -0.0863 -2.5034
 2342TIP3   OH228516   3.633   0.441   5.026  0.0440  0.0491  0.3621
 2342TIP3    H128517   3.598   0.415   5.111 -0.3272  2.2576  0.9394
 2342TIP3    H228518   3.555   0.459   4.973  0.1546 -3.3981 -1.2966
 2343TIP3   OH228519   0.146   1.341   3.659  0.3440 -0.3237 -0.1249
 2343TIP3    H128520   0.061   1.298   3.655  0.1736  0.0853 -1.9362
 2343TIP3    H228521   0.205   1.279   3.615  1.2129 -1.0154  1.9098
 2344TIP3   OH228522   1.638   3.015   5.105 -0.0997 -0.3418  0.0780
 2344TIP3    H128523   1.588   2.941   5.070 -1.3599  0.1180  0.8112
 2344TIP3    H228524   1.722   2.978   5.131 -0.5088 -1.4019 -0.0556
 2345TIP3   OH228525   5.947   0.600   1.554 -0.5159 -0.0371 -0.2220
 2345TIP3    H128526   6.018   0.563   1.501 -0.7149 -0.9614  0.1395
 2345TIP3    H228527   5.991   0.665   1.610 -0.4089  1.4781 -1.9613
 2346TIP3   OH228528   6.327   6.736  15.310 -0.7912  0.8371 -0.0343
 2346TIP3    H128529   6.351   6.754  15.219  0.2156  0.2313  0.1012
 2346TIP3    H228530   6.234   6.761  15.316 -0.2825  3.0569 -0.6277
 2347TIP3   OH228531   2.537   1.351  16.499  0.0990  0.4077 -0.5056
 2347TIP3    H128532   2.558   1.412  16.570  2.2718  0.6877 -1.3126
 2347TIP3    H228533   2.521   1.408  16.423 -1.0534  0.0706 -0.5342
 2348TIP3   OH228534   0.130   4.468  12.197  0.0250 -0.3665  0.4233
 2348TIP3    H128535   0.145   4.464  12.103  1.5266  1.6016  0.5285
 2348TIP3    H228536   0.035   4.476  12.206 -0.3232 -2.4020 -0.7884
 2349TIP3   OH228537   1.917   3.298  12.702  0.1396  0.3880  0.3598
 2349TIP3    H128538   1.916   3.269  12.793  0.0005 -0.7157  0.0169
 2349TIP3    H228539   2.010   3.311  12.682  0.3840 -1.5165  0.0262
 2350TIP3   OH228540   6.375   4.526   5.106  0.0418 -0.1597  0.0546
 2350TIP3    H128541   6.361   4.476   5.187 -0.3960  1.7842  1.2426
 2350TIP3    H228542   6.460   4.567   5.118 -0.8615  1.6820  0.4314
 2351TIP3   OH228543   5.402   1.216   4.096  0.2133  0.3461 -0.1587
 2351TIP3    H128544   5.427   1.184   4.183 -0.3594 -1.2416 -0.5439
 2351TIP3    H228545   5.469   1.281   4.074 -0.8609  2.5143  2.3819
 2352TIP3   OH228546   1.821   6.761  17.228  0.2554 -0.1922  0.1171
 2352TIP3    H128547   1.891   6.765  17.162  0.4129 -0.4289  0.2657
 2352TIP3    H228548   1.864   6.724  17.305 -0.0986 -0.6035  0.1234
 2353TIP3   OH228549   1.106   1.509   1.780  0.0527  0.7527  0.2152
 2353TIP3    H128550   1.055   1.535   1.857  1.3048 -1.1178  1.7789
 2353TIP3    H228551   1.065   1.428   1.750 -0.0128  1.1110 -0.6974
 2354TIP3   OH228552   3.646   5.296   2.129  0.9425  0.0929  0.3436
 2354TIP3    H128553   3.671   5.252   2.047  1.1579  0.4071  0.2413
 2354TIP3    H228554   3.620   5.384   2.102  0.1664 -0.0841  0.5105
 2355TIP3   OH228555   3.976   1.765  16.857 -0.3942 -0.3636  0.6957
 2355TIP3    H128556   3.947   1.810  16.777 -1.1108  1.0607  1.7057
 2355TIP3    H228557   3.972   1.672  16.834 -0.0978  0.0109 -1.0791
 2356TIP3   OH228558   5.975   1.879   0.163 -0.0976 -0.0533  0.0771
 2356TIP3    H128559   5.943   1.849   0.078  0.0846  0.5044 -0.1928
 2356TIP3    H228560   5.914   1.841   0.226 -0.4717 -0.1406 -0.3300
 2357TIP3   OH228561   3.075   0.619   3.639  0.3403  0.0130 -0.1571
 2357TIP3    H128562   3.160   0.623   3.595  1.3024 -1.1600  1.4922
 2357TIP3    H228563   3.085   0.550   3.705 -0.2149  3.0727  3.4876
 2358TIP3   OH228564   6.651   2.824  15.600  0.2841 -0.0438 -0.5377
 2358TIP3    H128565   6.687   2.869  15.677  0.4031  0.4961 -0.9047
 2358TIP3    H228566   6.614   2.894  15.547  0.3065 -0.4043 -1.0309
 2359TIP3   OH228567   5.623   6.110  15.916 -0.2685 -0.0851  0.1497
 2359TIP3    H128568   5.535   6.146  15.904 -0.3486 -0.3833 -0.1570
 2359TIP3    H228569   5.670   6.134  15.837  0.1371  0.6604  0.5997
 2360TIP3   OH228570   4.590   5.507  10.461  0.3427 -0.4943 -0.4699
 2360TIP3    H128571   4.633   5.469  10.384  0.1043  1.8762 -1.8700
 2360TIP3    H228572   4.660   5.516  10.525  2.0115  2.6986 -2.4884
 2361TIP3   OH228573   5.680   3.428   0.410 -0.2582 -0.3926  0.0998
 2361TIP3    H128574   5.620   3.483   0.359  0.1073  1.7462  1.8489
 2361TIP3    H228575   5.635   3.344   0.417 -3.0690  1.0785  1.2292
 2362TIP3   OH228576   5.214   1.875  11.171  0.0970  0.0372 -0.8098
 2362TIP3    H128577   5.172   1.902  11.089  0.1023  0.5833 -0.6337
 2362TIP3    H228578   5.167   1.795  11.196 -1.0438  0.7843 -0.4789
 2363TIP3   OH228579   0.805   3.204   1.944  0.1425 -0.6018  0.5957
 2363TIP3    H128580   0.890   3.159   1.947 -0.0376 -0.9325  0.9469
 2363TIP3    H228581   0.826   3.295   1.963  0.4980 -0.5592  0.0155
 2364TIP3   OH228582   4.345   2.095  15.791  0.4275  0.3986 -0.2607
 2364TIP3    H128583   4.281   2.150  15.836 -0.4955 -0.0732 -0.9739
 2364TIP3    H228584   4.425   2.103  15.844  0.5731  3.0009 -0.7022
 2365TIP3   OH228585   1.842   0.123  15.275  0.3380 -0.0825  0.2485
 2365TIP3    H128586   1.746   0.124  15.276  0.3178  0.4931 -0.7652
 2365TIP3    H228587   1.866   0.196  15.218  1.3519 -0.7742 -0.2458
 2366TIP3   OH228588   1.079   0.425   5.678 -0.3506  0.0441  0.2192
 2366TIP3    H128589   0.989   0.417   5.710 -0.4769 -0.2871 -0.2190
 2366TIP3    H228590   1.134   0.405   5.755 -0.6511 -1.5788  0.0333
 2367TIP3   OH228591   5.775   5.889   3.571 -0.6813 -0.1684 -1.0359
 2367TIP3    H128592   5.683   5.895   3.596 -0.3806  0.6533 -0.0642
 2367TIP3    H228593   5.784   5.951   3.498 -1.1865 -1.2970 -2.0857
 2368TIP3   OH228594   4.557   2.585  13.043 -0.2111 -0.2801 -0.0594
 2368TIP3    H128595   4.535   2.677  13.033  0.0227 -0.4514 -3.5290
 2368TIP3    H228596   4.472   2.540  13.035 -0.0435 -0.4278 -1.2281
 2369TIP3   OH228597   3.236   1.293  12.386 -0.1121  0.3446 -0.6568
 2369TIP3    H128598   3.269   1.215  12.430  0.9269  0.7110 -0.7542
 2369TIP3    H228599   3.254   1.277  12.293  1.7081  1.3947 -0.5364
 2370TIP3   OH228600   0.497   0.292  16.547  0.3583  0.4575  0.1316
 2370TIP3    H128601   0.446   0.219  16.580  0.7484  0.2477  0.2725
 2370TIP3    H228602   0.569   0.251  16.498 -0.6424  0.7420 -1.6865
 2371TIP3   OH228603   5.981   2.686  12.535 -0.0067 -0.0415 -0.4469
 2371TIP3    H128604   5.895   2.722  12.515 -0.0764 -0.8986 -1.7676
 2371TIP3    H228605   5.980   2.673  12.630 -1.4936 -0.4587 -0.4976
 2372TIP3   OH228606   1.364   3.830  15.730 -0.3669 -0.5474  0.3793
 2372TIP3    H128607   1.417   3.798  15.658 -1.1711 -0.3420 -0.3239
 2372TIP3    H228608   1.360   3.925  15.717  0.2096 -0.3992  1.2060
 2373TIP3   OH228609   2.091   1.955  15.866  0.1553  0.3451  0.5938
 2373TIP3    H128610   2.008   1.989  15.900 -1.8151 -2.2755 -1.1784
 2373TIP3    H228611   2.102   1.999  15.782 -0.6053 -0.7167 -0.1068
 2374TIP3   OH228612   5.532   1.111   0.481  0.6307  0.0279 -0.1708
 2374TIP3    H128613   5.530   1.077   0.391 -2.4034 -1.0246  0.1664
 2374TIP3    H228614   5.540   1.033   0.536 -0.9026  0.2995  0.4943
 2375TIP3   OH228615   1.164   0.090   6.064 -0.4645 -0.6617 -0.2162
 2375TIP3    H128616   1.242   0.058   6.110 -0.3697 -0.0221  0.0835
 2375TIP3    H228617   1.174   0.059   5.974  1.0973  0.9771 -0.6626
 2376TIP3   OH228618   2.683   4.460   2.091 -0.1985 -0.0534  0.6532
 2376TIP3    H128619   2.627   4.427   2.161 -0.3725 -1.4634 -0.1116
 2376TIP3    H228620   2.767   4.477   2.133 -0.9248  1.2443  1.6345
 2377TIP3   OH228621   3.736   1.665   1.729  0.3722 -0.1254 -0.2163
 2377TIP3    H128622   3.776   1.599   1.785  0.9646  0.1335 -0.3305
 2377TIP3    H228623   3.777   1.748   1.756  0.8257 -0.0295 -1.1772
 2378TIP3   OH228624   0.919   2.932   4.084  0.2979 -0.1877 -0.0090
 2378TIP3    H128625   0.997   2.987   4.081  1.4792 -1.8233 -1.9670
 2378TIP3    H228626   0.849   2.987   4.047  0.5004  1.2367  1.6196
 2379TIP3   OH228627   0.210   2.885   3.728 -0.3417 -0.0798  0.0763
 2379TIP3    H128628   0.124   2.902   3.690 -0.4842  1.4599  0.9895
 2379TIP3    H228629   0.204   2.918   3.817  0.5903 -1.8117  0.8417
 2380TIP3   OH228630   0.420   5.917  15.578  0.3905 -0.1052  0.2620
 2380TIP3    H128631   0.413   5.840  15.521  1.8973  1.0747 -1.6492
 2380TIP3    H228632   0.358   5.901  15.648 -0.2460 -2.4817 -0.7560
 2381TIP3   OH228633   4.189   6.706   5.970 -0.1126 -0.6779  0.2878
 2381TIP3    H128634   4.102   6.708   6.011 -0.9455  0.9229 -1.3864
 2381TIP3    H228635   4.244   6.758   6.028 -0.4766 -0.9914  0.9302
 2382TIP3   OH228636   3.223   1.994   6.369  0.3625  0.4678 -0.1896
 2382TIP3    H128637   3.308   1.986   6.413  0.1780 -1.4069 -0.0611
 2382TIP3    H228638   3.216   2.086   6.344  1.4010  1.1514  1.8551
 2383TIP3   OH228639   4.419   1.112   4.389  0.2131  0.0273 -0.8435
 2383TIP3    H128640   4.346   1.125   4.328 -0.7169  0.7502  0.3625
 2383TIP3    H228641   4.407   1.181   4.454  0.3201 -1.5802  0.9472
 2384TIP3   OH228642   3.763   6.405  11.828 -0.3086  0.3735 -0.2247
 2384TIP3    H128643   3.671   6.399  11.801 -1.0905  0.6703  2.1940
 2384TIP3    H228644   3.767   6.356  11.910  2.3689 -2.1662 -1.6658
 2385TIP3   OH228645   5.633   3.404  11.887  0.1421 -0.1830  0.0689
 2385TIP3    H128646   5.586   3.334  11.842 -2.1800 -0.1213  2.1841
 2385TIP3    H228647   5.681   3.360  11.957 -0.1985  0.1787  0.5390
 2386TIP3   OH228648   5.768   2.825  12.479  0.3723 -0.4837 -0.2386
 2386TIP3    H128649   5.800   2.890  12.541 -0.0265 -0.3113 -0.2092
 2386TIP3    H228650   5.677   2.811  12.504  0.1943 -0.3827 -0.8117
 2387TIP3   OH228651   2.714   6.644   6.297 -0.1959 -0.7113 -0.5073
 2387TIP3    H128652   2.809   6.639   6.289 -0.0531 -0.2984  0.6383
 2387TIP3    H228653   2.700   6.714   6.362 -1.4086  1.7817 -3.2229
 2388TIP3   OH228654   4.748   0.773  16.598  0.2179 -0.4386  0.0361
 2388TIP3    H128655   4.778   0.729  16.519 -0.4929 -0.7154 -0.0869
 2388TIP3    H228656   4.763   0.710  16.668  2.2109  0.3459  0.3713
 2389TIP3   OH228657   3.324   6.556   6.776 -0.4804 -0.2061  0.5687
 2389TIP3    H128658   3.387   6.606   6.828  0.5868 -0.3102 -0.5704
 2389TIP3    H228659   3.377   6.494   6.727 -1.4449 -0.1161 -0.6392
 2390TIP3   OH228660   2.401   4.109  16.713  0.0248  0.0690  0.0906
 2390TIP3    H128661   2.348   4.103  16.792  0.4744 -0.9517  0.3298
 2390TIP3    H228662   2.377   4.032  16.661 -1.7195  1.7335 -1.7221
 2391TIP3   OH228663   3.386   3.412   0.496 -0.4674 -0.2082 -0.4121
 2391TIP3    H128664   3.454   3.468   0.459  0.0190 -0.5642 -0.0642
 2391TIP3    H228665   3.404   3.325   0.460  0.4810 -0.7342  1.2250
 2392TIP3   OH228666   0.031   5.913  14.100 -0.3662  0.3181  0.3490
 2392TIP3    H128667   0.014   5.890  14.008 -1.7528  4.0896 -0.5216
 2392TIP3    H228668  -0.030   5.859  14.150  0.0576 -1.4417 -0.9422
 2393TIP3   OH228669   3.811   3.459  17.231 -0.2429 -0.0483  0.5496
 2393TIP3    H128670   3.832   3.446  17.138 -0.2378  0.5991  0.4562
 2393TIP3    H228671   3.860   3.390  17.276  2.3517  1.5491  0.3604
 2394TIP3   OH228672   6.348   4.356  15.840  0.6745  0.2945  0.0462
 2394TIP3    H128673   6.396   4.275  15.859  0.1400  0.3007  1.4971
 2394TIP3    H228674   6.398   4.397  15.769  1.0208 -1.2374 -0.6431
 2395TIP3   OH228675   4.107   0.465   0.408  0.2396 -0.3636  0.5495
 2395TIP3    H128676   4.127   0.399   0.341 -3.3260 -1.6069  0.4870
 2395TIP3    H228677   4.012   0.477   0.402  0.5908  4.4269  1.0033
 2396TIP3   OH228678   5.289   5.144   2.246  0.2725  0.3797  0.3921
 2396TIP3    H128679   5.341   5.068   2.220 -0.5345 -0.2764  0.6747
 2396TIP3    H228680   5.266   5.128   2.338 -0.7763  0.4485  0.1573
 2397TIP3   OH228681   0.652   2.419   3.873 -0.5959  0.4197  0.4817
 2397TIP3    H128682   0.581   2.392   3.815 -0.6215  1.6873 -0.1071
 2397TIP3    H228683   0.704   2.479   3.821  0.9714 -0.5398  0.8887
 2398TIP3   OH228684   5.254   1.253   1.117  0.0610 -0.3287 -0.3456
 2398TIP3    H128685   5.224   1.344   1.117 -0.5129 -0.5193 -0.7782
 2398TIP3    H228686   5.203   1.210   1.049 -1.1497 -1.4598  1.2076
 2399TIP3   OH228687   0.471   4.404  14.252  0.0358 -0.3423 -0.5250
 2399TIP3    H128688   0.561   4.379  14.229  0.0670 -0.1251 -0.6494
 2399TIP3    H228689   0.444   4.462  14.180  0.4649  1.1086  0.4488
 2400TIP3   OH228690   6.185   2.810   1.095 -0.1057 -0.1396 -0.0984
 2400TIP3    H128691   6.190   2.780   1.004  1.2537  2.9033 -1.1680
 2400TIP3    H228692   6.092   2.826   1.110 -0.3303 -0.5527 -0.9904
 2401TIP3   OH228693   6.803   5.138   1.184 -0.4401  0.2595 -0.9962
 2401TIP3    H128694   6.897   5.130   1.166 -0.1126  0.3167  0.5988
 2401TIP3    H228695   6.766   5.057   1.149  0.3005 -0.0732 -1.0418
 2402TIP3   OH228696   0.925   1.918   5.445 -0.6415  0.2933 -0.0618
 2402TIP3    H128697   0.924   1.823   5.433 -1.0338  0.1431  1.0583
 2402TIP3    H228698   1.017   1.942   5.436 -0.6347 -0.0727 -1.1141
 2403TIP3   OH228699   0.818   2.592  14.502 -0.1235 -0.2648 -0.3690
 2403TIP3    H128700   0.829   2.497  14.504  0.7110 -0.1635  0.3033
 2403TIP3    H228701   0.733   2.607  14.545  0.6072 -0.6044  1.2864
 2404TIP3   OH228702   2.902   0.504   4.467  0.4471  0.4050  0.6132
 2404TIP3    H128703   2.890   0.599   4.466  0.8031  0.4450  0.1432
 2404TIP3    H228704   2.816   0.470   4.492 -0.2952  0.7597 -1.2673
 2405TIP3   OH228705   5.545   4.333  13.592 -0.0787  0.5711  0.0497
 2405TIP3    H128706   5.457   4.358  13.564 -0.9024 -1.8010  0.2629
 2405TIP3    H228707   5.546   4.348  13.686 -0.7131 -0.4721  0.2449
 2406TIP3   OH228708   5.213   6.554  14.890  0.0138  0.0128  0.0405
 2406TIP3    H128709   5.185   6.518  14.807 -0.2762  0.7199 -0.1734
 2406TIP3    H228710   5.132   6.582  14.933  0.1672 -0.2792  0.5292
 2407TIP3   OH228711   0.078   2.800  15.974 -0.4392 -0.5314  0.3303
 2407TIP3    H128712  -0.000   2.833  15.929 -0.6616 -1.8713 -0.3151
 2407TIP3    H228713   0.140   2.782  15.904  0.0729 -0.4494  0.7591
 2408TIP3   OH228714   6.524   4.692  12.638  0.1374  0.8674 -0.4285
 2408TIP3    H128715   6.430   4.677  12.642  0.0831  1.5250  2.9334
 2408TIP3    H228716   6.562   4.604  12.636 -0.5279  0.5656  0.0375
 2409TIP3   OH228717   0.313   2.572   6.104 -0.7427 -0.2908 -0.1707
 2409TIP3    H128718   0.383   2.556   6.041 -0.9486  0.2051 -0.5318
 2409TIP3    H228719   0.358   2.586   6.187 -0.5018 -1.5819 -0.0668
 2410TIP3   OH228720   6.070   1.825   4.829 -0.1548  0.4171  0.6434
 2410TIP3    H128721   6.032   1.906   4.793 -0.6048  0.2099  0.6498
 2410TIP3    H228722   6.000   1.761   4.823  0.7776 -0.5149 -1.1716
 2411TIP3   OH228723   0.259   4.771   5.761 -0.0991 -0.7079 -0.6415
 2411TIP3    H128724   0.206   4.714   5.707 -1.7135  1.4809 -1.5354
 2411TIP3    H228725   0.211   4.778   5.844 -0.0656 -0.4232 -0.6442
 2412TIP3   OH228726   3.943   1.331  14.237 -0.1692  0.5404 -1.0914
 2412TIP3    H128727   3.866   1.352  14.185  0.3440  1.6893 -1.3986
 2412TIP3    H228728   3.978   1.415  14.265  1.3641  0.0750 -1.5213
 2413TIP3   OH228729   0.147   3.451  12.322 -0.3214  0.1997  0.7336
 2413TIP3    H128730   0.074   3.503  12.290  0.0472 -0.6810 -1.7167
 2413TIP3    H228731   0.220   3.475  12.265  0.5221 -1.1256  1.2166
 2414TIP3   OH228732   3.083   0.296   5.826 -0.6053 -0.0041  0.1189
 2414TIP3    H128733   3.045   0.223   5.778  0.2800 -0.1496 -0.3793
 2414TIP3    H228734   3.159   0.321   5.775 -0.4721  0.7841  0.6878
 2415TIP3   OH228735   4.415   4.114   2.666 -0.0535 -0.0925 -0.6217
 2415TIP3    H128736   4.339   4.064   2.637 -1.8251  0.8498  2.0013
 2415TIP3    H228737   4.387   4.205   2.663  0.5019  0.2077  1.4261
 2416TIP3   OH228738   1.332   1.918  14.986  0.4770 -0.2237  0.2812
 2416TIP3    H128739   1.390   1.992  14.965  2.0021 -1.5348 -0.3011
 2416TIP3    H228740   1.246   1.946  14.953  0.9727  1.3397  0.2090
 2417TIP3   OH228741   6.132   6.515   1.206  0.1222 -0.2617  0.4002
 2417TIP3    H128742   6.193   6.447   1.175 -0.4069 -0.4874 -0.1723
 2417TIP3    H228743   6.046   6.480   1.184 -0.1840  0.3201  0.6809
 2418TIP3   OH228744   5.950   1.566   1.585  0.1732 -0.1403 -0.3191
 2418TIP3    H128745   5.859   1.589   1.600 -0.5929 -2.1975 -1.5434
 2418TIP3    H228746   5.990   1.571   1.672 -0.5024  2.9275 -0.0658
 2419TIP3   OH228747   1.624   3.967  15.550  0.8946 -1.1037 -0.0122
 2419TIP3    H128748   1.583   4.010  15.475  0.1117 -2.0917 -0.1768
 2419TIP3    H228749   1.606   3.874  15.537  1.7908 -1.4119  0.7820
 2420TIP3   OH228750   0.807   6.711  17.062 -0.4769 -0.0500 -0.0088
 2420TIP3    H128751   0.790   6.633  17.115 -1.1026 -0.4368 -0.7493
 2420TIP3    H228752   0.857   6.769  17.119  2.9168 -2.3075 -0.4358
 2421TIP3   OH228753   5.709   1.352  16.301 -0.6192  0.4112 -0.4346
 2421TIP3    H128754   5.703   1.406  16.222  0.2707  1.2434  0.0496
 2421TIP3    H228755   5.768   1.400  16.359 -1.4758 -0.0442  0.8588
 2422TIP3   OH228756   6.780   4.390   5.137  0.7291  0.0084 -0.1931
 2422TIP3    H128757   6.763   4.401   5.044 -1.3156  0.0278  0.1322
 2422TIP3    H228758   6.875   4.383   5.144  0.9776  0.8276 -2.1765
 2423TIP3   OH228759   4.531   6.628  12.135  0.3740  0.0594 -0.4025
 2423TIP3    H128760   4.443   6.649  12.104  0.4980 -0.5758 -1.2143
 2423TIP3    H228761   4.581   6.609  12.056  0.4384 -2.6206  0.1797
 2424TIP3   OH228762   0.756   1.662   1.403  0.0692 -0.1113  1.0780
 2424TIP3    H128763   0.715   1.632   1.484 -0.1795 -2.4111  0.1960
 2424TIP3    H228764   0.749   1.587   1.344  0.1127  1.5104 -1.1359
 2425TIP3   OH228765   0.165   2.462  11.726 -0.2226  0.1050  0.1130
 2425TIP3    H128766   0.238   2.403  11.745 -0.0393 -0.2234 -1.4412
 2425TIP3    H228767   0.193   2.509  11.647 -0.8652  1.4280  0.6496
 2426TIP3   OH228768   4.212   3.919   5.018  0.8538  0.8614 -0.0306
 2426TIP3    H128769   4.200   3.826   5.038 -1.1291  0.8789 -0.9574
 2426TIP3    H228770   4.164   3.933   4.937  1.6565  2.5811 -0.2559
 2427TIP3   OH228771   1.404   1.023   3.868 -0.1810 -0.0411 -0.3071
 2427TIP3    H128772   1.471   1.085   3.840 -0.4885 -0.2049 -1.4645
 2427TIP3    H228773   1.327   1.078   3.885 -0.1965 -0.0112 -0.4724
 2428TIP3   OH228774   4.444   2.956  15.236 -0.3572 -0.2170 -0.0647
 2428TIP3    H128775   4.502   2.895  15.282  0.3759  0.2364 -0.3702
 2428TIP3    H228776   4.421   3.021  15.302 -1.3411 -0.9390  0.3298
 2429TIP3   OH228777   4.903   6.773   0.089 -0.0901  0.4787  0.2906
 2429TIP3    H128778   4.928   6.753  -0.001  0.5742 -2.2415  0.9772
 2429TIP3    H228779   4.809   6.758   0.092 -0.3109  1.6716 -0.1712
 2430TIP3   OH228780   0.229   1.250   3.145 -0.2434  0.2620  0.3850
 2430TIP3    H128781   0.294   1.299   3.096  0.4992 -1.1718 -0.1138
 2430TIP3    H228782   0.278   1.182   3.191 -0.9345  1.3833  2.9847
 2431TIP3   OH228783   0.398   4.235  16.076  0.4649  0.0379  0.8700
 2431TIP3    H128784   0.456   4.308  16.055  0.2264  0.4853  1.7113
 2431TIP3    H228785   0.364   4.256  16.163 -0.7107 -0.3739  0.5309
 2432TIP3   OH228786   4.398   5.144  16.788 -0.1294  0.0165 -0.4595
 2432TIP3    H128787   4.354   5.150  16.703  1.3986  0.6054 -1.2414
 2432TIP3    H228788   4.458   5.070  16.779  1.5707  1.3675 -0.6704
 2433TIP3   OH228789   3.290   3.223   0.747  0.0306  0.2679  0.3740
 2433TIP3    H128790   3.319   3.314   0.742  1.2530 -0.1575 -0.9400
 2433TIP3    H228791   3.242   3.218   0.829  1.2440  1.7463  1.2344
 2434TIP3   OH228792   2.483   6.039  11.736  0.0497  0.1544  0.3971
 2434TIP3    H128793   2.508   6.104  11.802  0.0724 -1.1950  1.7558
 2434TIP3    H228794   2.399   6.071  11.702 -0.5020  0.3255  1.8570
 2435TIP3   OH228795   2.072   1.760  14.786  0.2654  0.0084  0.6905
 2435TIP3    H128796   1.998   1.720  14.741  0.2909  0.5797  0.1148
 2435TIP3    H228797   2.103   1.694  14.847  0.2334 -0.7899 -0.1454
 2436TIP3   OH228798   6.395   1.084   4.586  0.1823 -0.1667 -0.2538
 2436TIP3    H128799   6.310   1.103   4.625 -0.5494 -2.1215 -0.8384
 2436TIP3    H228800   6.378   1.074   4.493  1.2345  0.3486 -0.5209
 2437TIP3   OH228801   5.074   0.142   4.927 -0.0205  0.4342 -0.0448
 2437TIP3    H128802   5.118   0.090   4.994 -0.8677 -1.4498 -0.8540
 2437TIP3    H228803   4.991   0.167   4.966 -0.1624  0.0365 -0.0810
 2438TIP3   OH228804   4.495   3.609   2.269  0.3152 -0.2262 -0.6575
 2438TIP3    H128805   4.407   3.629   2.303  0.2017 -0.7771 -0.6307
 2438TIP3    H228806   4.519   3.687   2.219  1.2527  1.4478  2.1512
 2439TIP3   OH228807   3.309   1.892  13.063 -0.3790  0.0834 -0.2893
 2439TIP3    H128808   3.224   1.862  13.094 -0.1235  0.6190  0.9824
 2439TIP3    H228809   3.367   1.882  13.139  0.9315 -1.1889 -1.4025
 2440TIP3   OH228810   1.840   3.195   5.743  0.5085 -0.1019  0.2044
 2440TIP3    H128811   1.771   3.175   5.679 -0.6004 -1.5646  1.7531
 2440TIP3    H228812   1.826   3.286   5.767 -1.0648 -0.4326  0.6402
 2441TIP3   OH228813   1.048   0.900   3.890  0.0063 -0.0595 -0.3099
 2441TIP3    H128814   0.970   0.912   3.835  0.2573 -1.6609 -1.0894
 2441TIP3    H228815   1.115   0.868   3.829  0.4170 -1.4767  0.8321
 2442TIP3   OH228816   0.265   3.137   2.034 -0.8855  0.4862  0.2411
 2442TIP3    H128817   0.327   3.175   1.972 -1.9730  0.8531 -0.6538
 2442TIP3    H228818   0.317   3.118   2.112  0.1734  1.5493 -0.1858
 2443TIP3   OH228819   6.584   2.604   3.286 -0.4347 -0.0087 -0.2213
 2443TIP3    H128820   6.503   2.623   3.238 -0.2195 -0.4159 -0.7621
 2443TIP3    H228821   6.554   2.572   3.371 -0.8341  0.2586 -0.2582
 2444TIP3   OH228822   0.454   6.150  11.175 -0.0693 -0.1948 -0.4003
 2444TIP3    H128823   0.451   6.246  11.179  0.2992 -0.1944 -0.0408
 2444TIP3    H228824   0.503   6.132  11.095  0.6379 -0.0640 -0.0086
 2445TIP3   OH228825   3.366   5.869  15.862 -0.3026  0.2541  0.0753
 2445TIP3    H128826   3.314   5.909  15.794  1.4487  0.1825 -1.3806
 2445TIP3    H228827   3.394   5.785  15.825  2.6765  1.2383 -0.2057
 2446TIP3   OH228828   6.584   3.724   0.114 -0.1768  0.1671  0.3556
 2446TIP3    H128829   6.576   3.753   0.204  0.1565 -1.1381  0.8331
 2446TIP3    H228830   6.582   3.804   0.062  0.7958  1.0225  1.5955
 2447TIP3   OH228831   4.679   2.873  14.127  0.4303  0.1752 -0.1850
 2447TIP3    H128832   4.651   2.816  14.056 -0.9117 -1.8294  1.8143
 2447TIP3    H228833   4.597   2.903  14.168  1.1550  1.4569  0.3974
 2448TIP3   OH228834   1.086   0.085  14.115  0.3636  1.0646  0.7742
 2448TIP3    H128835   1.162   0.078  14.173 -1.2412  0.6491  2.9461
 2448TIP3    H228836   1.064   0.178  14.116 -0.0405  0.9653  1.3586
 2449TIP3   OH228837   2.359   3.113  12.497  0.3282  0.4996 -0.0141
 2449TIP3    H128838   2.283   3.085  12.444  0.3687  0.0297  0.1744
 2449TIP3    H228839   2.337   3.086  12.586  0.4200  0.9763  0.1577
 2450TIP3   OH228840   3.715   1.219  11.945  0.2581  0.4657  0.2439
 2450TIP3    H128841   3.710   1.297  12.001  1.1457  1.2974 -0.7967
 2450TIP3    H228842   3.799   1.227  11.900 -0.3020 -0.3326 -0.9873
 2451TIP3   OH228843   3.356   1.208  14.826  0.0376  0.6313  0.2155
 2451TIP3    H128844   3.346   1.237  14.916 -1.6886  1.8256 -0.2994
 2451TIP3    H228845   3.443   1.238  14.801  1.1370 -0.9848  1.8784
 2452TIP3   OH228846   1.994   2.602   4.565 -0.2915  0.6842  0.8926
 2452TIP3    H128847   1.937   2.668   4.525 -1.3160 -0.9391 -0.5161
 2452TIP3    H228848   2.073   2.650   4.591 -0.2728  2.1932 -1.6022
 2453TIP3   OH228849   1.359   4.715  10.770 -0.0773 -0.4113 -0.0485
 2453TIP3    H128850   1.299   4.661  10.821  0.0602 -0.3978  0.1249
 2453TIP3    H228851   1.420   4.653  10.730 -0.0908 -0.4086 -0.0737
 2454TIP3   OH228852   0.670   4.270   1.621 -0.3918 -0.1429 -0.0584
 2454TIP3    H128853   0.641   4.356   1.652 -0.9454 -1.0271  1.9996
 2454TIP3    H228854   0.589   4.220   1.609 -0.0300 -0.6549 -0.4297
 2455TIP3   OH228855   2.172   3.735   5.689 -0.1900  0.5901  0.2518
 2455TIP3    H128856   2.174   3.724   5.594 -0.1079  0.3649  0.2793
 2455TIP3    H228857   2.264   3.739   5.715 -0.2129  0.8723  0.2982
 2456TIP3   OH228858   1.341   2.793   5.766 -0.7887  0.4800  0.3780
 2456TIP3    H128859   1.253   2.829   5.763 -2.0792 -2.4378 -2.9076
 2456TIP3    H228860   1.347   2.752   5.853 -2.0907  1.9235  1.1943
 2457TIP3   OH228861   0.552   2.523  14.557 -0.2703  0.1333 -0.2463
 2457TIP3    H128862   0.487   2.519  14.627  1.0928  0.6992  1.1060
 2457TIP3    H228863   0.579   2.433  14.544 -0.1689  0.0779  0.3185
 2458TIP3   OH228864   3.529   3.823  11.403 -0.5230  0.0869  0.3928
 2458TIP3    H128865   3.439   3.804  11.431 -0.6160  0.8898  0.6683
 2458TIP3    H228866   3.534   3.919  11.401  0.4579  0.0573  0.8122
 2459TIP3   OH228867   5.645   3.295  15.916 -0.0655  0.2569 -0.0094
 2459TIP3    H128868   5.693   3.223  15.874  0.1457  0.0271  0.6268
 2459TIP3    H228869   5.580   3.252  15.971  2.3038  0.3927  3.1561
 2460TIP3   OH228870   1.014   5.623   6.393 -0.1317  0.3502 -0.2375
 2460TIP3    H128871   1.005   5.639   6.486 -2.2972  0.8522 -0.4851
 2460TIP3    H228872   1.091   5.673   6.367  0.3505  0.4029  1.2140
 2461TIP3   OH228873   3.790   0.184   0.985 -0.2794 -0.3914 -0.3092
 2461TIP3    H128874   3.835   0.265   1.012 -0.5616 -0.7810  1.4972
 2461TIP3    H228875   3.861   0.120   0.975 -0.1828 -0.3142 -0.1425
 2462TIP3   OH228876   1.174   1.792   5.933 -0.6649 -0.5106 -0.0270
 2462TIP3    H128877   1.229   1.769   5.858  1.2132 -0.1985  1.1815
 2462TIP3    H228878   1.118   1.716   5.946  1.1500 -1.8896  0.1228
 2463TIP3   OH228879   2.595   1.191  11.900  0.5248 -0.1924 -0.5733
 2463TIP3    H128880   2.520   1.239  11.933  1.1594 -0.2259  0.9985
 2463TIP3    H228881   2.671   1.235  11.938  1.3530  0.0122 -2.3387
 2464TIP3   OH228882   5.183   3.248  13.676 -0.5976  0.2572 -0.0346
 2464TIP3    H128883   5.110   3.247  13.614  0.8126 -0.1171 -1.7586
 2464TIP3    H228884   5.142   3.235  13.762 -2.3052 -3.2942 -1.2156
 2465TIP3   OH228885   3.646   0.748   5.132  0.1978  0.0599  0.0623
 2465TIP3    H128886   3.601   0.679   5.181  2.3277 -1.1998  0.4029
 2465TIP3    H228887   3.658   0.819   5.195 -0.8437  0.2131  0.1012
 2466TIP3   OH228888   6.009   2.272  16.052 -0.1690 -0.1668  0.1817
 2466TIP3    H128889   5.919   2.289  16.025  0.9247  0.5507 -3.5789
 2466TIP3    H228890   6.056   2.353  16.032  1.7597 -1.3469 -0.3000
 2467TIP3   OH228891   4.160   0.542   2.374 -0.2360 -0.3893 -0.1728
 2467TIP3    H128892   4.128   0.614   2.429  0.5428 -0.1721 -0.0003
 2467TIP3    H228893   4.255   0.548   2.379 -0.1185  0.2874 -2.4242
 2468TIP3   OH228894   2.194   0.082  15.394  0.0093  0.3270  0.3996
 2468TIP3    H128895   2.289   0.076  15.380  0.2927  0.4352  2.0598
 2468TIP3    H228896   2.162   0.134  15.320  1.3496  0.8822  0.1862
 2469TIP3   OH228897   4.521   0.663  14.953  0.0629  0.2407  0.2519
 2469TIP3    H128898   4.589   0.641  15.017 -1.3680  1.6169  2.3722
 2469TIP3    H228899   4.514   0.585  14.898  2.9159 -0.1566  0.2894
 2470TIP3   OH228900   6.109   3.430   4.850 -0.1409  0.4126  0.1083
 2470TIP3    H128901   6.130   3.521   4.829 -0.9022  0.4451 -0.5484
 2470TIP3    H228902   6.074   3.393   4.769  0.3523 -0.5331  0.3056
 2471TIP3   OH228903   4.685   5.807   2.772  0.1579 -0.8060  0.6611
 2471TIP3    H128904   4.601   5.841   2.741 -0.1053  0.1888  2.3256
 2471TIP3    H228905   4.750   5.859   2.725 -0.1943 -0.2992  0.7209
 2472TIP3   OH228906   1.556   2.966   1.156  0.0593  0.2173 -0.3352
 2472TIP3    H128907   1.563   3.056   1.126  0.3509  0.0766 -0.7102
 2472TIP3    H228908   1.595   2.914   1.085 -0.6884 -0.2545 -0.4122
 2473TIP3   OH228909   0.270   0.526  13.388 -0.3476  0.3478  0.6716
 2473TIP3    H128910   0.258   0.433  13.370  0.1159  0.4013  0.0689
 2473TIP3    H228911   0.251   0.570  13.305 -1.1880  0.8481  1.1143
 2474TIP3   OH228912   2.702   6.726  12.823  0.0003  0.5933  0.0754
 2474TIP3    H128913   2.777   6.759  12.773 -1.2498  1.4770 -1.2612
 2474TIP3    H228914   2.693   6.788  12.896  0.7528  0.2882  0.4415
 2475TIP3   OH228915   6.736   1.892  11.188 -0.6291  0.7997  0.9189
 2475TIP3    H128916   6.739   1.926  11.277  0.9525  0.0655  1.1734
 2475TIP3    H228917   6.827   1.890  11.160 -0.7575 -1.8806  0.4102
 2476TIP3   OH228918   1.352   2.654  13.005 -0.0360 -0.2370  0.1296
 2476TIP3    H128919   1.375   2.731  13.056 -1.4986  2.5520 -3.0962
 2476TIP3    H228920   1.418   2.651  12.935 -1.3909 -0.4074 -1.1857
 2477TIP3   OH228921   3.170   0.249   2.428  0.2881  0.0554 -0.3707
 2477TIP3    H128922   3.112   0.196   2.483 -0.2159 -0.4164 -1.3345
 2477TIP3    H228923   3.258   0.233   2.464 -0.1383  0.7205  1.0588
 2478TIP3   OH228924   0.746   2.857   1.621 -0.8905  0.1495 -0.6295
 2478TIP3    H128925   0.655   2.830   1.609 -0.6927 -0.6311 -0.4191
 2478TIP3    H228926   0.744   2.952   1.610 -1.8263  0.2146 -0.0677
 2479TIP3   OH228927   4.023   3.675   3.096 -0.1291  0.6743  0.1239
 2479TIP3    H128928   4.111   3.676   3.132 -0.6058  0.9624  1.3251
 2479TIP3    H228929   4.030   3.623   3.016  1.0872  0.5487  0.2981
 2480TIP3   OH228930   0.381   3.094  11.229 -0.3986 -0.0958 -0.3343
 2480TIP3    H128931   0.418   3.010  11.256  0.1804  0.2102 -0.1613
 2480TIP3    H228932   0.369   3.142  11.311  1.7736  1.0068 -0.5790
 2481TIP3   OH228933   3.337   3.675   6.562 -0.0435  0.6317 -0.1978
 2481TIP3    H128934   3.388   3.744   6.519 -0.1529  0.2870 -0.8871
 2481TIP3    H228935   3.269   3.723   6.610  0.2307  1.0345 -0.2077
 2482TIP3   OH228936   0.859   4.891   1.870 -0.6182 -0.6265  0.4264
 2482TIP3    H128937   0.843   4.971   1.820  1.0974 -0.7580 -0.4116
 2482TIP3    H228938   0.851   4.820   1.805 -0.1251 -0.9502  0.7126
 2483TIP3   OH228939   3.593   2.153  15.752 -0.1296  0.1016 -0.1467
 2483TIP3    H128940   3.607   2.071  15.799 -1.2658 -0.4698 -0.7806
 2483TIP3    H228941   3.640   2.142  15.670  1.1194  0.7656  0.4337
 2484TIP3   OH228942   5.674   0.683  16.327 -0.3224  0.1962  0.1818
 2484TIP3    H128943   5.715   0.769  16.322  4.6718 -1.7876  0.5911
 2484TIP3    H228944   5.667   0.665  16.421 -0.9135 -0.0375  0.0977
 2485TIP3   OH228945   5.782   1.818   3.223  0.4112 -0.0992  0.1512
 2485TIP3    H128946   5.782   1.734   3.270 -0.8660 -0.7083 -0.8577
 2485TIP3    H228947   5.862   1.817   3.171  0.8705 -0.2739  0.8587
 2486TIP3   OH228948   6.432   4.101  13.201  0.5847  0.2637 -0.3031
 2486TIP3    H128949   6.337   4.092  13.197  0.6270  0.2377 -1.6008
 2486TIP3    H228950   6.456   4.060  13.284 -0.5490  0.4116  0.1127
 2487TIP3   OH228951   5.209   6.248   4.557 -0.2786  0.2164  0.1805
 2487TIP3    H128952   5.181   6.170   4.508  1.4255 -2.7585  3.4808
 2487TIP3    H228953   5.142   6.259   4.624  0.4437  0.4387  0.8749
 2488TIP3   OH228954   3.219   3.452   0.196 -0.1076 -0.0812  0.2498
 2488TIP3    H128955   3.241   3.370   0.240 -0.9254 -1.3570 -1.6052
 2488TIP3    H228956   3.302   3.499   0.190  0.8365 -1.7555 -0.5547
 2489TIP3   OH228957   4.255   0.867   6.208  0.0878 -0.2462 -0.4927
 2489TIP3    H128958   4.349   0.857   6.226 -0.4424 -2.0494  1.6463
 2489TIP3    H228959   4.234   0.794   6.149  0.3556  1.3661 -2.7136
 2490TIP3   OH228960   2.091   6.018  13.417  0.1538  0.8953  0.3862
 2490TIP3    H128961   1.998   6.032  13.433  0.2042  1.3802  0.2481
 2490TIP3    H228962   2.125   6.104  13.393  0.5962  0.6777  0.2276
 2491TIP3   OH228963   5.706   1.014   1.134  0.7098  0.1104  0.2743
 2491TIP3    H128964   5.661   0.942   1.177 -0.6806  1.0976  0.5375
 2491TIP3    H228965   5.659   1.092   1.162  0.7827  0.9431 -1.7282
 2492TIP3   OH228966   6.236   0.691   3.400 -0.0650 -0.4719  0.4492
 2492TIP3    H128967   6.198   0.609   3.368  1.0682 -1.0059  0.4108
 2492TIP3    H228968   6.258   0.674   3.491  0.7137 -0.4149  0.2797
 2493TIP3   OH228969   2.440   2.613  15.985 -0.1821  0.4882 -0.3554
 2493TIP3    H128970   2.395   2.549  16.039  0.7944  0.7588  0.8140
 2493TIP3    H228971   2.374   2.678  15.964 -0.3824  0.8297  1.2418
 2494TIP3   OH228972   4.698   2.493   4.337 -0.3836  0.6379 -0.9856
 2494TIP3    H128973   4.705   2.515   4.430 -0.8524  0.5455 -0.9263
 2494TIP3    H228974   4.749   2.561   4.292  0.4270  0.2836 -0.6186
 2495TIP3   OH228975   2.343   2.645  11.479 -0.1850 -0.1069  0.3663
 2495TIP3    H128976   2.404   2.712  11.510  1.1451 -1.5765  1.1031
 2495TIP3    H228977   2.359   2.639  11.385  0.7678 -0.4155  0.5382
 2496TIP3   OH228978   0.068   2.908   4.782  0.4861 -0.8188 -0.3930
 2496TIP3    H128979   0.150   2.899   4.734 -0.0876 -1.5553 -1.2742
 2496TIP3    H228980  -0.000   2.898   4.716 -0.3445  1.3381  0.0540
 2497TIP3   OH228981   6.086   5.994  13.075  0.8530 -0.7012 -0.2358
 2497TIP3    H128982   6.035   5.981  13.155  0.6006 -2.5876 -0.6607
 2497TIP3    H228983   6.021   6.010  13.007  1.0572  0.6106 -0.1633
 2498TIP3   OH228984   0.535   0.310   5.463  0.3928 -0.1492  0.1057
 2498TIP3    H128985   0.588   0.268   5.396 -0.9172  2.1092 -2.5307
 2498TIP3    H228986   0.447   0.315   5.426 -0.0743  2.5347  1.2748
 2499TIP3   OH228987   6.265   1.394   1.700 -0.0484 -0.3522  0.7158
 2499TIP3    H128988   6.193   1.420   1.758 -1.5624 -1.0299 -0.7578
 2499TIP3    H228989   6.311   1.325   1.748 -0.0699  0.4253  1.8867
 2500TIP3   OH228990   0.140   0.395  12.819 -0.0650  0.0763 -0.3881
 2500TIP3    H128991   0.164   0.458  12.750 -1.9535  2.5412  1.0530
 2500TIP3    H228992   0.197   0.418  12.892 -1.1038  0.4811  0.3114
 2501TIP3   OH228993   5.834   4.962   2.946  0.3501  0.3283 -0.2495
 2501TIP3    H128994   5.744   4.980   2.922  0.6298  2.1987 -0.0554
 2501TIP3    H228995   5.843   4.997   3.035  0.7680 -1.6123  0.5267
 2502TIP3   OH228996   2.182   5.190   3.172 -0.1759  0.6186  0.1563
 2502TIP3    H128997   2.159   5.250   3.101  0.6129  0.2870 -0.3969
 2502TIP3    H228998   2.098   5.165   3.211 -0.7817 -0.5672 -1.7985
 2503TIP3   OH228999   6.350   0.717  16.504  0.1368 -0.5433 -0.5516
 2503TIP3    H129000   6.299   0.765  16.439  1.8290 -0.2220 -1.7178
 2503TIP3    H229001   6.397   0.650  16.453  0.1658 -1.4451  0.6041
 2504TIP3   OH229002   6.289   3.259  16.033  0.8757  0.8140  0.8928
 2504TIP3    H129003   6.299   3.301  15.948 -1.4854  2.6864  1.4558
 2504TIP3    H229004   6.236   3.181  16.015 -0.6877  1.8686  0.7642
 2505TIP3   OH229005   5.973   1.436  15.805 -0.3479  0.2619  0.0753
 2505TIP3    H129006   5.954   1.528  15.791 -0.0210  0.1462 -1.2135
 2505TIP3    H229007   6.062   1.424  15.771 -1.3237 -1.0540 -2.2792
 2506TIP3   OH229008   4.324   3.124  15.420 -0.2366 -0.6147  0.6471
 2506TIP3    H129009   4.361   3.158  15.501  0.0463 -1.9753  1.1206
 2506TIP3    H229010   4.238   3.091  15.446 -0.8448  0.4541  0.0308
 2507TIP3   OH229011   4.332   0.448  15.115  0.5667  0.3643 -0.2826
 2507TIP3    H129012   4.349   0.413  15.027 -1.1590 -0.0446 -0.5026
 2507TIP3    H229013   4.417   0.447  15.158  1.3705  0.1292 -1.7927
 2508TIP3   OH229014   5.980   1.372   0.492 -0.1418  0.3574  0.2060
 2508TIP3    H129015   6.068   1.335   0.504 -0.4948 -0.6063 -0.0992
 2508TIP3    H229016   5.968   1.430   0.568 -0.2826 -1.5363  1.6891
 2509TIP3   OH229017   1.465   4.126  10.843 -0.0424  0.4968 -0.2482
 2509TIP3    H129018   1.543   4.173  10.873  0.1364 -1.1148  2.0570
 2509TIP3    H229019   1.392   4.185  10.862  0.3273  0.5853  0.9831
 2510TIP3   OH229020   5.120   3.648  12.354  0.2307  0.3638  0.0274
 2510TIP3    H129021   5.086   3.593  12.284  1.4716 -0.9556  0.4143
 2510TIP3    H229022   5.215   3.644  12.344  0.4697 -0.2712  2.0465
 2511TIP3   OH229023   1.429   5.904   4.076  0.2413  0.3990  0.6545
 2511TIP3    H129024   1.355   5.953   4.040  0.3917  0.3539  0.2843
 2511TIP3    H229025   1.503   5.929   4.021  0.1690 -0.8392 -0.0386
 2512TIP3   OH229026   1.916   5.230   2.558 -0.9671  0.4191 -0.7468
 2512TIP3    H129027   1.832   5.189   2.537 -0.9339  1.0252 -2.1148
 2512TIP3    H229028   1.893   5.307   2.609 -1.2173  0.3908 -0.8156
 2513TIP3   OH229029   3.007   2.443  11.212 -0.0995 -0.2362 -0.2104
 2513TIP3    H129030   2.927   2.451  11.265 -0.2019  1.6438 -0.5890
 2513TIP3    H229031   2.977   2.408  11.129 -0.0040 -2.7722  0.7321
 2514TIP3   OH229032   3.584   2.547   2.407 -0.1430  0.2514 -0.2099
 2514TIP3    H129033   3.544   2.565   2.322 -0.8166 -0.8494 -0.1522
 2514TIP3    H229034   3.535   2.600   2.468  0.1936  0.8747 -0.4754
 2515TIP3   OH229035   3.652   5.196  11.151  0.3237 -0.4438  0.3907
 2515TIP3    H129036   3.577   5.150  11.115 -1.5894  1.6650  1.4367
 2515TIP3    H229037   3.709   5.213  11.076 -0.9473 -0.8358 -0.6898
 2516TIP3   OH229038   4.555   4.137   1.510  1.1466 -0.3069  0.4738
 2516TIP3    H129039   4.462   4.117   1.519  1.0183 -0.0321 -0.1324
 2516TIP3    H229040   4.574   4.119   1.418  0.9255  2.5652 -0.2500
 2517TIP3   OH229041   1.769   0.010   0.229 -0.2507 -0.1508  0.1627
 2517TIP3    H129042   1.754   0.091   0.181  0.4382  0.4301  0.8954
 2517TIP3    H229043   1.864   0.001   0.232 -0.3267 -1.2272 -0.2987
 2518TIP3   OH229044   3.742   4.148  16.834 -0.5834 -0.1506 -0.0305
 2518TIP3    H129045   3.784   4.110  16.757  1.7404  1.3813  0.3820
 2518TIP3    H229046   3.730   4.240  16.812 -2.0350 -0.1505  0.6191
 2519TIP3   OH229047   5.780   0.937  16.404 -0.2129  0.0729  0.3887
 2519TIP3    H129048   5.862   0.930  16.451 -0.2353  0.3026  0.4658
 2519TIP3    H229049   5.799   0.996  16.330 -0.0907 -0.5589 -0.0885
 2520TIP3   OH229050   3.979   2.224  10.465 -0.5905  0.0692 -0.9815
 2520TIP3    H129051   3.990   2.310  10.507  1.9949  0.2497 -1.8590
 2520TIP3    H229052   3.886   2.203  10.477 -0.5228  1.1286  2.7982
 2521TIP3   OH229053   1.064   4.189  16.811  0.8614 -0.1367 -0.1222
 2521TIP3    H129054   1.043   4.259  16.873 -0.1454  0.1017 -0.7273
 2521TIP3    H229055   1.131   4.138  16.856  0.7869  0.5479  0.7991
 2522TIP3   OH229056   5.106   2.701  14.485  0.1471  0.4112 -0.1234
 2522TIP3    H129057   5.046   2.652  14.428  0.4347  0.5616 -0.5556
 2522TIP3    H229058   5.183   2.645  14.492  0.2206  0.5155 -0.0978
 2523TIP3   OH229059   0.405   4.767  11.380  0.1931 -0.0437 -0.1306
 2523TIP3    H129060   0.310   4.760  11.373  0.2181 -0.3480 -0.1617
 2523TIP3    H229061   0.436   4.677  11.383  0.5551  0.0365 -1.0864
 2524TIP3   OH229062   5.983   6.150  13.982  0.4986 -0.3187  0.2104
 2524TIP3    H129063   6.045   6.174  14.051  1.0252 -0.0262 -0.3556
 2524TIP3    H229064   5.905   6.121  14.029  0.0846  1.8112  0.9454
 2525TIP3   OH229065   0.147   4.531  13.493 -0.0238  0.1058 -0.0481
 2525TIP3    H129066   0.140   4.555  13.401  0.5125  0.6905  0.0554
 2525TIP3    H229067   0.188   4.607  13.535  2.4608 -1.2819  0.1644
 2526TIP3   OH229068   1.563   6.468  13.086  0.2834 -0.3508  0.7328
 2526TIP3    H129069   1.479   6.443  13.125 -0.2653 -3.7602 -2.1310
 2526TIP3    H229070   1.539   6.526  13.014  0.5570 -0.2836  0.6967
 2527TIP3   OH229071   2.111   3.931  10.976 -0.8690  0.4430  0.1439
 2527TIP3    H129072   2.066   3.850  10.998  0.9480 -0.3921  1.0350
 2527TIP3    H229073   2.044   3.986  10.935 -2.6164 -0.7666  1.2450
 2528TIP3   OH229074   5.937   1.568   0.753 -0.3806  0.2246 -0.3445
 2528TIP3    H129075   6.019   1.560   0.803 -0.0593 -2.1830 -1.1666
 2528TIP3    H229076   5.870   1.532   0.811 -0.5812  0.5482 -0.3710
 2529TIP3   OH229077   0.335   2.571   6.732 -0.0953 -0.5712 -0.0860
 2529TIP3    H129078   0.278   2.558   6.655  0.1043 -0.6132 -0.2269
 2529TIP3    H229079   0.274   2.578   6.805 -0.3294  0.1286 -0.3340
 2530TIP3   OH229080   2.626   0.699   3.104  0.5641  0.3085  0.1674
 2530TIP3    H129081   2.540   0.732   3.130  0.2917 -1.2905  1.4117
 2530TIP3    H229082   2.651   0.755   3.030 -0.8575  1.7763  0.7258
 2531TIP3   OH229083   4.645   5.719  11.784 -0.2424 -0.0312  1.0275
 2531TIP3    H129084   4.646   5.645  11.723 -1.5861 -0.5895  1.6403
 2531TIP3    H229085   4.684   5.791  11.735 -2.0915 -0.2055 -0.8754
 2532TIP3   OH229086   4.340   3.599  11.888 -0.6369  0.1974  0.5126
 2532TIP3    H129087   4.289   3.542  11.830 -0.5010  1.2396 -0.6725
 2532TIP3    H229088   4.419   3.619  11.837 -0.2755  0.7316  1.2677
 2533TIP3   OH229089   2.683   0.800   1.224 -0.0614 -0.7229 -0.3202
 2533TIP3    H129090   2.603   0.788   1.275 -0.4842 -0.7936 -0.9787
 2533TIP3    H229091   2.720   0.882   1.256  0.5674 -1.5845  1.2387
 2534TIP3   OH229092   5.957   3.792   4.212  0.1587  0.3655  0.1105
 2534TIP3    H129093   5.896   3.781   4.139 -1.8697 -0.6694  1.8586
 2534TIP3    H229094   6.015   3.716   4.206 -0.6149 -0.2359  0.1196
 2535TIP3   OH229095   6.564   3.360   5.890  0.2046 -0.1419 -0.2908
 2535TIP3    H129096   6.594   3.432   5.945 -1.6426 -0.2495  0.9573
 2535TIP3    H229097   6.578   3.282   5.944  0.0488 -0.4481 -0.6931
 2536TIP3   OH229098   2.363   0.878  16.271 -0.8529 -0.5958  0.1122
 2536TIP3    H129099   2.428   0.934  16.312 -1.1735 -0.4097  0.3721
 2536TIP3    H229100   2.344   0.811  16.337  0.3857 -1.7144 -0.6202
 2537TIP3   OH229101   2.039   1.662   4.709  0.2860  0.5132 -0.3892
 2537TIP3    H129102   1.981   1.586   4.709  1.0228 -0.0618 -1.0057
 2537TIP3    H229103   1.982   1.735   4.734 -0.1220 -0.4390  1.7070
 2538TIP3   OH229104   6.708   6.733   3.887 -0.0024  0.3061 -0.0436
 2538TIP3    H129105   6.718   6.671   3.959 -0.5424  0.7306  0.4088
 2538TIP3    H229106   6.617   6.721   3.858 -0.1594  0.9825  0.1487
 2539TIP3   OH229107   0.791   2.139   5.539 -0.0389 -0.6774  1.0986
 2539TIP3    H129108   0.712   2.102   5.578 -1.0641  0.3636  0.0882
 2539TIP3    H229109   0.817   2.075   5.473  0.0509 -1.0820  1.5190
 2540TIP3   OH229110   1.283   1.978  11.275 -0.1518  0.4055  0.5555
 2540TIP3    H129111   1.362   2.007  11.319  0.0993 -0.9989  1.0643
 2540TIP3    H229112   1.242   2.059  11.244  1.5905  1.1455  0.0508
 2541TIP3   OH229113   5.374   2.722   3.920  0.3509 -1.4356  0.3546
 2541TIP3    H129114   5.426   2.733   3.841 -0.2092  0.5244  0.2272
 2541TIP3    H229115   5.351   2.629   3.921 -0.2836 -1.3526 -2.1783
 2542TIP3   OH229116   6.142   0.852   0.907 -0.5795  0.4715 -0.3386
 2542TIP3    H129117   6.125   0.893   0.822 -1.4857  1.4117  0.2723
 2542TIP3    H229118   6.066   0.875   0.960 -1.1089 -1.9507  0.0772
 2543TIP3   OH229119   0.305   5.041  13.128 -0.3148 -0.0752 -0.0226
 2543TIP3    H129120   0.253   5.121  13.128 -0.3882 -0.1176 -0.8332
 2543TIP3    H229121   0.243   4.972  13.152 -0.0506  0.2154  1.6327
 2544TIP3   OH229122   2.084   1.152  12.087 -0.1906 -0.0785 -0.2874
 2544TIP3    H129123   2.097   1.087  12.156 -0.2172  0.2493  0.0310
 2544TIP3    H229124   2.044   1.227  12.132 -0.3752  0.0684 -0.6934
 2545TIP3   OH229125   2.935   1.842   4.085 -0.4425  0.5766  0.3719
 2545TIP3    H129126   2.955   1.895   4.007  1.5099 -0.2941  0.2170
 2545TIP3    H229127   2.938   1.752   4.053 -4.8941  0.2291  0.3611
 2546TIP3   OH229128   1.576   4.859  17.228  0.1395 -0.7631 -0.1394
 2546TIP3    H129129   1.562   4.954  17.219 -0.2861 -0.9095 -1.1880
 2546TIP3    H229130   1.655   4.852  17.282 -0.6671  0.1548  1.1977
 2547TIP3   OH229131   0.852   3.973   0.732 -0.5393  0.2594 -0.1070
 2547TIP3    H129132   0.824   3.957   0.822 -2.0755 -0.4293 -0.6608
 2547TIP3    H229133   0.813   4.057   0.709 -2.1604 -0.6407 -0.8398
 2548TIP3   OH229134   1.890   6.153  17.146  0.2517  0.2870  0.6797
 2548TIP3    H129135   1.956   6.086  17.133  0.1647  0.4169 -0.5198
 2548TIP3    H229136   1.808   6.112  17.117 -0.0871  0.3633  1.4944
 2549TIP3   OH229137   1.082   0.667   3.538  0.4727  0.4249 -0.3922
 2549TIP3    H129138   1.076   0.622   3.622  1.0416 -1.4254 -1.2890
 2549TIP3    H229139   1.088   0.760   3.560 -0.6421  0.0809  1.5491
 2550TIP3   OH229140   0.286   2.781  14.979  0.5212  0.0853 -0.9838
 2550TIP3    H129141   0.262   2.874  14.983  0.2600 -0.0211  0.2923
 2550TIP3    H229142   0.352   2.776  14.910  0.0727  1.1138 -1.5011
 2551TIP3   OH229143   0.033   3.343   2.807  0.4214 -0.6720  0.0573
 2551TIP3    H129144   0.125   3.368   2.795  0.6622 -1.2930  0.5421
 2551TIP3    H229145  -0.001   3.335   2.718  0.1413  1.9556 -0.1398
 2552TIP3   OH229146   0.920   2.209  16.525  0.1890  0.2160 -0.4730
 2552TIP3    H129147   0.908   2.304  16.526  0.5517  0.3510 -2.6974
 2552TIP3    H229148   1.008   2.196  16.560  0.3085  0.7585 -0.5513
 2553TIP3   OH229149   6.364   0.361  12.045  0.5297  0.2961  0.4740
 2553TIP3    H129150   6.376   0.337  12.137  1.8706 -0.0359  0.2211
 2553TIP3    H229151   6.393   0.284  11.996  2.8057  1.5544 -0.2950
 2554TIP3   OH229152   1.649   5.681  13.818 -0.2521 -0.1008  0.3633
 2554TIP3    H129153   1.555   5.679  13.832 -0.0792  3.0840  3.6195
 2554TIP3    H229154   1.660   5.728  13.735 -1.5047 -0.8848 -0.2702
 2555TIP3   OH229155   6.689   1.828   6.491 -0.2353  0.5211 -0.2168
 2555TIP3    H129156   6.719   1.894   6.554 -0.6180  0.9775 -0.5013
 2555TIP3    H229157   6.767   1.777   6.469  0.0078  0.7047  0.2171
 2556TIP3   OH229158   5.035   0.648  17.022  0.3593  0.1003 -0.7751
 2556TIP3    H129159   5.074   0.706  16.956  0.2738  0.5549 -0.4304
 2556TIP3    H229160   5.110   0.615  17.072  0.3333  0.6956 -0.3391
 2557TIP3   OH229161   4.415   5.500  11.532 -0.5653 -0.0715  0.3779
 2557TIP3    H129162   4.382   5.444  11.462  1.8771 -2.4051  0.8829
 2557TIP3    H229163   4.412   5.445  11.610 -2.1235  2.0647  1.9416
 2558TIP3   OH229164   1.174   4.799  16.294  0.2015  0.0854  0.1618
 2558TIP3    H129165   1.204   4.765  16.378  1.1322  0.9904  0.2018
 2558TIP3    H229166   1.100   4.742  16.271  0.8805 -1.1327  0.8578
 2559TIP3   OH229167   2.371   2.627   5.930 -0.2393  0.1684 -0.1508
 2559TIP3    H129168   2.377   2.717   5.899 -0.3072  0.3091  0.2384
 2559TIP3    H229169   2.459   2.607   5.963  0.6112 -0.8661 -2.7830
 2560TIP3   OH229170   4.750   3.902  13.997  0.1612 -0.2359  0.0420
 2560TIP3    H129171   4.679   3.911  13.934 -0.2344  0.0524  0.5180
 2560TIP3    H229172   4.813   3.970  13.972  0.8830 -1.3016 -1.1461
 2561TIP3   OH229173   2.406   5.891   0.954 -0.2201  0.2953 -0.5175
 2561TIP3    H129174   2.484   5.919   0.907  0.4921  0.2568  0.5975
 2561TIP3    H229175   2.391   5.801   0.926 -0.4412  0.6155 -1.4590
 2562TIP3   OH229176   3.583   5.860  11.291  0.7256  0.2418 -0.2235
 2562TIP3    H129177   3.528   5.834  11.218  0.8836 -0.3873 -0.1289
 2562TIP3    H229178   3.613   5.777  11.329  0.1832  0.5401  0.9002
 2563TIP3   OH229179   3.900   3.567  16.213  0.3955  0.4281  0.0772
 2563TIP3    H129180   3.935   3.614  16.138 -1.1044  1.1077 -0.2515
 2563TIP3    H229181   3.969   3.507  16.239  0.8183 -0.0867 -2.0678
 2564TIP3   OH229182   3.470   4.042   1.338  0.7114 -0.0435 -0.4131
 2564TIP3    H129183   3.477   4.110   1.270 -0.4683  1.9480  1.3437
 2564TIP3    H229184   3.413   3.976   1.299 -1.5735  1.9741 -0.7677
 2565TIP3   OH229185   1.909   0.161   1.971  0.4916 -0.1637  0.4732
 2565TIP3    H129186   1.853   0.220   2.023 -0.8377 -0.4341 -0.5956
 2565TIP3    H229187   1.873   0.074   1.987 -1.0564 -0.1028 -2.1378
 2566TIP3   OH229188   6.269   4.622  15.845  0.7180 -0.0771  0.2921
 2566TIP3    H129189   6.350   4.628  15.795 -0.5221  0.4953 -1.7451
 2566TIP3    H229190   6.257   4.528  15.860  0.7918 -0.3200 -1.0789
 2567TIP3   OH229191   3.558   6.362   0.343  0.0009  0.2826  0.2854
 2567TIP3    H129192   3.479   6.388   0.296  0.0171 -2.3837 -1.4436
 2567TIP3    H229193   3.525   6.320   0.423 -0.4512 -1.3273 -0.6909
 2568TIP3   OH229194   0.594   0.138  10.606  0.3599  0.2005  0.2981
 2568TIP3    H129195   0.614   0.170  10.694 -0.2662 -3.2274  1.8563
 2568TIP3    H229196   0.680   0.119  10.568  0.5892  0.6828  0.5640
 2569TIP3   OH229197   4.872   1.383   4.180  0.4187  0.6818  0.0595
 2569TIP3    H129198   4.947   1.359   4.234 -0.1324  0.6973  0.8413
 2569TIP3    H229199   4.795   1.363   4.234 -0.1882 -0.2124 -1.0614
 2570TIP3   OH229200   4.173   4.374   3.275  0.3405  0.5464 -0.6778
 2570TIP3    H129201   4.162   4.280   3.292  1.5474  0.5386  0.2183
 2570TIP3    H229202   4.264   4.384   3.250  0.0604  1.4064 -1.4083
 2571TIP3   OH229203   3.722   2.156  11.081 -0.2356  0.2774  0.4683
 2571TIP3    H129204   3.809   2.120  11.062  0.2609  1.3705  0.5688
 2571TIP3    H229205   3.698   2.203  11.001 -0.3251  0.7357  0.7612
 2572TIP3   OH229206   6.756   1.863   2.351 -0.2999  0.7894  0.3066
 2572TIP3    H129207   6.754   1.772   2.323  0.2640  1.4261 -2.0097
 2572TIP3    H229208   6.846   1.876   2.383 -0.2321  0.6597  0.1696
 2573TIP3   OH229209   2.731   1.312  13.035 -0.7009 -0.3843 -0.2989
 2573TIP3    H129210   2.789   1.362  13.093 -0.5147 -0.9052 -0.0349
 2573TIP3    H229211   2.786   1.241  13.002 -0.8030 -0.0915 -1.1192
 2574TIP3   OH229212   6.685   1.273   3.707 -0.0778 -0.0361 -0.0691
 2574TIP3    H129213   6.683   1.187   3.748  1.3390 -0.1392 -0.1685
 2574TIP3    H229214   6.629   1.264   3.630  0.5094 -1.0414 -0.3964
 2575TIP3   OH229215   4.382   5.943  14.297 -0.1212  0.0136 -0.0535
 2575TIP3    H129216   4.309   5.993  14.334  0.7791  0.5941  1.0115
 2575TIP3    H229217   4.423   5.901  14.374  1.1438  0.3552 -0.5190
 2576TIP3   OH229218   1.111   2.232  13.559 -0.2509 -0.2698  0.2468
 2576TIP3    H129219   1.040   2.241  13.496  1.2002  1.5150 -1.2377
 2576TIP3    H229220   1.092   2.150  13.605 -2.9852 -0.0923 -0.3917
 2577TIP3   OH229221   0.025   2.070   0.807  0.6149 -0.0841  0.4323
 2577TIP3    H129222   0.097   2.109   0.857  0.8132  0.4531 -0.2645
 2577TIP3    H229223  -0.022   2.017   0.872 -0.2171  1.9992  1.6579
 2578TIP3   OH229224   3.156   1.139   4.607 -0.3722 -0.2017 -0.1750
 2578TIP3    H129225   3.098   1.097   4.672  0.2232  0.4082  0.7722
 2578TIP3    H229226   3.221   1.186   4.660 -2.4828  4.1851 -1.0038
 2579TIP3   OH229227   4.205   5.147  15.691  0.4250  0.2947 -0.2355
 2579TIP3    H129228   4.155   5.066  15.683 -0.0301  0.4877  0.5749
 2579TIP3    H229229   4.296   5.121  15.676  0.2584 -0.3383 -0.1601
 2580TIP3   OH229230   5.749   5.457   0.913  0.0459 -0.4824 -0.2378
 2580TIP3    H129231   5.686   5.514   0.869  0.5537  0.9835  0.8435
 2580TIP3    H229232   5.717   5.368   0.895 -2.9197  0.1865  1.0434
 2581TIP3   OH229233   4.132   0.554  15.485 -0.0263 -0.4988  0.5185
 2581TIP3    H129234   4.151   0.497  15.410 -0.3289  0.4788 -0.3239
 2581TIP3    H229235   4.148   0.642  15.452 -3.6952  0.2728  0.4239
 2582TIP3   OH229236   0.928   4.798   6.570  0.0023 -0.5500  0.4457
 2582TIP3    H129237   0.866   4.804   6.643 -0.5390  0.3997 -0.0764
 2582TIP3    H229238   0.873   4.783   6.493  0.5142 -0.8565  0.1344
 2583TIP3   OH229239   1.228   5.015   0.950  0.7210 -0.2245  0.0702
 2583TIP3    H129240   1.212   5.086   0.888 -0.5739 -1.5520 -1.2174
 2583TIP3    H229241   1.202   4.936   0.902  0.0439 -1.3473  2.1713
 2584TIP3   OH229242   0.640   5.004   3.521  0.2717 -0.3751  0.2577
 2584TIP3    H129243   0.723   5.028   3.481 -0.2770 -0.7122 -1.1682
 2584TIP3    H229244   0.578   5.070   3.489 -0.2523 -0.8632  0.2305
 2585TIP3   OH229245   3.418   6.697   5.216  0.2531  0.0722  0.1004
 2585TIP3    H129246   3.510   6.692   5.189  0.3526  0.6766  0.3107
 2585TIP3    H229247   3.419   6.750   5.295  0.0879 -2.5164  1.9756
 2586TIP3   OH229248   5.648   0.285   0.686  0.2556  0.8240 -0.2448
 2586TIP3    H129249   5.720   0.302   0.748 -1.1629  0.4225  1.5967
 2586TIP3    H229250   5.635   0.190   0.690 -1.6967  1.0872  1.0706
 2587TIP3   OH229251   5.321   0.933   2.723 -0.1134  0.2297  0.5004
 2587TIP3    H129252   5.384   0.937   2.651 -0.7931 -1.0802 -0.2036
 2587TIP3    H229253   5.322   0.842   2.751 -0.9540  0.4066  1.1568
 2588TIP3   OH229254   1.884   5.035   1.247 -0.2660 -0.0500  0.4730
 2588TIP3    H129255   1.949   4.990   1.194 -0.1936 -0.3035  0.7688
 2588TIP3    H229256   1.930   5.111   1.283 -0.4718  0.4209 -0.2609
 2589TIP3   OH229257   5.031   1.759  11.634 -0.0031 -0.5312  0.3311
 2589TIP3    H129258   5.121   1.740  11.659  0.4400  0.2508 -0.5920
 2589TIP3    H229259   5.038   1.793  11.545 -1.1434  0.1738  0.4900
 2590TIP3   OH229260   0.146   4.978  14.701 -0.0427  0.1813 -0.2258
 2590TIP3    H129261   0.072   5.020  14.744 -0.4481 -1.4542  0.7435
 2590TIP3    H229262   0.106   4.921  14.635  0.5156  1.5877 -1.8468
 2591TIP3   OH229263   5.896   2.500   1.963 -0.4789  0.5953  0.3209
 2591TIP3    H129264   5.950   2.521   2.039  0.3833 -0.7372  0.1207
 2591TIP3    H229265   5.894   2.580   1.911  1.3653  0.6778  0.3243
 2592TIP3   OH229266   0.675   5.213   5.989  0.0740 -0.2020 -0.0996
 2592TIP3    H129267   0.634   5.170   6.065  0.9059  0.1765  0.5846
 2592TIP3    H229268   0.641   5.165   5.914 -0.9198 -0.4714  0.4920
 2593TIP3   OH229269   0.024   3.379   6.242  0.0803  0.1948  0.1393
 2593TIP3    H129270  -0.027   3.309   6.284  0.5015  0.7672  1.6706
 2593TIP3    H229271   0.103   3.387   6.296 -0.1254  2.1010  0.2180
 2594TIP3   OH229272   3.776   1.113   2.823  0.1201  0.1209 -0.1550
 2594TIP3    H129273   3.700   1.106   2.881  0.6289 -0.0289  0.5007
 2594TIP3    H229274   3.782   1.206   2.803 -0.5785  0.0624 -0.6821
 2595TIP3   OH229275   6.632   4.006  15.046 -0.8566 -0.0337 -0.7060
 2595TIP3    H129276   6.667   4.005  14.957 -0.5200 -2.2650 -0.5947
 2595TIP3    H229277   6.544   3.969  15.038 -0.5494 -0.9409 -0.0312
 2596TIP3   OH229278   6.733   3.133   5.556 -0.2748  0.0722 -0.1143
 2596TIP3    H129279   6.807   3.188   5.581  2.4948 -2.0793 -2.8122
 2596TIP3    H229280   6.695   3.177   5.480 -1.1313  0.5677  0.5683
 2597TIP3   OH229281   5.013   5.802   2.616  0.2633  0.3004  0.2720
 2597TIP3    H129282   4.947   5.784   2.550 -0.5900 -1.5842  1.5316
 2597TIP3    H229283   5.004   5.731   2.679 -0.1183  2.8189  3.3204
 2598TIP3   OH229284   4.887   1.746   6.320 -0.3432 -0.3797 -0.0434
 2598TIP3    H129285   4.884   1.654   6.291 -0.2802 -1.0559  1.9392
 2598TIP3    H229286   4.976   1.757   6.353 -0.9795 -0.3062  1.7570
 2599TIP3   OH229287   2.893   2.840  14.477  0.1138 -0.2332 -0.1124
 2599TIP3    H129288   2.834   2.832  14.551 -0.8447  0.9918 -0.7060
 2599TIP3    H229289   2.899   2.934  14.461  0.2581 -0.4730 -1.6216
 2600TIP3   OH229290   4.296   3.813  14.280  0.2976 -0.3023 -0.2547
 2600TIP3    H129291   4.257   3.733  14.246 -1.7318  0.9349 -1.0520
 2600TIP3    H229292   4.364   3.784  14.340  1.9198 -2.6290 -2.9833
 2601TIP3   OH229293   5.448   2.899  16.370  0.3267  0.0096  0.3419
 2601TIP3    H129294   5.441   2.992  16.348  0.2752  0.2823  1.4494
 2601TIP3    H229295   5.538   2.889  16.402  1.0056 -0.7663 -1.6676
 2602TIP3   OH229296   3.245   5.389  14.677  0.0811  0.3436  0.3779
 2602TIP3    H129297   3.179   5.346  14.731  0.4539 -0.1970  0.4161
 2602TIP3    H229298   3.229   5.356  14.589  0.1717  0.3607  0.3544
 2603TIP3   OH229299   4.852   4.572   3.831 -0.1681 -0.3524  0.8754
 2603TIP3    H129300   4.764   4.534   3.826 -0.2560 -0.5404  2.9442
 2603TIP3    H229301   4.883   4.573   3.741 -1.2974 -2.6443  0.3973
 2604TIP3   OH229302   3.763   4.046  17.102 -0.3512 -0.1468  0.3810
 2604TIP3    H129303   3.754   4.088  17.188  0.0090 -0.4307  0.5610
 2604TIP3    H229304   3.746   4.116  17.039  0.4007  0.3185  0.6760
 2605TIP3   OH229305   3.558   6.747  15.090 -0.4091  0.1625 -0.1784
 2605TIP3    H129306   3.483   6.768  15.034  0.4586 -0.3465 -1.5710
 2605TIP3    H229307   3.574   6.828  15.140 -0.4719  1.0337 -1.5245
 2606TIP3   OH229308   4.640   5.763   0.418  0.4276  0.1183 -0.3742
 2606TIP3    H129309   4.564   5.713   0.388 -1.4923  2.0550  0.9442
 2606TIP3    H229310   4.703   5.757   0.346 -1.3177 -0.8369 -1.9007
 2607TIP3   OH229311   5.965   2.255  13.700  0.2577 -0.0721  0.1014
 2607TIP3    H129312   5.917   2.314  13.758  1.3380  0.6637  0.2803
 2607TIP3    H229313   5.900   2.190  13.672 -0.0339 -1.2972  3.1812
 2608TIP3   OH229314   4.011   6.659   0.096 -0.4708  0.1364 -0.5401
 2608TIP3    H129315   3.955   6.710   0.155  0.5374 -0.0122  0.5866
 2608TIP3    H229316   4.005   6.569   0.129  3.7508  0.6465  2.5550
 2609TIP3   OH229317   2.007   5.976  12.536 -1.1472  0.0732 -0.0873
 2609TIP3    H129318   1.944   6.046  12.550  1.0045  2.5220 -1.7821
 2609TIP3    H229319   2.026   5.942  12.624  0.1093  3.8646  1.2742
 2610TIP3   OH229320   0.513   3.175  13.118  1.1342 -0.1810 -0.0654
 2610TIP3    H129321   0.438   3.146  13.065  2.2869 -0.3931 -1.6697
 2610TIP3    H229322   0.533   3.263  13.085  1.5109 -0.0812  0.4270
 2611TIP3   OH229323   6.433   6.776  10.995 -0.7733 -0.7016 -0.2890
 2611TIP3    H129324   6.378   6.731  10.931 -3.0085 -0.2869  1.2177
 2611TIP3    H229325   6.442   6.865  10.961 -1.0988 -0.7607 -0.5356
 2612TIP3   OH229326   5.048   2.615  16.322  0.3995  0.3183  0.8110
 2612TIP3    H129327   4.989   2.630  16.396 -1.4909 -1.0496 -0.3098
 2612TIP3    H229328   5.088   2.530  16.340  0.5977  0.3788  0.6586
 2613TIP3   OH229329   2.152   0.962  14.708 -0.3763  0.7122 -0.1482
 2613TIP3    H129330   2.228   1.017  14.727  0.3250 -0.5772  0.9951
 2613TIP3    H229331   2.078   1.011  14.743 -0.0334  1.8262 -0.9535
 2614TIP3   OH229332   4.511   0.954  13.025  0.6050  0.7016 -0.1089
 2614TIP3    H129333   4.521   0.860  13.034  2.1363  0.6430 -1.8930
 2614TIP3    H229334   4.600   0.989  13.029 -0.0346  2.3775  2.7351
 2615TIP3   OH229335   4.905   6.694  15.508 -0.5687  0.2955  0.4133
 2615TIP3    H129336   4.942   6.618  15.463  1.8465  1.8002 -0.3215
 2615TIP3    H229337   4.829   6.718  15.455  0.3061  0.0662 -1.0002
 2616TIP3   OH229338   0.703   3.926   1.747 -0.3174 -0.3592  0.1273
 2616TIP3    H129339   0.632   3.926   1.683  0.0485 -0.0379 -0.2836
 2616TIP3    H229340   0.701   4.014   1.785  0.1918 -0.1794 -0.2575
 2617TIP3   OH229341   3.462   4.474  14.180  0.2596 -0.1997  0.4655
 2617TIP3    H129342   3.488   4.416  14.109 -0.5869 -3.0331  2.2897
 2617TIP3    H229343   3.379   4.512  14.149  1.1571  0.6200 -1.0420
 2618TIP3   OH229344   0.754   1.813  11.563 -0.3116  0.2506 -0.3763
 2618TIP3    H129345   0.800   1.753  11.504  0.2581 -0.7172  0.9856
 2618TIP3    H229346   0.676   1.839  11.515  1.1519  1.1997 -2.3843
 2619TIP3   OH229347   6.379   6.638  15.973 -0.1722  0.4691 -0.7287
 2619TIP3    H129348   6.396   6.601  15.887  0.4106  1.0001 -0.8541
 2619TIP3    H229349   6.301   6.593  16.004 -0.6500  0.5854 -1.7204
 2620TIP3   OH229350   0.164   2.623  11.452  0.0233  0.3947 -0.2338
 2620TIP3    H129351   0.115   2.634  11.370  1.7155  0.9062 -1.2270
 2620TIP3    H229352   0.230   2.557  11.432 -0.3186 -0.3972  1.1236
 2621TIP3   OH229353   3.564   2.853   3.033 -0.1394  0.1461  0.3655
 2621TIP3    H129354   3.557   2.821   3.123  1.4738  1.0422  0.8579
 2621TIP3    H229355   3.492   2.915   3.023 -2.3692 -2.3365 -0.1079
 2622TIP3   OH229356   3.332   5.738   0.505  0.1712  0.1463 -0.1039
 2622TIP3    H129357   3.315   5.809   0.567  2.0042  0.3449  0.2165
 2622TIP3    H229358   3.322   5.658   0.556  0.5066  0.2677  0.1549
 2623TIP3   OH229359   2.831   1.138   1.766 -0.2551 -0.1305  0.3383
 2623TIP3    H129360   2.810   1.208   1.828  1.0243  1.8797 -1.3484
 2623TIP3    H229361   2.751   1.086   1.760 -1.1165  0.9139  2.0003
 2624TIP3   OH229362   3.576   3.865  11.013 -0.2675 -0.0246  0.1080
 2624TIP3    H129363   3.480   3.869  11.011 -0.3350  0.3805  2.0994
 2624TIP3    H229364   3.598   3.791  10.957 -1.4018  2.5090 -4.1837
 2625TIP3   OH229365   2.055   3.486   1.497 -0.3056 -0.1635 -0.3320
 2625TIP3    H129366   2.030   3.396   1.517 -1.8663  0.4696  0.6976
 2625TIP3    H229367   2.077   3.525   1.581  0.4082  0.4148 -0.7722
 2626TIP3   OH229368   5.546   2.438  12.639 -1.1071  0.8111 -0.5589
 2626TIP3    H129369   5.566   2.510  12.699 -1.1093 -0.4033  0.9837
 2626TIP3    H229370   5.616   2.375  12.654 -2.2753 -0.4629 -0.2230
 2627TIP3   OH229371   4.047   4.651  10.937  0.0451  0.1498  0.5105
 2627TIP3    H129372   4.084   4.661  10.850  2.1648  0.9604  1.4365
 2627TIP3    H229373   3.998   4.568  10.933  0.4322 -0.0296 -1.3045
 2628TIP3   OH229374   0.058   6.518   3.031  0.6017 -0.3228  0.1510
 2628TIP3    H129375   0.076   6.429   3.001  0.8247 -0.2587  0.0981
 2628TIP3    H229376   0.116   6.532   3.105  2.1967  0.5578 -1.1901
 2629TIP3   OH229377   2.374   1.672  14.086  0.2742 -0.1634 -0.0661
 2629TIP3    H129378   2.301   1.717  14.127  0.7560 -0.7570  1.5159
 2629TIP3    H229379   2.334   1.613  14.022 -0.4027  1.8386 -1.5725
 2630TIP3   OH229380   3.585   0.576   5.347 -0.1177 -0.0723  0.1427
 2630TIP3    H129381   3.505   0.530   5.320  0.1992 -1.5080  1.5154
 2630TIP3    H229382   3.577   0.584   5.442  1.1783  0.1358  0.2469
 2631TIP3   OH229383   3.180   4.108   4.863  0.0909  0.0745 -0.7122
 2631TIP3    H129384   3.191   4.150   4.777 -0.9189 -2.8917 -2.4375
 2631TIP3    H229385   3.268   4.080   4.888  0.3067  0.4519 -1.0301
 2632TIP3   OH229386   1.958   5.863   4.596 -0.2468 -0.1331 -0.0178
 2632TIP3    H129387   2.042   5.819   4.589 -1.3648 -2.2582 -1.0893
 2632TIP3    H229388   1.921   5.858   4.508 -0.6306  2.7050 -0.1092
 2633TIP3   OH229389   6.749   3.571  12.172  0.0744  0.2969 -0.1950
 2633TIP3    H129390   6.672   3.610  12.131 -0.9232 -0.6252  0.7392
 2633TIP3    H229391   6.816   3.639  12.165 -1.0436  1.4306 -0.3284
 2634TIP3   OH229392   1.846   2.965   1.665 -0.1023 -0.4663 -0.1248
 2634TIP3    H129393   1.780   2.979   1.733 -1.5214 -0.9770 -1.3493
 2634TIP3    H229394   1.864   2.871   1.667  1.8345 -0.1320  1.2607
 2635TIP3   OH229395   6.410   1.629   2.681 -0.2228  0.2008  0.3005
 2635TIP3    H129396   6.388   1.712   2.724 -1.8370 -1.0163  1.9665
 2635TIP3    H229397   6.334   1.610   2.626 -0.2337 -0.5691  0.5732
 2636TIP3   OH229398   1.594   3.165   2.461 -0.3639  0.6409  0.4897
 2636TIP3    H129399   1.674   3.217   2.463  1.2393 -1.6462  2.4801
 2636TIP3    H229400   1.543   3.196   2.536 -0.4486  0.8111  0.3626
 2637TIP3   OH229401   1.064   5.972  12.009 -0.6818 -0.6228 -0.3695
 2637TIP3    H129402   1.066   6.051  11.955 -0.6313 -0.4882 -0.1713
 2637TIP3    H229403   1.141   5.922  11.981  0.0966  0.0690  0.5034
 2638TIP3   OH229404   0.453   4.336   0.196 -0.2400  0.4157 -0.4081
 2638TIP3    H129405   0.504   4.372   0.123  1.5388  0.5146  0.8182
 2638TIP3    H229406   0.367   4.378   0.188 -0.7254 -0.9340 -3.4585
 2639TIP3   OH229407   1.305   1.524   5.534 -0.5604  0.3994 -0.0873
 2639TIP3    H129408   1.267   1.593   5.588 -1.2589  0.0990 -0.1869
 2639TIP3    H229409   1.345   1.464   5.597 -0.8460  0.3657  0.0635
 2640TIP3   OH229410   5.993   4.055  13.558 -0.3215  0.0653  0.0418
 2640TIP3    H129411   6.028   4.043  13.646 -0.8912 -4.6500 -0.0943
 2640TIP3    H229412   5.899   4.066  13.571 -0.2981  0.2944  0.0249
 2641TIP3   OH229413   1.766   4.458  17.247  0.2801  0.1285  0.4859
 2641TIP3    H129414   1.795   4.545  17.219  0.4384  0.8570  2.7364
 2641TIP3    H229415   1.846   4.415  17.276 -0.1368  0.2663  1.9208
 2642TIP3   OH229416   5.883   5.660   4.869 -0.0149  0.0627 -0.2025
 2642TIP3    H129417   5.936   5.620   4.801  0.0565 -0.4694  0.1577
 2642TIP3    H229418   5.853   5.587   4.923  1.3598  0.5889  1.3818
 2643TIP3   OH229419   2.483   4.834  16.974  0.5141  0.0026  0.3171
 2643TIP3    H129420   2.407   4.874  17.017 -0.0938  0.4641 -1.1099
 2643TIP3    H229421   2.551   4.833  17.041 -0.4296  0.5420  1.3237
 2644TIP3   OH229422   3.195   6.292   5.740 -0.3758 -0.3335 -0.5261
 2644TIP3    H129423   3.280   6.306   5.698  0.1639  0.8534  0.8824
 2644TIP3    H229424   3.189   6.198   5.753  0.6174 -0.4459 -0.8607
 2645TIP3   OH229425   0.600   5.378   3.015  0.0641  0.1884 -0.0981
 2645TIP3    H129426   0.570   5.437   3.084 -1.2266  0.3196 -0.7442
 2645TIP3    H229427   0.692   5.362   3.036  0.3896  2.2199  0.2407
 2646TIP3   OH229428   2.382   3.538  13.297 -0.0518 -0.3722  0.2214
 2646TIP3    H129429   2.427   3.471  13.247 -0.1766 -0.6469  0.4775
 2646TIP3    H229430   2.348   3.599  13.231  2.6794  1.1512  0.0743
 2647TIP3   OH229431   5.044   4.367  15.991  0.2117  0.1804 -0.0452
 2647TIP3    H129432   4.984   4.395  16.060 -1.2063 -1.8327 -0.3909
 2647TIP3    H229433   5.050   4.272  16.001  0.7007 -0.0584 -2.1125
 2648TIP3   OH229434   3.889   2.697   2.252  0.2293  0.2365  0.1415
 2648TIP3    H129435   3.925   2.716   2.339  0.6069  0.2150 -0.0052
 2648TIP3    H229436   3.815   2.640   2.269 -0.1358  0.8014  0.5022
 2649TIP3   OH229437   4.185   5.089   4.212 -0.3729  0.3240  0.4725
 2649TIP3    H129438   4.180   5.136   4.130 -0.4597 -0.7790 -0.1785
 2649TIP3    H229439   4.120   5.019   4.203 -0.0230 -0.1151  1.2715
 2650TIP3   OH229440   3.629   2.473  15.663  0.7491  0.0391  0.4346
 2650TIP3    H129441   3.711   2.485  15.614  0.2263  1.4194 -0.1641
 2650TIP3    H229442   3.587   2.559  15.659  0.1228 -0.1493  2.3150
 2651TIP3   OH229443   4.032   3.430   1.536 -0.2924  0.4759  0.1877
 2651TIP3    H129444   4.055   3.514   1.495 -1.6316 -0.2826 -2.3273
 2651TIP3    H229445   4.068   3.364   1.477 -0.9752 -0.7074  1.0569
 2652TIP3   OH229446   3.941   4.492  11.495 -0.6675  1.2913 -0.4878
 2652TIP3    H129447   3.933   4.538  11.578 -0.4666  3.7912 -1.7312
 2652TIP3    H229448   3.951   4.400  11.518 -1.1561  1.8439  2.1921
 2653TIP3   OH229449   6.275   3.790  12.403 -0.7382 -0.2149 -0.4100
 2653TIP3    H129450   6.260   3.735  12.480  1.4223 -0.2628  0.0309
 2653TIP3    H229451   6.233   3.743  12.331  0.3946 -2.0817  0.1014
 2654TIP3   OH229452   0.782   4.338  11.117  0.0592  0.1984  0.1307
 2654TIP3    H129453   0.811   4.335  11.208  0.1719  2.2316  0.2146
 2654TIP3    H229454   0.862   4.325  11.066 -0.2012 -2.3567  0.2432
 2655TIP3   OH229455   2.607   0.611   4.404  0.2589  0.1327  0.4622
 2655TIP3    H129456   2.670   0.662   4.456  0.4723  0.7953 -0.4336
 2655TIP3    H229457   2.540   0.675   4.378  0.5699 -0.0140 -0.7331
 2656TIP3   OH229458   2.269   6.413  10.442  0.3435  0.4586  0.2603
 2656TIP3    H129459   2.328   6.344  10.473  1.1987  0.9000 -0.3448
 2656TIP3    H229460   2.182   6.385  10.471  0.8555 -0.1401  1.2869
 2657TIP3   OH229461   3.219   2.737   5.426 -0.5070 -0.0403 -0.4813
 2657TIP3    H129462   3.296   2.721   5.480 -0.2307  1.7907 -0.2879
 2657TIP3    H229463   3.218   2.663   5.364  1.5737  0.0435 -0.6857
 2658TIP3   OH229464   1.759   4.784  11.000 -0.1442 -0.2498 -0.2104
 2658TIP3    H129465   1.835   4.840  11.015 -1.0178  0.8666  0.1339
 2658TIP3    H229466   1.712   4.825  10.928 -1.2633 -0.0258  0.6208
 2659TIP3   OH229467   6.373   3.492   5.408  0.2976  0.0523 -0.0603
 2659TIP3    H129468   6.352   3.404   5.377  0.1845  0.3416 -0.8269
 2659TIP3    H229469   6.402   3.479   5.498 -1.1532 -0.5997  0.3429
 2660TIP3   OH229470   3.748   0.312  11.567  0.3736 -0.1322  0.0682
 2660TIP3    H129471   3.803   0.237  11.544 -0.0749 -1.1253  1.9728
 2660TIP3    H229472   3.808   0.387  11.566  1.4135 -0.9284  0.5275
 2661TIP3   OH229473   1.213   3.383  11.273 -0.4716  0.0962 -0.2470
 2661TIP3    H129474   1.260   3.302  11.256  0.4083  0.3492  0.8712
 2661TIP3    H229475   1.147   3.360  11.338  0.6390  0.5068  1.0800
 2662TIP3   OH229476   3.141   0.289   4.833 -0.1473  0.0491 -0.2413
 2662TIP3    H129477   3.226   0.245   4.833 -0.4751 -0.6516 -1.7973
 2662TIP3    H229478   3.140   0.340   4.752 -0.5984  1.3182  0.5318
 2663TIP3   OH229479   2.446   1.575   3.005 -0.1195 -0.5900 -0.4681
 2663TIP3    H129480   2.501   1.581   2.928 -1.0963 -0.4329 -1.1762
 2663TIP3    H229481   2.441   1.664   3.038  0.6354 -0.7238  0.0360
 2664TIP3   OH229482   4.332   4.623  12.046  0.4454  0.3543  0.1941
 2664TIP3    H129483   4.293   4.648  12.129  1.3214 -1.2172  1.1244
 2664TIP3    H229484   4.426   4.615  12.064  0.7017  0.3508 -1.0302
 2665TIP3   OH229485   5.078   1.139  14.047  0.2076 -0.2972 -0.1445
 2665TIP3    H129486   5.131   1.061  14.029  1.3956  0.3130  0.6040
 2665TIP3    H229487   5.089   1.194  13.970  0.4868 -0.2829 -0.0980
 2666TIP3   OH229488   5.198   2.595  15.108 -0.2642  0.3571 -0.4956
 2666TIP3    H129489   5.181   2.689  15.122 -3.5781 -0.1551 -0.2045
 2666TIP3    H229490   5.241   2.567  15.189  0.1484  1.4900 -0.2961
 2667TIP3   OH229491   6.031   4.006   1.199 -0.4283 -0.1212  0.1050
 2667TIP3    H129492   6.046   4.048   1.114 -2.3612 -0.5464 -0.5040
 2667TIP3    H229493   6.077   3.923   1.193  1.0516  0.6518  0.2438
 2668TIP3   OH229494   0.113   6.540  12.631 -0.0578  0.7187  0.6168
 2668TIP3    H129495   0.095   6.596  12.707  1.6051  2.8441 -0.4792
 2668TIP3    H229496   0.166   6.593  12.573  0.9351 -1.7424 -0.9023
 2669TIP3   OH229497   2.466   6.547  12.816  0.0741  0.3218 -0.2242
 2669TIP3    H129498   2.479   6.579  12.905 -1.7327 -0.6043  0.4388
 2669TIP3    H229499   2.489   6.454  12.820 -0.6619  0.1169 -0.5289
 2670TIP3   OH229500   1.864   1.069   2.942  0.4610 -0.7928  0.4288
 2670TIP3    H129501   1.809   1.144   2.921  1.1705 -0.9769 -2.4174
 2670TIP3    H229502   1.803   1.005   2.979 -0.2621  0.8433  2.2509
 2671TIP3   OH229503   6.112   2.042  14.099 -0.0031  0.5554  0.4728
 2671TIP3    H129504   6.089   1.950  14.112  0.1772  0.5609  0.8350
 2671TIP3    H229505   6.030   2.089  14.110 -0.0406  0.4651  0.5864
 2672TIP3   OH229506   1.008   1.864  13.302 -0.7830 -0.6911 -0.3767
 2672TIP3    H129507   1.077   1.900  13.357 -0.7622 -1.2586 -0.0251
 2672TIP3    H229508   1.048   1.854  13.215 -0.8633  0.3605 -0.5588
 2673TIP3   OH229509   6.295   0.079  15.989 -0.3880  0.1478 -0.5606
 2673TIP3    H129510   6.320  -0.013  15.991  0.0788  0.2809 -0.0133
 2673TIP3    H229511   6.220   0.083  15.929 -1.2766 -0.8004  0.4555
 2674TIP3   OH229512   6.114   2.229  11.128  0.2676 -0.0846  0.0818
 2674TIP3    H129513   6.208   2.215  11.142  0.1860 -1.7382 -0.7535
 2674TIP3    H229514   6.101   2.212  11.035 -0.8106  0.4867  0.1124
 2675TIP3   OH229515   3.135   5.609  15.976  0.1576  0.4295 -0.3808
 2675TIP3    H129516   3.149   5.632  16.068  0.5576  0.6054 -0.4826
 2675TIP3    H229517   3.212   5.557  15.952 -0.3590 -0.3351 -0.3813
 2676TIP3   OH229518   4.918   6.190  13.781 -0.5736 -0.4014 -0.2368
 2676TIP3    H129519   4.888   6.115  13.730 -0.5120 -1.0532  0.6579
 2676TIP3    H229520   4.919   6.263  13.719  0.1308 -1.3044 -1.3163
 2677TIP3   OH229521   5.508   5.110  12.391 -0.2481 -0.4298 -0.1290
 2677TIP3    H129522   5.433   5.068  12.348 -0.4353 -0.6151  0.3704
 2677TIP3    H229523   5.581   5.094  12.331 -0.5607 -0.4429 -0.5142
 2678TIP3   OH229524   4.077   0.103   3.696 -0.4916 -0.2696  0.1619
 2678TIP3    H129525   4.067   0.009   3.678 -1.0254 -0.2460  0.3097
 2678TIP3    H229526   4.125   0.107   3.778  0.3703 -0.4010 -0.3285
 2679TIP3   OH229527   2.385   3.341   0.086 -0.4327  0.8504 -0.6367
 2679TIP3    H129528   2.454   3.405   0.066 -0.2021  1.2192  1.1982
 2679TIP3    H229529   2.322   3.351   0.015 -0.3020  2.9810 -0.4954
 2680TIP3   OH229530   4.299   1.391  14.495  0.5656 -0.3592 -0.1053
 2680TIP3    H129531   4.391   1.365  14.491  0.3184 -1.0413 -2.2317
 2680TIP3    H229532   4.261   1.360  14.413 -1.4201  0.5017  0.4278
 2681TIP3   OH229533   1.182   0.363   5.923  0.2310  0.3582  0.1153
 2681TIP3    H129534   1.179   0.444   5.974 -1.6904  0.6640 -0.3956
 2681TIP3    H229535   1.145   0.297   5.980  0.2101  0.2102 -0.0678
 2682TIP3   OH229536   2.424   5.755   1.536  0.2130 -0.4376 -0.7768
 2682TIP3    H129537   2.483   5.680   1.524  1.6746  0.8127 -1.8276
 2682TIP3    H229538   2.356   5.743   1.471 -1.2256 -2.3121  0.9573
 2683TIP3   OH229539   4.264   2.168   0.480  0.3701  0.0730  0.6910
 2683TIP3    H129540   4.229   2.254   0.458  0.9816 -0.1872 -1.6019
 2683TIP3    H229541   4.203   2.133   0.545 -1.1063  1.3819  0.0801
 2684TIP3   OH229542   2.239   0.326   1.856 -0.1195  0.4709  0.6137
 2684TIP3    H129543   2.321   0.354   1.816 -0.1211  1.0328  0.9994
 2684TIP3    H229544   2.179   0.317   1.782  0.9670 -2.5926 -0.0390
 2685TIP3   OH229545   3.212   3.873  12.268 -0.5020 -0.2135  0.0950
 2685TIP3    H129546   3.245   3.907  12.185 -0.9686 -1.5920 -0.6966
 2685TIP3    H229547   3.269   3.911  12.334  1.0874 -0.5496 -1.0127
 2686TIP3   OH229548   3.884   2.894   3.364 -0.0615 -0.0746 -0.1961
 2686TIP3    H129549   3.811   2.947   3.331  0.2719  0.0783 -0.6979
 2686TIP3    H229550   3.960   2.925   3.316  0.7969  1.3751  1.9666
 2687TIP3   OH229551   6.042   1.464   4.700 -0.3640 -0.0163 -0.3188
 2687TIP3    H129552   6.091   1.491   4.622 -1.1797 -0.9242 -1.1775
 2687TIP3    H229553   6.028   1.370   4.688 -1.4841  0.0469  0.3701
 2688TIP3   OH229554   5.392   4.742  16.563  0.4560 -0.3986 -0.1076
 2688TIP3    H129555   5.372   4.815  16.622  0.6666  0.7756 -1.4338
 2688TIP3    H229556   5.470   4.771  16.515 -1.2365 -0.0961 -2.8902
 2689TIP3   OH229557   2.570   6.753   5.675 -0.2669 -0.2123 -0.4396
 2689TIP3    H129558   2.496   6.702   5.644  0.6240  0.2017 -3.5482
 2689TIP3    H229559   2.622   6.692   5.727 -0.4626 -1.8028 -2.0491
 2690TIP3   OH229560   1.911   5.710  10.749 -0.1952  0.0172 -0.4903
 2690TIP3    H129561   1.910   5.745  10.838  1.6491  1.9685 -1.1573
 2690TIP3    H229562   1.994   5.664  10.742 -1.7615 -3.0882 -0.2443
 2691TIP3   OH229563   3.284   3.690   0.771  0.2726  0.2389  0.5086
 2691TIP3    H129564   3.216   3.753   0.749 -1.5595 -1.8760 -0.3136
 2691TIP3    H229565   3.254   3.608   0.731  2.8053 -1.0338  1.0304
 2692TIP3   OH229566   6.389   0.430  15.243 -0.3713  0.0782  0.1629
 2692TIP3    H129567   6.418   0.409  15.154  0.2816  1.6461 -0.0423
 2692TIP3    H229568   6.447   0.502  15.270 -0.2224 -0.6794  2.0532
 2693TIP3   OH229569   1.675   4.354  13.385 -0.3613 -0.1549 -0.2205
 2693TIP3    H129570   1.718   4.377  13.302  0.9985  1.0828  0.7647
 2693TIP3    H229571   1.597   4.410  13.388 -0.6877 -0.5626 -0.8706
 2694TIP3   OH229572   1.679   4.681   5.618  0.3937 -0.7265  0.3273
 2694TIP3    H129573   1.756   4.676   5.675  0.5278 -1.8376  0.0705
 2694TIP3    H229574   1.672   4.594   5.579 -0.3936 -0.3351 -0.4485
 2695TIP3   OH229575   1.792   6.575  11.334  0.5606 -1.0353 -0.0201
 2695TIP3    H129576   1.820   6.633  11.405  1.3726  0.8129 -1.7329
 2695TIP3    H229577   1.874   6.549  11.292  0.0273  0.8069 -2.3892
 2696TIP3   OH229578   5.965   4.925  11.402 -0.0901  0.2157 -0.1661
 2696TIP3    H129579   5.987   4.832  11.392 -0.2493  0.2216 -0.6002
 2696TIP3    H229580   5.975   4.962  11.314  1.7149  1.0143  0.3282
 2697TIP3   OH229581   4.448   3.478  14.182  0.6488 -0.0079 -0.5424
 2697TIP3    H129582   4.365   3.505  14.144  0.5549 -1.5036 -1.4671
 2697TIP3    H229583   4.513   3.536  14.143 -0.0919  2.5213  1.6575
 2698TIP3   OH229584   4.678   2.579   1.532  0.0732  0.1103 -0.2312
 2698TIP3    H129585   4.631   2.547   1.609 -0.0518 -0.6105 -0.6088
 2698TIP3    H229586   4.745   2.638   1.568  0.1159 -0.3406  0.4379
 2699TIP3   OH229587   1.238   0.361   3.069 -0.2993 -0.2594 -0.2844
 2699TIP3    H129588   1.173   0.332   3.005 -0.6360 -0.7391  0.2709
 2699TIP3    H229589   1.196   0.434   3.114  0.7611  1.5728 -2.0728
 2700TIP3   OH229590   2.220   4.281   5.752 -0.1596  1.0772 -0.4456
 2700TIP3    H129591   2.274   4.261   5.829  1.8485  1.0992 -1.7701
 2700TIP3    H229592   2.131   4.258   5.778  0.7365 -0.7562  1.2225
 2701TIP3   OH229593   5.350   2.190  11.715  0.0442  0.5847 -0.4781
 2701TIP3    H129594   5.388   2.170  11.630 -0.6354 -0.1313 -0.6244
 2701TIP3    H229595   5.255   2.189  11.700 -0.0609  1.9994 -0.0519
 2702TIP3   OH229596   1.648   4.991   2.268 -0.0968  0.5222  0.8977
 2702TIP3    H129597   1.678   5.045   2.194 -2.0984 -1.7825 -1.8025
 2702TIP3    H229598   1.714   4.922   2.275  0.3034  0.9642  1.5869
 2703TIP3   OH229599   0.076   2.321  12.291  0.1109  0.0546 -0.0299
 2703TIP3    H129600   0.006   2.386  12.288  1.2838  1.4770  1.2960
 2703TIP3    H229601   0.109   2.317  12.202 -0.6760  0.4839 -0.3498
 2704TIP3   OH229602   6.655   0.159   1.550  0.5534  0.4538 -0.1498
 2704TIP3    H129603   6.603   0.092   1.507  2.2066 -1.1018  0.1386
 2704TIP3    H229604   6.641   0.238   1.498 -1.9849  0.1176 -0.1030
 2705TIP3   OH229605   3.517   4.997   4.790 -0.2843  0.4489 -0.1457
 2705TIP3    H129606   3.557   4.955   4.866  2.4266  0.3292 -1.5068
 2705TIP3    H229607   3.551   4.948   4.715  0.1202  2.8375 -1.6292
 2706TIP3   OH229608   1.121   1.845   4.256  0.8562  0.2859 -0.0743
 2706TIP3    H129609   1.124   1.803   4.170  0.5694  1.2254 -0.5608
 2706TIP3    H229610   1.204   1.892   4.263  0.3877  1.1912 -0.3701
 2707TIP3   OH229611   4.212   4.626  14.762  0.3101 -0.2199  0.1071
 2707TIP3    H129612   4.237   4.680  14.837  0.2264  0.4965 -0.3727
 2707TIP3    H229613   4.141   4.570  14.795 -0.5870  0.9599  0.2314
 2708TIP3   OH229614   4.836   5.004  15.262  0.0110 -0.0534 -0.0742
 2708TIP3    H129615   4.858   4.936  15.326 -0.0807  0.3422  0.3787
 2708TIP3    H229616   4.920   5.036  15.231  0.1385  1.3512  1.5405
 2709TIP3   OH229617   1.465   6.548   4.639  0.3428  0.2348  0.3306
 2709TIP3    H129618   1.430   6.625   4.595 -2.2754  0.3707  2.4077
 2709TIP3    H229619   1.537   6.581   4.692 -1.4405  1.5593  2.0544
 2710TIP3   OH229620   4.620   3.755   3.032  0.3723  0.5696 -0.0858
 2710TIP3    H129621   4.619   3.672   3.079 -2.4655  0.5484 -0.0198
 2710TIP3    H229622   4.711   3.766   3.004  0.8083 -2.5830 -0.2126
 2711TIP3   OH229623   0.727   6.640  15.790 -0.3753  0.2724  0.2101
 2711TIP3    H129624   0.820   6.661  15.798 -0.4488  0.5821  0.2611
 2711TIP3    H229625   0.686   6.723  15.765 -1.0684  0.8840  3.0589
 2712TIP3   OH229626   6.108   3.303  13.046  0.9279  0.3460 -0.3515
 2712TIP3    H129627   6.111   3.327  13.138  0.7770 -0.3515 -0.1613
 2712TIP3    H229628   6.195   3.266  13.028 -0.1299 -2.8073  0.4446
 2713TIP3   OH229629   6.386   6.731   0.234 -0.3765  0.0149  0.2680
 2713TIP3    H129630   6.363   6.638   0.233 -0.4809  0.0364 -0.7848
 2713TIP3    H229631   6.417   6.749   0.145  0.3437  0.8187  0.6586
 2714TIP3   OH229632   0.557   1.557   5.948  0.0175 -0.1382 -0.3200
 2714TIP3    H129633   0.486   1.513   5.902 -0.8062  0.6368  0.1806
 2714TIP3    H229634   0.576   1.500   6.023  0.7347 -0.9321 -1.0912
 2715TIP3   OH229635   3.240   3.973  11.768  0.5442 -0.4855 -0.4487
 2715TIP3    H129636   3.194   4.039  11.717 -1.1534  0.0869  1.6418
 2715TIP3    H229637   3.191   3.892  11.752  0.9589 -0.6522 -0.8991
 2716TIP3   OH229638   4.349   5.354   4.937 -0.0900 -0.0400 -0.2742
 2716TIP3    H129639   4.312   5.433   4.978 -1.2040 -0.2896 -0.7675
 2716TIP3    H229640   4.388   5.306   5.011 -1.1796  0.0019  0.3458
 2717TIP3   OH229641   6.647   6.401   1.229  0.2926  0.2406 -0.4013
 2717TIP3    H129642   6.582   6.341   1.192 -0.9956 -0.3674  2.5650
 2717TIP3    H229643   6.714   6.343   1.266  0.0538  0.6563  0.7228
 2718TIP3   OH229644   2.753   6.256  16.305 -0.5505  0.0562  0.3652
 2718TIP3    H129645   2.755   6.336  16.252 -0.0021 -0.2423 -0.0764
 2718TIP3    H229646   2.790   6.189  16.248 -2.2647 -0.8314  0.2329
 2719TIP3   OH229647   3.944   6.651   4.980  0.0531  0.0629  0.2101
 2719TIP3    H129648   3.980   6.655   4.891 -0.3558  1.3755  0.0803
 2719TIP3    H229649   3.862   6.602   4.970 -0.5611  1.1504 -0.3730
 2720TIP3   OH229650   1.791   5.359   6.682  0.4498 -0.1284  0.2695
 2720TIP3    H129651   1.704   5.383   6.715  0.6314  1.0199 -0.0465
 2720TIP3    H229652   1.809   5.274   6.722 -0.3518  0.1250  1.2032
 2721TIP3   OH229653   6.634   5.325  15.737 -0.0812  0.3631  0.6360
 2721TIP3    H129654   6.580   5.403  15.744 -1.1488 -0.2820 -0.0347
 2721TIP3    H229655   6.674   5.332  15.650  1.3396  1.0765  1.3156
 2722TIP3   OH229656   5.543   1.933   6.437 -0.6249 -0.4273 -0.1367
 2722TIP3    H129657   5.550   1.961   6.528 -1.4247 -1.6471  0.3269
 2722TIP3    H229658   5.634   1.923   6.408 -0.3612 -0.3972  0.6497
 2723TIP3   OH229659   5.385   2.736  12.986  0.7295  0.1912 -0.1631
 2723TIP3    H129660   5.476   2.738  13.016  0.0591 -0.3506  2.1159
 2723TIP3    H229661   5.360   2.644  12.993  0.3359  0.1410 -1.9352
 2724TIP3   OH229662   4.893   3.898  15.160  0.2551  0.4551 -0.1001
 2724TIP3    H129663   4.953   3.923  15.229  1.3092  0.6439 -1.0464
 2724TIP3    H229664   4.885   3.803  15.168  3.2638 -0.0847 -1.8689
 2725TIP3   OH229665   5.433   1.522  15.994  0.1989 -0.4733  0.0800
 2725TIP3    H129666   5.419   1.615  15.974  1.5675 -0.2895 -0.1036
 2725TIP3    H229667   5.384   1.476  15.926 -0.5421  0.0976  0.2043
 2726TIP3   OH229668   6.277   1.259   0.810  0.3890 -0.0893  0.0952
 2726TIP3    H129669   6.184   1.265   0.831  0.3514 -0.3141  0.0003
 2726TIP3    H229670   6.281   1.266   0.715  0.5045  0.3033  0.1272
 2727TIP3   OH229671   0.196   5.280  12.353 -0.3258 -0.7208 -0.3268
 2727TIP3    H129672   0.156   5.239  12.430  1.1798 -0.1522  0.8159
 2727TIP3    H229673   0.279   5.233  12.341  0.5797  0.7563 -0.0960
 2728TIP3   OH229674   3.314   3.149   5.994  0.5685  0.2349  0.0454
 2728TIP3    H129675   3.308   3.074   6.054 -0.0907  0.3124  0.0897
 2728TIP3    H229676   3.287   3.224   6.047  0.7189  0.4209 -0.1422
 2729TIP3   OH229677   1.838   5.013   3.576 -0.2425 -0.3711 -0.3827
 2729TIP3    H129678   1.796   4.999   3.661  0.2308 -0.5919 -0.1824
 2729TIP3    H229679   1.806   4.941   3.522  0.6150 -1.0856  0.0513
 2730TIP3   OH229680   2.792   4.753   3.641 -0.3889 -0.3089 -0.0383
 2730TIP3    H129681   2.803   4.659   3.656 -0.5610 -0.5601 -1.3845
 2730TIP3    H229682   2.879   4.791   3.657 -0.5001 -0.5636  1.2959
 2731TIP3   OH229683   3.647   4.921  10.895  0.0315  0.3000  0.8841
 2731TIP3    H129684   3.716   4.886  10.951  1.5826  2.0095  0.1295
 2731TIP3    H229685   3.678   4.904  10.806 -1.8165 -1.2739  0.4596
 2732TIP3   OH229686   2.449   0.042  11.551  0.0603  0.1702  0.2074
 2732TIP3    H129687   2.442  -0.049  11.580  0.2396  1.1783  3.9202
 2732TIP3    H229688   2.542   0.054  11.531  0.0020 -0.4753 -0.5003
 2733TIP3   OH229689   5.286   1.671   0.331  0.1403 -0.5515  0.0368
 2733TIP3    H129690   5.306   1.753   0.286 -0.7096 -1.3484 -1.9029
 2733TIP3    H229691   5.372   1.635   0.353  0.5831 -0.0403 -0.7856
 2734TIP3   OH229692   0.421   6.396  16.399  0.1674  0.3705 -0.0729
 2734TIP3    H129693   0.339   6.399  16.350  0.3845 -0.9505 -0.5767
 2734TIP3    H229694   0.424   6.306  16.434  1.1943  0.5294  0.2797
 2735TIP3   OH229695   2.277   3.314   1.757  0.3350  0.3554 -0.0481
 2735TIP3    H129696   2.224   3.364   1.695 -0.1394 -1.0676 -0.8440
 2735TIP3    H229697   2.214   3.273   1.816  0.5238 -1.0907 -0.8036
 2736TIP3   OH229698   5.652   5.746  14.060 -0.0973 -0.2460 -0.0288
 2736TIP3    H129699   5.730   5.798  14.079 -0.9583  0.7610  0.8824
 2736TIP3    H229700   5.627   5.710  14.145 -0.0593 -1.4194 -0.4897
 2737TIP3   OH229701   5.522   1.565   2.344  0.4251  0.2228 -0.1839
 2737TIP3    H129702   5.433   1.531   2.329  0.6788  0.6096 -3.1152
 2737TIP3    H229703   5.510   1.631   2.413 -1.2485 -0.8830  0.6667
 2738TIP3   OH229704   4.949   1.506   1.388  1.4395  0.5916  0.4295
 2738TIP3    H129705   4.856   1.528   1.398  0.7366 -1.6325 -0.5081
 2738TIP3    H229706   4.983   1.503   1.477 -0.6540 -3.2000  1.3245
 2739TIP3   OH229707   4.033   6.178   1.371  0.1438 -0.1871 -0.1408
 2739TIP3    H129708   4.033   6.098   1.425 -0.1074  0.2337  0.4955
 2739TIP3    H229709   3.994   6.244   1.427  0.8888  0.5330 -0.4517
 2740TIP3   OH229710   1.025   1.861   0.363  0.0675 -0.0816  0.2124
 2740TIP3    H129711   0.966   1.927   0.327  0.4768  0.8379  1.1838
 2740TIP3    H229712   0.970   1.784   0.378 -0.1353 -0.5205 -2.3074
 2741TIP3   OH229713   6.649   6.775  12.694  0.0481  0.0047 -0.1109
 2741TIP3    H129714   6.714   6.839  12.723 -0.3656  0.4021 -0.0394
 2741TIP3    H229715   6.669   6.762  12.601  0.7051 -0.4596  0.0886
 2742TIP3   OH229716   3.265   2.867  10.820  0.2808  0.8211  0.5206
 2742TIP3    H129717   3.248   2.896  10.730 -0.4518  1.5590  0.8788
 2742TIP3    H229718   3.297   2.946  10.864 -1.3383  1.0409  1.4097
 2743TIP3   OH229719   1.954   5.265  14.256  0.0923  0.7772 -0.1818
 2743TIP3    H129720   1.976   5.269  14.163 -0.6507  1.8733 -0.3199
 2743TIP3    H229721   1.892   5.192  14.262  2.2141 -1.1181 -0.0760
 2744TIP3   OH229722   3.766   4.292  14.507 -0.5282  0.8391 -0.3591
 2744TIP3    H129723   3.776   4.251  14.593 -3.4531 -1.4886 -0.9632
 2744TIP3    H229724   3.845   4.266  14.459 -0.3436 -0.6104  0.6439
 2745TIP3   OH229725   6.274   4.106  12.095  0.4648  0.9068 -0.0856
 2745TIP3    H129726   6.224   4.085  12.016 -1.3742  0.5334  1.1234
 2745TIP3    H229727   6.353   4.053  12.088 -0.5239 -0.5414 -0.7997
 2746TIP3   OH229728   1.933   2.046  11.395 -0.1990 -0.0483  0.2230
 2746TIP3    H129729   1.964   2.004  11.315  0.8944 -0.2407  0.7288
 2746TIP3    H229730   1.852   2.000  11.416 -1.4280  1.1181 -1.6603
 2747TIP3   OH229731   5.000   0.181  11.530  0.6593 -0.4209 -0.6782
 2747TIP3    H129732   4.930   0.219  11.584  0.0067 -1.6008 -0.6384
 2747TIP3    H229733   5.072   0.167  11.591  0.9987  0.9166 -0.7416
 2748TIP3   OH229734   0.947   4.243  11.672  0.0939 -0.1498 -0.5085
 2748TIP3    H129735   0.923   4.325  11.627  1.3745  0.0930 -0.7933
 2748TIP3    H229736   0.883   4.179  11.640 -0.5944  0.6117 -0.6973
 2749TIP3   OH229737   1.214   3.418  12.884 -0.0594  0.3120 -0.0278
 2749TIP3    H129738   1.302   3.383  12.895  0.6986  2.3789  1.1160
 2749TIP3    H229739   1.156   3.342  12.895  1.4863 -0.7389  1.3796
 2750TIP3   OH229740   0.127   2.167  15.503  0.0629  0.2801  0.0277
 2750TIP3    H129741   0.207   2.158  15.554  0.5184 -2.0836 -0.9981
 2750TIP3    H229742   0.057   2.163  15.568  0.6804 -1.1010  0.6387
 2751TIP3   OH229743   6.797   5.869  10.712 -0.1506 -0.9758  0.0528
 2751TIP3    H129744   6.735   5.801  10.684  1.0323 -1.9527 -0.2634
 2751TIP3    H229745   6.883   5.834  10.688  0.4068  1.3559 -1.6421
 2752TIP3   OH229746   3.521   5.484   4.795  0.3002  0.5693  0.3990
 2752TIP3    H129747   3.459   5.531   4.740 -0.8114  0.7706  1.7826
 2752TIP3    H229748   3.470   5.415   4.837  1.1592  0.2904  1.0233
 2753TIP3   OH229749   0.428   5.934   4.575 -0.0233 -0.1090 -0.0866
 2753TIP3    H129750   0.391   6.011   4.531 -0.3797 -0.0513  0.3062
 2753TIP3    H229751   0.478   5.970   4.648 -1.7521 -0.3171  1.2465
 2754TIP3   OH229752   4.046   0.439   3.967 -0.3998 -0.5298 -0.0206
 2754TIP3    H129753   4.046   0.346   3.991 -2.8223 -0.2243  1.5032
 2754TIP3    H229754   4.115   0.478   4.019 -0.5644 -1.1810  0.6982
 2755TIP3   OH229755   2.526   2.696   0.542 -0.3579 -0.2196  0.5643
 2755TIP3    H129756   2.594   2.640   0.504  0.1798 -0.4861  1.8422
 2755TIP3    H229757   2.444   2.660   0.510  0.0099 -1.3861  0.8682
 2756TIP3   OH229758   2.118   0.604   0.533 -0.5353  0.0910  0.3522
 2756TIP3    H129759   2.064   0.529   0.507 -0.4771  0.4630 -0.9373
 2756TIP3    H229760   2.070   0.646   0.604  0.4532 -2.3521  2.6329
 2757TIP3   OH229761   0.665   3.516  12.010  0.5450  0.5229 -0.1610
 2757TIP3    H129762   0.719   3.459  12.065 -0.8754 -0.8815 -0.1499
 2757TIP3    H229763   0.680   3.604  12.045  1.6759 -0.0147  0.7771
 2758TIP3   OH229764   3.178   6.569   5.862  0.8776 -0.2803  0.4346
 2758TIP3    H129765   3.202   6.526   5.944  1.3169  0.7019  0.8286
 2758TIP3    H229766   3.193   6.502   5.795 -1.2507 -1.7549  1.2923
 2759TIP3   OH229767   3.658   1.449  11.246  0.1674 -0.2332 -0.2766
 2759TIP3    H129768   3.699   1.502  11.313  0.1912 -1.1227  0.4258
 2759TIP3    H229769   3.694   1.482  11.164 -0.7185  1.6328  0.0295
 2760TIP3   OH229770   4.576   1.996  14.433  0.4392  0.2196 -0.5110
 2760TIP3    H129771   4.588   1.906  14.403  0.7443 -0.2641  1.0114
 2760TIP3    H229772   4.482   2.011  14.428  0.0877 -1.0303  1.4897
 2761TIP3   OH229773   6.750   2.603  15.712  0.1240  0.0869  0.5524
 2761TIP3    H129774   6.826   2.604  15.654  0.5285  0.3728  1.0780
 2761TIP3    H229775   6.683   2.654  15.665 -0.4148 -1.7184 -0.7682
 2762TIP3   OH229776   2.239   5.936  14.540 -0.1688 -0.1522 -0.1610
 2762TIP3    H129777   2.230   5.846  14.569 -0.2172  0.1235  0.6966
 2762TIP3    H229778   2.185   5.941  14.461 -0.6748 -0.7100  0.1443
 2763TIP3   OH229779   5.324   3.086   0.503  0.2090 -0.1650  0.5917
 2763TIP3    H129780   5.265   3.125   0.437  0.4632 -0.1474  0.3741
 2763TIP3    H229781   5.281   3.004   0.527 -0.7071  0.5827  1.5929
 2764TIP3   OH229782   0.136   0.798  14.139  0.6593 -0.2430 -0.4625
 2764TIP3    H129783   0.105   0.712  14.165  0.6718 -0.4607 -1.1559
 2764TIP3    H229784   0.065   0.834  14.084 -0.1279  0.9055  1.2041
 2765TIP3   OH229785   0.267   4.862   3.575  0.5103  0.1581  0.0678
 2765TIP3    H129786   0.258   4.767   3.583  1.1331  0.1878  1.3799
 2765TIP3    H229787   0.181   4.897   3.596  0.2866 -0.1094 -0.3940
 2766TIP3   OH229788   5.731   1.133   4.884 -0.5481 -0.0727  0.1106
 2766TIP3    H129789   5.654   1.122   4.939 -1.0026 -0.6062 -0.6199
 2766TIP3    H229790   5.728   1.060   4.822 -0.5400  0.9971 -1.2049
 2767TIP3   OH229791   3.641   5.884   2.880  0.3626  0.5728  0.5637
 2767TIP3    H129792   3.616   5.804   2.925  2.1371 -2.2386 -2.9840
 2767TIP3    H229793   3.721   5.912   2.924 -0.4479  0.7024  2.0423
 2768TIP3   OH229794   5.060   6.303  12.846 -0.6335 -0.5484  0.3944
 2768TIP3    H129795   5.139   6.344  12.881 -0.0485 -0.6751 -0.7438
 2768TIP3    H229796   5.084   6.212  12.832 -1.4472 -0.9412  1.3988
 2769TIP3   OH229797   3.016   1.004   4.800 -0.2761 -0.1657 -0.7334
 2769TIP3    H129798   2.930   0.982   4.766 -0.3323 -0.1155 -0.6259
 2769TIP3    H229799   3.005   1.001   4.895  0.1751 -1.4515 -0.7034
 2770TIP3   OH229800   3.756   4.296  14.134  0.5968 -0.5493  0.3390
 2770TIP3    H129801   3.757   4.260  14.046  0.2101 -0.4142  0.2798
 2770TIP3    H229802   3.837   4.346  14.141  0.1508  0.2749 -0.2872
 2771TIP3   OH229803   0.667   6.437  13.812  0.2059  0.3373  0.0379
 2771TIP3    H129804   0.631   6.524  13.796  2.4657  1.1925 -0.7239
 2771TIP3    H229805   0.761   6.449  13.812  0.6634 -2.3267 -1.5468
 2772TIP3   OH229806   0.259   6.036   5.762  0.6113 -0.1992 -0.0244
 2772TIP3    H129807   0.342   6.039   5.715  0.1597 -3.8792 -1.4337
 2772TIP3    H229808   0.193   6.051   5.694  0.0732 -1.0382  0.2976
 2773TIP3   OH229809   3.170   1.538   4.180 -0.4557 -0.8971 -0.3163
 2773TIP3    H129810   3.163   1.444   4.192  0.0440 -0.7782  1.0858
 2773TIP3    H229811   3.128   1.576   4.258 -0.8752  0.0400 -0.9757
 2774TIP3   OH229812   3.974   1.074  14.472  0.4087  0.2009 -0.1628
 2774TIP3    H129813   3.976   1.170  14.477  0.2834  0.3003 -1.5972
 2774TIP3    H229814   4.061   1.046  14.498  0.6458  0.7426 -0.3759
 2775TIP3   OH229815   2.166   2.938   6.221  0.3739 -1.1541 -0.6153
 2775TIP3    H129816   2.126   2.953   6.306  2.6590 -0.8601  0.4746
 2775TIP3    H229817   2.202   2.850   6.226  1.6147 -0.6737 -0.7949
 2776TIP3   OH229818   5.394   3.384  12.119 -0.0121 -0.0073  0.2162
 2776TIP3    H129819   5.370   3.428  12.037  2.6557  1.7173  0.2528
 2776TIP3    H229820   5.468   3.328  12.096  0.6902  0.3939  1.4131
 2777TIP3   OH229821   3.973   5.734   5.677 -0.0086 -0.3751  0.1777
 2777TIP3    H129822   3.933   5.769   5.597 -0.2759 -0.1736  0.3939
 2777TIP3    H229823   3.992   5.812   5.730  2.7155 -0.2669 -0.8185
 2778TIP3   OH229824   3.223   5.439   5.491 -0.1986  0.1215  0.1525
 2778TIP3    H129825   3.159   5.370   5.508 -0.3107 -0.1580 -1.2660
 2778TIP3    H229826   3.225   5.491   5.571 -0.1296 -1.5077  1.2445
 2779TIP3   OH229827   0.232   0.542  12.602 -0.1989  0.1388  1.0598
 2779TIP3    H129828   0.182   0.592  12.538 -0.2597 -0.0248  0.9804
 2779TIP3    H229829   0.271   0.470  12.552  0.5500  0.5609  1.0110
 2780TIP3   OH229830   2.728   4.168   4.305 -0.3554  0.8117  0.0658
 2780TIP3    H129831   2.778   4.220   4.367 -1.0703  2.6875 -0.8407
 2780TIP3    H229832   2.649   4.143   4.352 -0.5916  1.6703  0.1548
 2781TIP3   OH229833   1.377   5.229   0.259  0.2001  0.1155 -0.2606
 2781TIP3    H129834   1.316   5.293   0.221 -1.5661 -1.3131  0.0511
 2781TIP3    H229835   1.371   5.154   0.200  3.1031  0.5593 -1.2692
 2782TIP3   OH229836   4.413   6.635   2.989  0.1362  0.2676  0.2511
 2782TIP3    H129837   4.334   6.659   2.941  0.8129  1.0422 -0.4955
 2782TIP3    H229838   4.473   6.708   2.976  1.5384 -0.9429 -0.4474
 2783TIP3   OH229839   6.438   2.290  10.618 -0.2124  0.1652 -0.1535
 2783TIP3    H129840   6.532   2.276  10.603  0.6582  2.0158  2.7329
 2783TIP3    H229841   6.406   2.326  10.535  1.3154 -1.5352 -1.5780
 2784TIP3   OH229842   2.494   2.329   2.941 -0.3446 -0.0805  0.9351
 2784TIP3    H129843   2.426   2.300   2.880  0.2029  1.1663 -0.3352
 2784TIP3    H229844   2.470   2.289   3.024 -2.0083 -0.5743  0.2694
 2785TIP3   OH229845   4.629   5.628  12.994 -0.0939  0.1946  0.0469
 2785TIP3    H129846   4.698   5.580  12.949 -0.1198  0.6612 -0.5084
 2785TIP3    H229847   4.570   5.656  12.923 -0.0497  1.0825  0.3570
 2786TIP3   OH229848   5.501   4.659  13.714  0.5346 -0.7319  0.1192
 2786TIP3    H129849   5.500   4.634  13.806  1.0489  0.5955  0.5138
 2786TIP3    H229850   5.530   4.751  13.714 -0.7362 -0.2804 -1.2615
 2787TIP3   OH229851   2.797   3.699  13.127  0.3517  0.1672 -0.0768
 2787TIP3    H129852   2.888   3.681  13.149  0.3233 -1.0175 -0.8204
 2787TIP3    H229853   2.766   3.759  13.195  1.9350  1.3177 -0.3177
 2788TIP3   OH229854   1.714   4.370   5.128  0.0164  0.6733  0.3592
 2788TIP3    H129855   1.745   4.357   5.218 -0.7580  0.1525  0.5593
 2788TIP3    H229856   1.794   4.390   5.078  0.4819  0.7733  1.1179
 2789TIP3   OH229857   3.089   6.743   3.066  0.5425 -0.1097  0.0761
 2789TIP3    H129858   3.079   6.837   3.054 -0.6315 -0.4972 -2.5813
 2789TIP3    H229859   3.007   6.706   3.033  0.8023 -2.0794  1.4593
 2790TIP3   OH229860   3.054   6.262  13.956  0.0509  0.2221 -0.0386
 2790TIP3    H129861   2.995   6.243  14.028  1.9861 -3.3247  0.8306
 2790TIP3    H229862   3.026   6.202  13.886  1.8701 -0.6999 -0.0078
 2791TIP3   OH229863   4.809   2.916   3.770  0.2799  0.1793  0.3021
 2791TIP3    H129864   4.851   2.974   3.834  1.0699  0.8813 -0.8260
 2791TIP3    H229865   4.785   2.838   3.821  0.1789  1.0302  1.6098
 2792TIP3   OH229866   2.875   6.794  15.742  0.2644  0.4763  0.8009
 2792TIP3    H129867   2.896   6.773  15.833 -1.3801 -1.1679  0.8505
 2792TIP3    H229868   2.941   6.747  15.690 -0.5942 -1.0985  1.0803
 2793TIP3   OH229869   0.416   6.431   1.827 -1.0870  0.6517  0.1980
 2793TIP3    H129870   0.433   6.393   1.913  0.1264 -1.7673 -1.0087
 2793TIP3    H229871   0.464   6.514   1.828  1.2639 -0.5991  0.9803
 2794TIP3   OH229872   5.138   1.077   0.175  0.4434 -0.1592  0.2044
 2794TIP3    H129873   5.081   1.014   0.130  0.7395 -0.7715  0.6637
 2794TIP3    H229874   5.137   1.048   0.266 -2.6224  2.8375  1.3500
 2795TIP3   OH229875   2.779   2.478   6.519  0.3053  0.1448  0.3255
 2795TIP3    H129876   2.694   2.489   6.475  0.1455  0.1149  0.6208
 2795TIP3    H229877   2.811   2.394   6.488 -0.2104 -0.2870  0.9163
 2796TIP3   OH229878   1.177   3.408   5.120 -0.1665  0.1787  0.3963
 2796TIP3    H129879   1.104   3.469   5.114 -0.2665  0.0661  0.4717
 2796TIP3    H229880   1.252   3.463   5.144 -0.2026  0.3101  0.2074
 2797TIP3   OH229881   0.914   3.110  16.992  0.0336 -0.1425 -0.4256
 2797TIP3    H129882   0.849   3.112  17.062 -0.2732 -1.5262 -0.6321
 2797TIP3    H229883   0.862   3.107  16.912  0.3537 -0.5606 -0.6203
 2798TIP3   OH229884   5.218   0.182  11.702  0.0276  0.0507 -0.4474
 2798TIP3    H129885   5.297   0.133  11.726  0.3355  0.2260 -1.0683
 2798TIP3    H229886   5.228   0.266  11.746  0.1835  0.0654 -0.5100
 2799TIP3   OH229887   0.730   4.809   4.743  0.5854 -0.0449 -0.1628
 2799TIP3    H129888   0.813   4.784   4.703  0.8796 -0.3063  0.5993
 2799TIP3    H229889   0.753   4.873   4.811  0.2984 -0.9004  0.7743
 2800TIP3   OH229890   0.628   0.969   2.061 -0.6036  0.9129 -0.0488
 2800TIP3    H129891   0.539   0.936   2.074  0.3736 -2.2049 -0.6692
 2800TIP3    H229892   0.634   0.984   1.967  0.4347 -2.0475 -0.5439
 2801TIP3   OH229893   6.668   2.941   3.357  0.2242  0.4012 -0.0094
 2801TIP3    H129894   6.585   2.895   3.366 -0.7913  2.2836  0.7926
 2801TIP3    H229895   6.708   2.936   3.444  0.0286  1.1130  0.1332
 2802TIP3   OH229896   4.413   6.702  11.721  0.6769  0.2553 -0.1857
 2802TIP3    H129897   4.428   6.727  11.630  1.5187 -0.8090 -0.3687
 2802TIP3    H229898   4.463   6.621  11.731  1.7383  1.0685  1.5982
 2803TIP3   OH229899   3.700   3.652   6.494  0.0119 -0.4073  0.2861
 2803TIP3    H129900   3.654   3.735   6.506 -0.0815 -0.4018 -0.0995
 2803TIP3    H229901   3.670   3.620   6.409 -0.0064 -0.8728  0.4657
 2804TIP3   OH229902   5.158   2.225   2.137 -0.4711 -0.5706 -0.0087
 2804TIP3    H129903   5.236   2.219   2.083 -1.2676 -1.5795 -1.0694
 2804TIP3    H229904   5.183   2.183   2.220  0.3340 -0.2054 -0.0566
 2805TIP3   OH229905   5.603   2.767  16.999  0.8534 -0.0345 -0.0534
 2805TIP3    H129906   5.517   2.736  17.026  0.7774 -0.5067 -0.8357
 2805TIP3    H229907   5.657   2.688  16.994  0.8747  0.0462 -1.2498
 2806TIP3   OH229908   0.726   6.337   1.709 -0.2895  0.4092 -0.2261
 2806TIP3    H129909   0.755   6.422   1.742 -1.0170  0.5360  0.1147
 2806TIP3    H229910   0.776   6.324   1.628  0.2102  0.9153 -0.0052
 2807TIP3   OH229911   3.911   0.518  11.659  0.2589 -0.8712 -0.4796
 2807TIP3    H129912   3.877   0.601  11.694  0.9411 -0.6940 -0.2372
 2807TIP3    H229913   3.964   0.481  11.729  0.2044 -1.3716 -0.6966
 2808TIP3   OH229914   6.236   2.410  13.903 -0.0154 -0.3203  0.5299
 2808TIP3    H129915   6.203   2.396  13.814  0.8637 -0.8434  0.2702
 2808TIP3    H229916   6.177   2.475  13.941 -0.9103 -0.7177 -0.1447
 2809TIP3   OH229917   3.209   4.211  16.631  0.8780  0.4188  0.2489
 2809TIP3    H129918   3.303   4.227  16.643  0.7052  1.4165  0.3572
 2809TIP3    H229919   3.197   4.120  16.656  2.0296 -0.0845 -0.9729
 2810TIP3   OH229920   3.019   3.590  16.953  0.1914  0.2870  0.0078
 2810TIP3    H129921   2.955   3.629  17.012 -2.6342 -2.3982 -1.0620
 2810TIP3    H229922   3.087   3.657  16.944 -2.4838  3.3676  1.0963
 2811TIP3   OH229923   5.978   2.713   4.295 -0.1347  0.4617  0.1108
 2811TIP3    H129924   6.073   2.698   4.287 -0.0844  1.1983 -0.9131
 2811TIP3    H229925   5.948   2.722   4.205 -0.7817  2.5876  0.4899
 2812TIP3   OH229926   5.986   6.655   2.030  0.6023 -0.0104  0.3003
 2812TIP3    H129927   5.951   6.711   2.099  2.0681  1.5601 -0.1692
 2812TIP3    H229928   6.041   6.592   2.075  0.9432  0.5224  0.6238
 2813TIP3   OH229929   0.155   3.805   0.740 -0.0618 -0.7558  0.3478
 2813TIP3    H129930   0.236   3.756   0.724 -0.3967 -1.3279  0.3680
 2813TIP3    H229931   0.183   3.896   0.744  0.6907 -0.9942  1.0408
 2814TIP3   OH229932   0.634   6.072  16.707 -0.1326 -1.3888 -0.3247
 2814TIP3    H129933   0.684   6.133  16.761 -1.3583 -1.2584  0.7133
 2814TIP3    H229934   0.688   5.993  16.704  0.2126 -1.2083  0.6459
 2815TIP3   OH229935   6.559   5.977   6.315 -0.4391  0.1931 -0.1788
 2815TIP3    H129936   6.599   5.995   6.400  1.2789  0.2512 -0.9577
 2815TIP3    H229937   6.550   6.063   6.274  2.6093 -0.0609 -1.6625
 2816TIP3   OH229938   6.693   5.597   3.587 -0.0923  0.5347  0.8259
 2816TIP3    H129939   6.674   5.689   3.571  0.1163  0.5055  0.3973
 2816TIP3    H229940   6.630   5.570   3.653 -0.6334  0.7915  0.4195
 2817TIP3   OH229941   0.190   1.255  17.034  0.3101  0.1722  0.2291
 2817TIP3    H129942   0.249   1.186  17.005 -1.2089 -1.4239  0.7493
 2817TIP3    H229943   0.126   1.210  17.089 -0.3629  2.1187  1.1332
 2818TIP3   OH229944   2.285   6.805   4.010  0.4687  0.4746 -0.1977
 2818TIP3    H129945   2.213   6.743   4.022 -0.5617  1.6892  0.0561
 2818TIP3    H229946   2.244   6.885   3.979  1.9251  0.6813 -1.7273
 2819TIP3   OH229947   4.681   1.153  10.787 -0.1170 -0.1675  0.4708
 2819TIP3    H129948   4.745   1.217  10.818 -0.2686  0.6554 -0.8134
 2819TIP3    H229949   4.727   1.069  10.789 -0.2072 -0.2157  3.0856
 2820TIP3   OH229950   0.466   3.786   6.344  0.0597 -0.1416  0.0076
 2820TIP3    H129951   0.457   3.813   6.253  1.3605 -1.7226 -0.6533
 2820TIP3    H229952   0.514   3.857   6.386  2.9764 -1.0179 -1.5480
 2821TIP3   OH229953   0.263   0.533   3.139 -0.3987  0.3730  0.3925
 2821TIP3    H129954   0.241   0.451   3.094 -0.1865  1.0923 -1.0536
 2821TIP3    H229955   0.286   0.505   3.228  0.2701 -1.2053 -0.2363
 2822TIP3   OH229956   3.798   0.042  12.724 -0.0489 -0.1147  0.8074
 2822TIP3    H129957   3.800  -0.036  12.669 -2.3894  1.2708 -1.4502
 2822TIP3    H229958   3.813   0.115  12.663 -0.4885  1.3666  2.3994
 2823TIP3   OH229959   3.711   3.731  15.941  0.8855 -0.0886  0.4502
 2823TIP3    H129960   3.652   3.789  15.892 -0.7262 -2.3110 -0.4132
 2823TIP3    H229961   3.674   3.729  16.029  0.0336 -0.9221  0.0938
 2824TIP3   OH229962   1.634   2.658   0.782  0.0403  0.3496 -0.5630
 2824TIP3    H129963   1.612   2.696   0.697 -0.6284 -0.9097 -0.9826
 2824TIP3    H229964   1.718   2.613   0.767  0.3434  0.8214 -0.3215
 2825TIP3   OH229965   6.348   0.256   5.957 -0.3707  0.2109  0.3259
 2825TIP3    H129966   6.359   0.179   5.901 -0.7218  0.0824  0.4344
 2825TIP3    H229967   6.404   0.238   6.033 -0.5313  0.0161  0.3990
 2826TIP3   OH229968   0.918   0.324   1.073 -0.3442 -0.2946 -0.3870
 2826TIP3    H129969   0.890   0.238   1.043  0.5260 -1.5448  2.0758
 2826TIP3    H229970   1.011   0.329   1.050 -0.3408 -0.0932 -0.3363
 2827TIP3   OH229971   2.573   6.179  14.625 -1.0381 -0.0032 -0.0156
 2827TIP3    H129972   2.519   6.232  14.684  1.7433  0.8032  2.0181
 2827TIP3    H229973   2.622   6.122  14.684  0.4452 -0.5795 -1.7343
 2828TIP3   OH229974   1.223   1.704  12.151  0.6350 -0.0515  0.3670
 2828TIP3    H129975   1.281   1.655  12.209  1.0591  0.2404  0.1916
 2828TIP3    H229976   1.136   1.694  12.191  1.0795  1.0891  1.7067
 2829TIP3   OH229977   2.404   2.852  13.158  0.1379 -0.2685  0.7993
 2829TIP3    H129978   2.348   2.864  13.235  0.1478 -0.7110  0.8798
 2829TIP3    H229979   2.487   2.894  13.183 -0.1243  0.3193  0.7071
 2830TIP3   OH229980   3.809   6.419   2.583 -0.0050 -0.0746  0.0569
 2830TIP3    H129981   3.774   6.478   2.516 -0.4286 -0.5193 -0.1097
 2830TIP3    H229982   3.812   6.334   2.541  0.3552 -0.2295  0.3917
 2831TIP3   OH229983   2.996   6.125  16.187  0.3118 -0.5945  0.5925
 2831TIP3    H129984   2.979   6.031  16.196  0.5719 -0.5219  2.0567
 2831TIP3    H229985   3.072   6.141  16.242 -0.5773  0.7111  1.4838
 2832TIP3   OH229986   5.725   1.331   1.886 -0.2139 -0.3871  0.6304
 2832TIP3    H129987   5.703   1.258   1.829 -0.9752  0.5627 -0.3331
 2832TIP3    H229988   5.684   1.309   1.970  0.4003 -1.5049  0.6604
 2833TIP3   OH229989   6.074   6.278  15.371  0.1089  0.1526 -0.7306
 2833TIP3    H129990   5.993   6.315  15.406  0.1347 -1.3692  1.0629
 2833TIP3    H229991   6.142   6.305  15.432  0.2773 -1.8908  0.0863
 2834TIP3   OH229992   2.148   3.253  15.437  0.1605 -0.4832  0.5319
 2834TIP3    H129993   2.164   3.252  15.343  0.3580 -1.2096  0.5691
 2834TIP3    H229994   2.110   3.339  15.454 -0.3205 -0.5285 -0.2833
 2835TIP3   OH229995   1.841   3.554  12.823 -0.3760  0.0398  0.8559
 2835TIP3    H129996   1.929   3.589  12.810 -0.3989  0.2629  1.2939
 2835TIP3    H229997   1.843   3.467  12.783 -0.4647  0.7291 -0.7643
 2836TIP3   OH229998   2.558   2.533  12.696  0.1176  0.1910  0.5275
 2836TIP3    H129999   2.541   2.609  12.751 -2.4686 -0.4661  0.7511
 2836TIP3    H230000   2.546   2.458  12.754 -1.3629 -0.4719 -0.5526
 2837TIP3   OH230001   6.542   1.799   1.988  0.1764  0.3504  0.3614
 2837TIP3    H130002   6.557   1.706   1.975 -1.8214  0.1486 -0.7735
 2837TIP3    H230003   6.560   1.839   1.903  0.0918  0.8884  0.5882
 2838TIP3   OH230004   0.959   5.829  12.563  0.2623  0.4179 -0.4406
 2838TIP3    H130005   0.905   5.787  12.496  0.5717  2.5173 -2.1010
 2838TIP3    H230006   0.905   5.900  12.597  0.7890  0.5288  0.1900
 2839TIP3   OH230007   5.316   5.666  13.939  0.0012 -0.3677 -0.2227
 2839TIP3    H130008   5.231   5.693  13.975  0.5972  2.2271 -0.5985
 2839TIP3    H230009   5.369   5.645  14.016 -0.1711  0.6217  0.1782
 2840TIP3   OH230010   1.069   5.961   1.468  0.6027 -0.2933 -0.1074
 2840TIP3    H130011   1.087   5.933   1.557  1.4228 -1.5663 -0.6524
 2840TIP3    H230012   1.110   6.047   1.461  0.3204 -0.0780  0.8019
 2841TIP3   OH230013   0.084   1.256   0.969  0.4457  0.1552 -0.4391
 2841TIP3    H130014  -0.001   1.254   1.012  1.6061 -0.3794  2.0246
 2841TIP3    H230015   0.083   1.182   0.909 -0.2622 -0.8607  0.7929
 2842TIP3   OH230016   1.540   1.326  13.342 -0.4118 -0.0193 -0.3347
 2842TIP3    H130017   1.557   1.237  13.311  0.4647  0.3108 -0.8444
 2842TIP3    H230018   1.612   1.345  13.402  0.2124  0.8470 -1.3237
 2843TIP3   OH230019   5.354   2.561  12.484  0.0286 -0.3653  0.3108
 2843TIP3    H130020   5.427   2.533  12.540  2.3059  2.5295 -0.9156
 2843TIP3    H230021   5.382   2.645  12.449 -3.7905  0.7085 -0.6501
 2844TIP3   OH230022   5.073   5.392  10.996  0.1739 -0.4342  0.4145
 2844TIP3    H130023   5.103   5.304  10.973 -0.1775 -0.3861 -0.2414
 2844TIP3    H230024   5.039   5.428  10.915 -0.1118  0.1418  0.7819
 2845TIP3   OH230025   1.604   0.036   4.419 -0.2849  0.3085  0.7089
 2845TIP3    H130026   1.512   0.012   4.428 -0.7733 -0.8650 -4.3699
 2845TIP3    H230027   1.653  -0.044   4.440 -0.7486 -0.2730 -0.3763
 2846TIP3   OH230028   4.352   3.605   4.887  0.3052 -0.0701 -0.5949
 2846TIP3    H130029   4.346   3.510   4.874 -1.8822 -0.0531 -0.0885
 2846TIP3    H230030   4.436   3.629   4.849  1.0767 -2.2575 -0.4315
 2847TIP3   OH230031   2.693   5.779   6.237  0.5047 -0.1282 -0.0217
 2847TIP3    H130032   2.657   5.868   6.240 -2.0736 -1.0270 -1.1712
 2847TIP3    H230033   2.746   5.778   6.158  0.0367  0.2372 -0.3517
 2848TIP3   OH230034   3.387   6.223  13.346 -0.2191  0.0663  0.0893
 2848TIP3    H130035   3.367   6.129  13.354 -0.1511 -0.1920 -2.0367
 2848TIP3    H230036   3.309   6.267  13.380  0.4059 -0.6876  2.6738
 2849TIP3   OH230037   1.928   0.433   4.898  0.1107 -0.2987  0.3466
 2849TIP3    H130038   1.839   0.415   4.927  0.5686 -0.5322  1.6530
 2849TIP3    H230039   1.956   0.352   4.856 -1.1118  0.5523 -2.3310
 2850TIP3   OH230040   0.409   0.076   6.239  0.7403  0.2449  0.1859
 2850TIP3    H130041   0.364   0.160   6.225  1.3345  0.6037  0.4023
 2850TIP3    H230042   0.351   0.028   6.297  0.6908  0.7575  0.5685
 2851TIP3   OH230043   1.695   4.733  15.532  0.1744 -0.4514  0.2080
 2851TIP3    H130044   1.784   4.698  15.538  0.5485  0.3941 -0.2919
 2851TIP3    H230045   1.691   4.799  15.602 -0.2458 -0.8800  0.5924
 2852TIP3   OH230046   4.262   4.828   0.865 -0.0724 -0.1797  0.3991
 2852TIP3    H130047   4.223   4.773   0.797 -0.7954  1.9019 -0.9818
 2852TIP3    H230048   4.341   4.864   0.825 -1.3881  2.4143 -0.1174
 2853TIP3   OH230049   0.120   2.051  16.287  0.0313 -0.6531 -0.0345
 2853TIP3    H130050   0.056   2.022  16.222  0.1143 -0.4213 -0.2224
 2853TIP3    H230051   0.202   2.011  16.258  0.7507  1.8735 -1.8764
 2854TIP3   OH230052   3.989   4.430  14.169 -0.0106 -0.1432  0.2867
 2854TIP3    H130053   3.984   4.515  14.213 -0.3039  1.2168 -2.1907
 2854TIP3    H230054   4.057   4.441  14.102 -0.3695 -1.7050 -0.3894
 2855TIP3   OH230055   1.527   4.085  16.861  0.0629  0.7358 -0.6421
 2855TIP3    H130056   1.582   4.022  16.816 -1.1269 -0.9575  0.1578
 2855TIP3    H230057   1.580   4.117  16.934  0.2660 -0.2534 -0.3534
 2856TIP3   OH230058   3.388   1.629  11.993 -0.2388 -0.1668  1.0387
 2856TIP3    H130059   3.417   1.609  11.903 -0.0467  1.3459  0.7415
 2856TIP3    H230060   3.295   1.608  11.993 -0.5212  0.9438  0.1013
 2857TIP3   OH230061   5.110   4.863   0.749  0.5118 -0.0647  0.4374
 2857TIP3    H130062   5.058   4.938   0.722 -0.5333 -0.9900 -0.2382
 2857TIP3    H230063   5.200   4.895   0.751 -0.0583  1.6224  1.7982
 2858TIP3   OH230064   2.177   1.598   1.424  0.6699  0.1042  0.3982
 2858TIP3    H130065   2.099   1.593   1.478  2.3087  2.8915  3.3072
 2858TIP3    H230066   2.147   1.633   1.341 -1.2013  0.8925  1.3656
 2859TIP3   OH230067   5.395   0.556   0.277  0.5939 -0.0839 -0.3273
 2859TIP3    H130068   5.432   0.498   0.344  1.2687  0.6405 -0.0565
 2859TIP3    H230069   5.306   0.572   0.306  0.2459 -1.3448 -0.6453
 2860TIP3   OH230070   2.651   4.463  16.753 -0.2080 -0.0187 -0.3261
 2860TIP3    H130071   2.586   4.533  16.738  0.3168  0.1371 -2.0697
 2860TIP3    H230072   2.613   4.386  16.711  0.8847  0.1780 -1.7545
 2861TIP3   OH230073   4.489   4.298   4.190 -0.5288  0.6017  0.4625
 2861TIP3    H130074   4.476   4.392   4.175 -1.3223  0.5468  0.7345
 2861TIP3    H230075   4.410   4.257   4.155  0.2650 -0.0754 -0.5916
 2862TIP3   OH230076   2.434   2.255  12.692 -0.3941 -0.6944 -0.2522
 2862TIP3    H130077   2.498   2.256  12.621  0.3881 -3.9413  0.2425
 2862TIP3    H230078   2.349   2.249  12.648 -0.2930  1.5351 -0.8775
 2863TIP3   OH230079   6.539   1.149  14.864  0.5622 -0.1347  0.0472
 2863TIP3    H130080   6.598   1.202  14.810 -0.8366  0.3330 -1.0870
 2863TIP3    H230081   6.571   1.059  14.852  1.4670  0.1790  0.0258
 2864TIP3   OH230082   1.885   5.930  16.901 -0.2455  0.5292 -0.0970
 2864TIP3    H130083   1.935   5.881  16.967 -1.8906  0.1249  0.9225
 2864TIP3    H230084   1.852   5.863  16.842 -3.5606  0.0626  2.0150
 2865TIP3   OH230085   5.655   4.551  13.506 -0.2149  0.0001 -0.0109
 2865TIP3    H130086   5.616   4.587  13.586  0.7321 -0.6537  0.7878
 2865TIP3    H230087   5.637   4.457  13.512 -0.3101 -0.0263 -0.6771
 2866TIP3   OH230088   1.662   5.977   5.550  0.1497 -0.1389 -0.0291
 2866TIP3    H130089   1.666   6.005   5.642 -0.0571  1.3412 -0.4398
 2866TIP3    H230090   1.682   5.884   5.552  0.4392 -0.0663  1.4888
 2867TIP3   OH230091   5.090   5.399  16.179 -0.2383  0.2317  0.6579
 2867TIP3    H130092   5.007   5.443  16.196 -1.1605 -0.8585 -0.7637
 2867TIP3    H230093   5.111   5.355  16.261 -0.4366  1.4483  1.3970
 2868TIP3   OH230094   2.046   6.059  13.915 -0.4905 -0.0002  0.2370
 2868TIP3    H130095   2.028   5.993  13.849 -1.8936  0.3485  0.2483
 2868TIP3    H230096   1.960   6.093  13.939  0.1139  0.9131  1.1739
 2869TIP3   OH230097   3.533   1.333  12.395  0.4387  0.5583 -0.1257
 2869TIP3    H130098   3.551   1.382  12.315  1.2521  0.8441  0.2212
 2869TIP3    H230099   3.602   1.267  12.400 -0.3671 -0.3205 -0.3315
 2870TIP3   OH230100   4.819   0.776   4.026  0.0549  0.3619  0.5591
 2870TIP3    H130101   4.868   0.696   4.006  2.2322  1.1028  2.4791
 2870TIP3    H230102   4.730   0.746   4.044  0.2685 -1.3228 -0.9819
 2871TIP3   OH230103   5.467   6.223  13.488  0.0594 -0.4042  0.5650
 2871TIP3    H130104   5.451   6.271  13.407 -0.5775  0.2631  1.0844
 2871TIP3    H230105   5.385   6.175  13.504 -1.3108  2.4027  2.8014
 2872TIP3   OH230106   3.375   2.675   1.924 -0.5334 -0.3955  0.6755
 2872TIP3    H130107   3.331   2.714   1.848  1.8063  0.8028 -0.1983
 2872TIP3    H230108   3.458   2.643   1.889  0.4176 -0.2269  2.6474
 2873TIP3   OH230109   1.684   0.425   1.256  0.3222  0.0322 -0.8234
 2873TIP3    H130110   1.682   0.472   1.339  1.9077 -1.2120 -0.0123
 2873TIP3    H230111   1.691   0.332   1.281  0.6242 -0.3916 -2.3293
 2874TIP3   OH230112   1.444   3.948   2.730 -0.5362  0.1701  0.3091
 2874TIP3    H130113   1.462   3.978   2.819  0.6959 -1.3177  0.5901
 2874TIP3    H230114   1.477   4.019   2.675  4.0576 -1.1883  0.8948
 2875TIP3   OH230115   3.869   2.093   4.864  0.5073  0.2571 -0.4744
 2875TIP3    H130116   3.875   2.021   4.927  1.1475  2.4547  2.1523
 2875TIP3    H230117   3.807   2.062   4.797  0.0820 -2.3489  1.0154
 2876TIP3   OH230118   5.612   5.453   5.292 -0.2332 -0.1618 -0.9065
 2876TIP3    H130119   5.630   5.371   5.246 -0.0922  0.4486 -1.9962
 2876TIP3    H230120   5.686   5.463   5.352 -0.2752 -0.8453 -0.7288
 2877TIP3   OH230121   3.583   3.740  13.352  0.2144 -0.0121  0.6059
 2877TIP3    H130122   3.590   3.836  13.355  0.1142  0.0001  0.4464
 2877TIP3    H230123   3.651   3.710  13.412  1.4792  0.1161 -0.7068
 2878TIP3   OH230124   4.777   0.587   1.891 -0.4445 -0.0413  0.3187
 2878TIP3    H130125   4.798   0.674   1.923 -2.3930  0.2846  0.8391
 2878TIP3    H230126   4.689   0.569   1.926 -1.1316 -1.1746 -1.8321
 2879TIP3   OH230127   0.065   3.321   1.360  1.0756  0.0185 -0.0219
 2879TIP3    H130128   0.102   3.280   1.281 -0.0278 -0.0975 -0.5080
 2879TIP3    H230129   0.047   3.411   1.333 -1.1542 -0.5346 -0.5816
 2880TIP3   OH230130   3.652   1.989   4.707 -0.1250 -0.1302  0.1919
 2880TIP3    H130131   3.641   1.964   4.799 -0.4268  1.0473  0.4845
 2880TIP3    H230132   3.571   1.959   4.665 -0.9633  1.2498  0.7527
 2881TIP3   OH230133   0.796   3.349   3.306 -0.6456 -0.1850  0.2291
 2881TIP3    H130134   0.765   3.275   3.253 -0.6714 -0.9856  1.3117
 2881TIP3    H230135   0.871   3.314   3.354 -0.6202  0.5129  0.7138
 2882TIP3   OH230136   4.391   3.182  15.681  0.5417 -0.5617  0.2821
 2882TIP3    H130137   4.480   3.173  15.716 -0.5269 -0.4612  3.2822
 2882TIP3    H230138   4.340   3.117  15.729 -1.2642  0.2526 -0.4452
 2883TIP3   OH230139   4.709   4.961   5.626  0.4319  0.4257 -0.3750
 2883TIP3    H130140   4.658   4.880   5.635  1.0224  0.0374 -0.5275
 2883TIP3    H230141   4.682   4.997   5.541  2.9368 -1.5810 -2.1395
 2884TIP3   OH230142   2.647   5.752  13.706 -0.0351 -0.2334 -0.1399
 2884TIP3    H130143   2.611   5.695  13.774  0.9470 -2.3128 -1.2510
 2884TIP3    H230144   2.740   5.731  13.704 -0.0302 -0.2424 -2.0839
 2885TIP3   OH230145   3.043   6.640  17.276 -0.3546 -0.3120 -0.0398
 2885TIP3    H130146   2.971   6.577  17.278 -0.2135 -0.5042 -0.7830
 2885TIP3    H230147   3.093   6.618  17.198  0.0888  0.2923  0.0609
 2886TIP3   OH230148   5.842   2.364   5.435 -0.7351  0.1497  0.7891
 2886TIP3    H130149   5.787   2.431   5.474  0.2296  0.7429  1.1404
 2886TIP3    H230150   5.932   2.395   5.446 -0.3918  0.7089 -2.4754
 2887TIP3   OH230151   5.199   0.175   5.916 -0.0236 -0.4418 -0.2910
 2887TIP3    H130152   5.236   0.087   5.919 -0.9829 -0.8243  1.4691
 2887TIP3    H230153   5.122   0.171   5.972 -0.3495  1.4156 -0.5437
 2888TIP3   OH230154   6.203   2.370   3.353  0.0317 -0.2173 -0.1369
 2888TIP3    H130155   6.148   2.443   3.326 -0.0156 -0.0690  0.3534
 2888TIP3    H230156   6.141   2.302   3.380  0.0651 -0.6038 -0.9860
 2889TIP3   OH230157   1.803   0.216   0.039 -0.2289  0.5901 -0.1185
 2889TIP3    H130158   1.714   0.249   0.030  0.0353  0.6877 -3.4250
 2889TIP3    H230159   1.828   0.189  -0.049  2.3415 -1.3069  1.0600
 2890TIP3   OH230160   4.363   3.361   4.443  0.0922 -0.7713  0.6160
 2890TIP3    H130161   4.409   3.444   4.458 -0.2813 -0.4208 -0.1105
 2890TIP3    H230162   4.432   3.294   4.447  0.5381 -0.3338  0.3185
 2891TIP3   OH230163   6.431   4.217   5.159  0.0410  0.0642 -0.3146
 2891TIP3    H130164   6.521   4.248   5.151  0.6861 -2.1780 -3.0421
 2891TIP3    H230165   6.391   4.236   5.075 -1.0215 -1.8356 -0.2959
 2892TIP3   OH230166   6.408   1.529  11.500 -0.2812 -0.0209 -0.2668
 2892TIP3    H130167   6.425   1.612  11.545 -2.7102 -0.0006  0.7500
 2892TIP3    H230168   6.493   1.505  11.463  1.7192  0.4475  3.4951
 2893TIP3   OH230169   5.333   4.279  14.013 -0.4199 -0.5021  0.3659
 2893TIP3    H130170   5.402   4.256  14.074 -0.8020  0.7051  1.2791
 2893TIP3    H230171   5.368   4.254  13.927  0.6830 -0.9226  0.9181
 2894TIP3   OH230172   1.459   1.821   0.197 -0.1951  0.1130 -0.1438
 2894TIP3    H130173   1.449   1.913   0.221  1.1872  0.5290 -1.0856
 2894TIP3    H230174   1.369   1.789   0.188 -0.7026  1.1904  0.8034
 2895TIP3   OH230175   4.778   3.324  13.643 -0.0254 -0.9179 -0.6111
 2895TIP3    H130176   4.774   3.411  13.603  0.5320 -1.4053 -1.7448
 2895TIP3    H230177   4.842   3.333  13.714 -1.1590 -0.0054  0.3343
 2896TIP3   OH230178   3.780   5.619  14.545  0.1210  0.1876 -0.0439
 2896TIP3    H130179   3.782   5.606  14.640  1.6651  0.9387  0.0533
 2896TIP3    H230180   3.811   5.536  14.509  1.5220  0.5774  0.2153
 2897TIP3   OH230181   4.785   1.597   0.538 -0.0516  0.2723 -0.0890
 2897TIP3    H130182   4.867   1.617   0.491 -0.9877  1.6449 -1.2372
 2897TIP3    H230183   4.723   1.576   0.468 -1.0951  0.8358  0.6548
 2898TIP3   OH230184   1.974   2.610  17.234 -0.2022 -0.3093 -0.2746
 2898TIP3    H130185   1.962   2.677  17.166 -1.1609 -0.0253  0.1562
 2898TIP3    H230186   2.053   2.563  17.208 -2.1218 -2.2396 -3.2956
 2899TIP3   OH230187   2.992   0.239  14.586  0.4023 -0.2028 -0.0578
 2899TIP3    H130188   2.987   0.288  14.668  1.1068 -0.9083  0.4160
 2899TIP3    H230189   2.923   0.277  14.532  1.6710  2.1520 -0.1692
 2900TIP3   OH230190   4.448   4.645  13.040  0.2355 -0.1265 -0.1703
 2900TIP3    H130191   4.391   4.599  12.979  0.4464 -1.0470  0.3035
 2900TIP3    H230192   4.486   4.576  13.094  0.5254  0.6144  0.6023
 2901TIP3   OH230193   3.030   6.331  12.521 -0.1461  0.2821 -0.2987
 2901TIP3    H130194   3.009   6.246  12.559  0.1794  0.4546  0.2784
 2901TIP3    H230195   3.076   6.310  12.439  1.2415 -0.1181  0.5483
 2902TIP3   OH230196   5.002   0.823   2.669  0.0849 -0.3550 -0.0723
 2902TIP3    H130197   4.933   0.889   2.658 -0.1121 -0.2101  1.6696
 2902TIP3    H230198   5.041   0.844   2.754  1.3355 -1.3046 -0.3903
 2903TIP3   OH230199   2.835   6.222   0.774 -0.4273  0.4823  0.3819
 2903TIP3    H130200   2.785   6.232   0.693  1.1891 -0.4514 -0.7823
 2903TIP3    H230201   2.885   6.303   0.782  1.7440 -0.5663 -1.2993
 2904TIP3   OH230202   4.156   2.445   5.692  0.4494  0.7043 -0.2105
 2904TIP3    H130203   4.169   2.512   5.759  1.1149  0.4330 -0.0657
 2904TIP3    H230204   4.143   2.364   5.741  2.9708  0.1228 -0.3993
 2905TIP3   OH230205   1.619   0.459   3.361  0.0445 -0.6322  0.1597
 2905TIP3    H130206   1.658   0.376   3.390  1.8362  0.0352 -0.2002
 2905TIP3    H230207   1.557   0.482   3.429  1.2311 -1.1206  1.4544
 2906TIP3   OH230208   0.625   2.040   3.961 -0.1329 -0.3475  0.4224
 2906TIP3    H130209   0.533   2.059   3.978 -0.2851 -2.1035  1.8525
 2906TIP3    H230210   0.663   2.022   4.047  0.9647 -1.9859 -0.3503
 2907TIP3   OH230211   4.986   1.190   4.888 -0.2842  0.1880 -0.1822
 2907TIP3    H130212   4.979   1.114   4.945  1.4934  0.5621  0.6200
 2907TIP3    H230213   4.899   1.200   4.850 -0.6699 -1.9876 -0.0028
 2908TIP3   OH230214   4.789   0.931  16.937 -0.1296 -0.1896 -0.9882
 2908TIP3    H130215   4.763   0.850  16.892 -0.2881 -1.2416  0.8667
 2908TIP3    H230216   4.721   0.945  17.003 -0.7638  2.1917 -2.0554
 2909TIP3   OH230217   3.452   1.797   1.724  0.1131  0.3595  0.1433
 2909TIP3    H130218   3.526   1.791   1.785  0.7180 -1.1434 -0.6915
 2909TIP3    H230219   3.399   1.719   1.744 -1.2993  1.4323  0.7531
 2910TIP3   OH230220   0.024   6.602  15.607  0.1864 -0.3339  0.0701
 2910TIP3    H130221   0.096   6.654  15.571  0.9001 -1.3458 -0.0059
 2910TIP3    H230222  -0.046   6.665  15.621  0.6846  0.4817 -0.9421
 2911TIP3   OH230223   0.113   0.931   6.341 -0.4866 -1.0746  0.3639
 2911TIP3    H130224   0.107   0.836   6.328  1.9487 -1.3994  1.1917
 2911TIP3    H230225   0.099   0.942   6.435  0.3924 -0.7335  0.4537
 2912TIP3   OH230226   3.543   1.925  14.904  0.3778 -0.3309  0.0080
 2912TIP3    H130227   3.619   1.909  14.960  0.5866  1.0516  0.1467
 2912TIP3    H230228   3.493   1.992  14.951 -0.1932 -0.2058 -0.7636
 2913TIP3   OH230229   0.273   0.637  17.039  0.4196  0.0979  0.2208
 2913TIP3    H130230   0.284   0.641  16.944  0.3020 -0.7080  0.1686
 2913TIP3    H230231   0.359   0.661  17.074  0.3687  0.7499 -0.0719
 2914TIP3   OH230232   5.796   3.572   0.119 -0.4345 -0.2856  0.3021
 2914TIP3    H130233   5.756   3.603   0.038 -0.4555  0.6108  0.6526
 2914TIP3    H230234   5.873   3.523   0.090 -0.5981 -0.2098 -0.2709
 2915TIP3   OH230235   1.352   4.228  13.383  0.7649  0.0382 -0.3231
 2915TIP3    H130236   1.362   4.299  13.447  2.1954  0.3963 -0.9000
 2915TIP3    H230237   1.381   4.149  13.430  1.6201  0.2663 -0.4604
 2916TIP3   OH230238   2.978   1.990   5.555  0.7110 -0.0873 -0.1757
 2916TIP3    H130239   3.056   2.046   5.553  0.5155  0.1560 -1.4283
 2916TIP3    H230240   3.008   1.911   5.601  2.3170 -0.8455 -2.3202
 2917TIP3   OH230241   2.989   5.136   1.828  0.0382 -0.2120 -0.6166
 2917TIP3    H130242   2.999   5.043   1.807 -0.0188 -0.0724 -1.2921
 2917TIP3    H230243   2.896   5.146   1.846  0.4936 -0.9361  2.8223
 2918TIP3   OH230244   3.755   4.362   2.102  0.0475 -0.2900  0.2156
 2918TIP3    H130245   3.825   4.379   2.039 -1.7108  0.4205 -1.6385
 2918TIP3    H230246   3.725   4.449   2.128  1.2701 -0.5264  2.7982
 2919TIP3   OH230247   2.614   3.718  14.333 -0.0263  0.2313  0.0731
 2919TIP3    H130248   2.639   3.734  14.424  2.5251  1.2495 -0.7306
 2919TIP3    H230249   2.640   3.627  14.317 -0.0826  0.1900  0.2101
 2920TIP3   OH230250   3.685   2.803  14.473  0.5783 -0.3730  0.2057
 2920TIP3    H130251   3.617   2.789  14.407 -0.5882  0.1179  1.2564
 2920TIP3    H230252   3.685   2.898  14.488  0.8561 -0.4677  0.8523
 2921TIP3   OH230253   5.250   3.624   0.876  0.2936 -0.2384  0.1460
 2921TIP3    H130254   5.293   3.540   0.894 -0.6952 -0.6362  0.7106
 2921TIP3    H230255   5.187   3.634   0.948 -0.8983  0.0964 -0.9122
 2922TIP3   OH230256   6.276   2.514  13.209  0.3024  0.2832  0.1223
 2922TIP3    H130257   6.230   2.530  13.292  0.0840  0.0172  0.0577
 2922TIP3    H230258   6.242   2.429  13.180 -1.8904  1.6548 -1.7169
 2923TIP3   OH230259   6.490   2.451   2.196  0.3580 -0.8319  0.5092
 2923TIP3    H130260   6.418   2.398   2.160 -0.0174 -2.1680  2.9628
 2923TIP3    H230261   6.448   2.532   2.225  0.7223  0.4151 -2.1321
 2924TIP3   OH230262   5.788   0.702  16.812  0.2566 -0.7167  0.1482
 2924TIP3    H130263   5.712   0.743  16.769  2.3029  1.2192 -1.8660
 2924TIP3    H230264   5.780   0.609  16.790 -2.1039 -0.7749  0.9742
 2925TIP3   OH230265   3.175   3.182  16.748 -0.3923  0.3465 -0.3616
 2925TIP3    H130266   3.250   3.122  16.744 -1.7609 -1.3796 -2.1802
 2925TIP3    H230267   3.180   3.220  16.836  1.2108 -1.5830  0.4736
 2926TIP3   OH230268   4.743   5.485  15.471  0.2075  0.3762 -0.2638
 2926TIP3    H130269   4.694   5.549  15.420  1.1775  0.9656 -0.4755
 2926TIP3    H230270   4.819   5.533  15.504  0.3822 -0.3883  0.4832
 2927TIP3   OH230271   1.335   2.561  16.418 -0.4721  0.0056 -0.3321
 2927TIP3    H130272   1.356   2.543  16.510 -0.2560  0.3287 -0.3180
 2927TIP3    H230273   1.312   2.654  16.416 -0.7951 -0.0766 -0.5483
 2928TIP3   OH230274   0.206   1.682   1.827 -0.0802 -0.3194  0.0288
 2928TIP3    H130275   0.168   1.760   1.786 -3.4530 -1.6396  0.3538
 2928TIP3    H230276   0.256   1.716   1.901 -0.2603  1.5867 -0.6680
 2929TIP3   OH230277   0.105   2.693  15.189 -0.1286  0.8136  0.2738
 2929TIP3    H130278   0.028   2.659  15.144 -0.6414  1.7479  0.4129
 2929TIP3    H230279   0.173   2.696  15.121 -0.1456 -0.1992  0.1987
 2930TIP3   OH230280   1.108   4.629   5.683  0.6046 -0.2951 -0.1166
 2930TIP3    H130281   1.196   4.616   5.719  0.9763 -0.7314 -1.1599
 2930TIP3    H230282   1.110   4.586   5.598  0.0587  1.5536 -1.1250
 2931TIP3   OH230283   2.447   4.525   3.393 -0.3089  0.0060  0.0070
 2931TIP3    H130284   2.430   4.480   3.476 -0.7617 -1.3043 -0.7552
 2931TIP3    H230285   2.541   4.543   3.394 -0.1922 -0.5784  0.5316
 2932TIP3   OH230286   3.845   1.925   3.434 -0.5558  0.3269  0.4985
 2932TIP3    H130287   3.852   1.838   3.395 -2.4651  0.0211  0.7260
 2932TIP3    H230288   3.925   1.936   3.485  1.2551  0.0733 -2.0960
 2933TIP3   OH230289   0.760   1.145  15.375 -0.7311  0.2845 -0.2317
 2933TIP3    H130290   0.681   1.094  15.395 -2.0345  0.5677 -3.8901
 2933TIP3    H230291   0.730   1.214  15.317  2.2447  0.1806 -2.1014
 2934TIP3   OH230292   5.251   6.708   1.082  0.2282  0.1023 -0.0791
 2934TIP3    H130293   5.261   6.683   1.174 -1.2769 -0.4740 -0.0337
 2934TIP3    H230294   5.198   6.788   1.085  1.5841  1.0407 -0.4003
 2935TIP3   OH230295   3.890   2.600  17.172  0.2660  0.1251  0.0371
 2935TIP3    H130296   3.960   2.575  17.111  2.0868  2.5098  0.9951
 2935TIP3    H230297   3.918   2.684  17.207 -2.7209  0.7604  1.1489
 2936TIP3   OH230298   6.227   3.489  16.891 -0.4238 -0.0115  0.0644
 2936TIP3    H130299   6.228   3.453  16.802  0.5106 -1.6545  0.6778
 2936TIP3    H230300   6.154   3.444  16.934  0.3175 -0.6801  0.6494
 2937TIP3   OH230301   3.106   3.215  15.810  0.5940  0.6860 -0.0331
 2937TIP3    H130302   3.049   3.158  15.758  0.3070  0.0191  0.9879
 2937TIP3    H230303   3.195   3.188  15.787  0.4596 -0.6346  0.9004
 2938TIP3   OH230304   2.936   5.370   2.055  0.2003  0.2495 -0.2049
 2938TIP3    H130305   2.940   5.336   1.965 -1.2413 -1.7975  0.4195
 2938TIP3    H230306   3.020   5.415   2.067  1.3600 -1.2802 -1.8831
 2939TIP3   OH230307   3.473   6.433   6.613  0.0885  0.4252  0.7472
 2939TIP3    H130308   3.524   6.352   6.616 -2.2479 -1.1595  0.8214
 2939TIP3    H230309   3.520   6.489   6.551  0.7047 -1.8106 -0.9400
 2940TIP3   OH230310   6.175   4.545  12.621 -1.2953 -0.1765  0.5052
 2940TIP3    H130311   6.177   4.568  12.528  2.5576  2.4069  0.9873
 2940TIP3    H230312   6.228   4.467  12.628  0.7082  1.1385  0.7105
 2941TIP3   OH230313   4.881   4.783  15.774 -0.4679 -0.2989 -0.0206
 2941TIP3    H130314   4.811   4.721  15.797 -0.2125 -0.1098  1.3404
 2941TIP3    H230315   4.937   4.734  15.714 -0.5230 -1.2410  0.6722
 2942TIP3   OH230316   5.540   4.951  14.081 -0.0082  0.0412 -0.1064
 2942TIP3    H130317   5.577   5.031  14.045 -1.0614  0.8226  0.5040
 2942TIP3    H230318   5.617   4.901  14.110  0.9614 -0.9008 -3.8054
 2943TIP3   OH230319   4.722   2.890  14.413  0.7110 -0.0998 -0.3203
 2943TIP3    H130320   4.700   2.838  14.336 -0.6434 -0.3509  0.2201
 2943TIP3    H230321   4.733   2.979  14.380  2.4490 -0.5777 -1.1525
 2944TIP3   OH230322   5.659   1.021  12.586  0.3563  0.0206  0.3490
 2944TIP3    H130323   5.744   1.007  12.545  0.3571  2.4763 -0.6044
 2944TIP3    H230324   5.670   0.988  12.676  1.6804 -1.4461 -0.3014
 2945TIP3   OH230325   3.030   2.505  16.923  0.1219 -0.8533 -0.7009
 2945TIP3    H130326   3.108   2.493  16.978  0.3743  1.2278 -0.5444
 2945TIP3    H230327   3.061   2.556  16.849 -1.3908  1.6303  0.2658
 2946TIP3   OH230328   5.422   6.142  17.297  0.3578  0.2466  0.1722
 2946TIP3    H130329   5.423   6.214  17.360  0.3793  2.5602 -2.2941
 2946TIP3    H230330   5.507   6.147  17.254  0.6930 -1.8518  0.4869
 2947TIP3   OH230331   1.489   3.502  11.744 -0.0993 -0.1308 -0.2716
 2947TIP3    H130332   1.431   3.484  11.670 -0.0202 -2.4299  0.1627
 2947TIP3    H230333   1.459   3.586  11.777 -0.0039  1.0790 -2.9959
 2948TIP3   OH230334   5.303   5.385   1.731  0.3681 -0.5416  0.0611
 2948TIP3    H130335   5.215   5.368   1.699  0.2102 -1.8989  1.1112
 2948TIP3    H230336   5.300   5.360   1.824  1.8538 -0.6376  0.1120
 2949TIP3   OH230337   0.479   6.796  11.334 -0.4988 -0.4760  0.3434
 2949TIP3    H130338   0.411   6.729  11.339 -1.8153  0.8399  1.2335
 2949TIP3    H230339   0.527   6.787  11.416 -0.1284 -0.8862  0.0791
 2950TIP3   OH230340   6.164   1.245  12.445 -0.2983 -0.2253  0.1847
 2950TIP3    H130341   6.171   1.154  12.473  0.0783  0.3438  2.1041
 2950TIP3    H230342   6.243   1.287  12.480 -1.6855  1.3550  1.6001
 2951TIP3   OH230343   6.432   0.203   0.602  0.2333  0.8097 -0.2777
 2951TIP3    H130344   6.349   0.250   0.605  0.5923  1.8920 -3.6462
 2951TIP3    H230345   6.493   0.260   0.651 -0.1860  2.0122 -1.1031
 2952TIP3   OH230346   2.307   4.749  15.546 -0.1147  0.3467  0.1916
 2952TIP3    H130347   2.300   4.841  15.570 -2.5313  0.6922 -1.4326
 2952TIP3    H230348   2.240   4.737  15.479 -1.6001 -3.1512  2.0455
 2953TIP3   OH230349   4.537   2.378   5.789 -0.1751  0.0096 -0.0944
 2953TIP3    H130350   4.524   2.403   5.698 -0.5738 -0.8516 -0.2754
 2953TIP3    H230351   4.631   2.360   5.797 -0.2746 -0.7243 -0.5420
 2954TIP3   OH230352   4.065   3.178   0.783 -0.4555  0.1781  0.0506
 2954TIP3    H130353   4.011   3.256   0.793 -0.5337  0.6032 -2.7120
 2954TIP3    H230354   4.149   3.202   0.821 -1.0432  0.9101  0.9212
 2955TIP3   OH230355   4.284   4.979  15.051 -0.5481  0.4225 -0.0079
 2955TIP3    H130356   4.198   5.015  15.032  0.2253  1.9856 -0.6802
 2955TIP3    H230357   4.321   5.038  15.116 -0.2179 -0.6208  0.7858
 2956TIP3   OH230358   3.750   3.596   0.787  0.3677  0.1147  0.1032
 2956TIP3    H130359   3.659   3.569   0.778  0.6324 -0.4765 -0.9683
 2956TIP3    H230360   3.754   3.680   0.741  0.2697  0.3660  0.5484
 2957TIP3   OH230361   2.449   1.771  15.280  0.2509  0.0737 -0.0692
 2957TIP3    H130362   2.509   1.846  15.274  0.7149 -0.3828 -1.5748
 2957TIP3    H230363   2.499   1.698  15.244 -0.0426 -1.0812  1.7797
 2958TIP3   OH230364   2.577   5.100  10.922 -0.0730 -0.0831  0.1723
 2958TIP3    H130365   2.528   5.067  10.847 -0.8188 -0.3914  0.7820
 2958TIP3    H230366   2.560   5.194  10.922  0.8359  0.1062 -0.6813
 2959TIP3   OH230367   4.345   2.825   0.631  0.2376 -0.0377  0.1141
 2959TIP3    H130368   4.339   2.748   0.573  3.1960 -0.4849  0.2243
 2959TIP3    H230369   4.408   2.882   0.587  1.1306  0.4628  1.9643
 2960TIP3   OH230370   1.080   4.972   5.072 -0.1810 -0.2015 -0.0476
 2960TIP3    H130371   1.025   5.047   5.095 -0.5993  0.9129 -3.8924
 2960TIP3    H230372   1.021   4.910   5.031  0.7953 -0.7753 -0.6365
 2961TIP3   OH230373   5.887   6.656  13.232 -0.8473  0.4478 -0.0482
 2961TIP3    H130374   5.853   6.571  13.205 -1.8913  0.9961 -0.4946
 2961TIP3    H230375   5.825   6.720  13.196 -0.0248  1.4074  0.1839
 2962TIP3   OH230376   3.762   6.344  13.493  0.3876  0.2057 -0.1684
 2962TIP3    H130377   3.750   6.435  13.467 -1.6589  0.1107  0.2750
 2962TIP3    H230378   3.829   6.347  13.562 -0.0849  1.4431  0.2635
 2963TIP3   OH230379   4.905   3.161  12.101  0.7036 -0.1595  0.8097
 2963TIP3    H130380   4.838   3.198  12.043  0.1744 -2.3835 -0.0832
 2963TIP3    H230381   4.963   3.113  12.043  0.6001 -1.8219  2.0136
 2964TIP3   OH230382   4.737   1.294  16.709 -0.4071  0.6969 -0.0300
 2964TIP3    H130383   4.733   1.213  16.658 -0.8938  0.7437 -0.0711
 2964TIP3    H230384   4.646   1.316  16.726 -0.2381  0.4409  1.2707
 2965TIP3   OH230385   2.324   1.078   0.606  0.4168  0.2479 -0.1483
 2965TIP3    H130386   2.256   1.110   0.546  0.1265  3.5243  1.7080
 2965TIP3    H230387   2.406   1.088   0.556  0.1565  2.6716 -0.2332
 2966TIP3   OH230388   5.097   5.967  16.762  0.1652  0.0310  0.3092
 2966TIP3    H130389   5.029   6.035  16.770 -0.6335 -0.7334  0.1999
 2966TIP3    H230390   5.083   5.930  16.674 -0.9563 -1.8497  1.2206
 2967TIP3   OH230391   6.298   1.333   0.174 -0.1141  0.5405  0.0029
 2967TIP3    H130392   6.294   1.313   0.267  2.5291 -1.1617 -0.1303
 2967TIP3    H230393   6.295   1.247   0.131  2.1473  0.9772 -1.2229
 2968TIP3   OH230394   4.475   1.933  11.114  0.6184  0.4729 -0.0522
 2968TIP3    H130395   4.454   2.007  11.058  0.3985  0.7355  0.3673
 2968TIP3    H230396   4.410   1.866  11.091 -0.0880  0.9277  0.5536
 2969TIP3   OH230397   6.332   0.481  14.759  0.2378  0.4288 -0.2596
 2969TIP3    H130398   6.279   0.532  14.821  0.1887  0.8575 -0.6431
 2969TIP3    H230399   6.422   0.505  14.779  0.2525  0.1133  0.0395
 2970TIP3   OH230400   0.716   5.876  14.136  0.3783  0.3459 -0.1581
 2970TIP3    H130401   0.739   5.852  14.046 -1.2101  1.2885 -0.8448
 2970TIP3    H230402   0.748   5.966  14.146 -0.0210  0.4699  0.0050
 2971TIP3   OH230403   2.463   0.371   1.724  0.1351 -0.2857 -0.5885
 2971TIP3    H130404   2.541   0.400   1.771 -0.9243 -2.0610  2.5935
 2971TIP3    H230405   2.485   0.382   1.632  2.8046  2.4610  0.2155
 2972TIP3   OH230406   3.373   5.864   4.955 -0.1544  0.0206 -0.5124
 2972TIP3    H130407   3.331   5.927   4.897 -0.5260  0.4838  0.2605
 2972TIP3    H230408   3.324   5.869   5.037 -0.0113 -1.0648 -0.3424
 2973TIP3   OH230409   4.957   4.395   1.753 -0.4058 -1.0134 -0.3196
 2973TIP3    H130410   4.892   4.465   1.752  0.4930 -0.1573 -0.4113
 2973TIP3    H230411   5.018   4.418   1.683  1.7976 -0.0205  1.8026
 2974TIP3   OH230412   6.505   5.524   2.165  0.0107 -0.3715  0.3132
 2974TIP3    H130413   6.412   5.546   2.171  0.4767  1.5960  1.2108
 2974TIP3    H230414   6.513   5.474   2.084 -1.5594  1.1290 -0.8477
 2975TIP3   OH230415   4.409   5.608   1.881 -0.1385  0.4282 -0.2882
 2975TIP3    H130416   4.415   5.642   1.970  3.6269  1.1825 -0.6490
 2975TIP3    H230417   4.450   5.675   1.826  0.2315 -1.2172 -2.1513
 2976TIP3   OH230418   1.124   1.722  14.209 -0.0187  0.0720 -0.3200
 2976TIP3    H130419   1.168   1.653  14.159  0.7402  0.6394 -0.4563
 2976TIP3    H230420   1.067   1.675  14.269  0.6910 -0.6905 -0.2152
 2977TIP3   OH230421   2.559   0.058  17.230 -0.3587 -0.2556 -0.4141
 2977TIP3    H130422   2.547   0.069  17.324  2.1610  0.7659 -0.1134
 2977TIP3    H230423   2.646   0.020  17.221  0.0829  1.0177 -2.3399
 2978TIP3   OH230424   0.828   2.538  12.188  0.0939 -0.5969 -1.0137
 2978TIP3    H130425   0.851   2.464  12.132  1.5889 -0.7236 -0.2802
 2978TIP3    H230426   0.852   2.615  12.136  1.5983 -0.7163 -0.5669
 2979TIP3   OH230427   3.451   6.408  13.156  0.7621  0.6915 -0.1497
 2979TIP3    H130428   3.424   6.367  13.238  0.5362  2.4260  0.6789
 2979TIP3    H230429   3.537   6.368  13.137  0.7224  0.1138  0.8020
 2980TIP3   OH230430   6.308   2.866   1.614  0.9148 -0.3084  0.0338
 2980TIP3    H130431   6.375   2.844   1.550  1.6582  1.7012  0.0450
 2980TIP3    H230432   6.267   2.945   1.579 -0.1725 -0.4314  0.9628
 2981TIP3   OH230433   0.873   5.755  13.768  0.2702  0.7558 -0.0029
 2981TIP3    H130434   0.926   5.804  13.831  2.7471 -1.3578 -0.3080
 2981TIP3    H230435   0.837   5.683  13.819 -2.6611  2.2366  0.2429
 2982TIP3   OH230436   0.939   6.274   4.929 -0.2424  0.2579  0.5051
 2982TIP3    H130437   0.939   6.232   4.842  0.3556 -1.1471  1.1498
 2982TIP3    H230438   0.955   6.202   4.990  3.0179  1.6915  1.5367
 2983TIP3   OH230439   1.125   4.766   3.923 -0.1911  0.4836  0.2531
 2983TIP3    H130440   1.188   4.835   3.905  0.7085  0.1250  1.8211
 2983TIP3    H230441   1.057   4.809   3.975  0.2569  0.2583  1.0403
 2984TIP3   OH230442   5.856   4.576  15.706 -0.3967  0.1140  0.2760
 2984TIP3    H130443   5.760   4.580  15.709 -0.4075  0.7045 -0.4641
 2984TIP3    H230444   5.883   4.667  15.696  0.3534  0.2026  2.6230
 2985TIP3   OH230445   0.838   1.443  15.694  0.4728  0.1736  0.8406
 2985TIP3    H130446   0.901   1.514  15.707 -1.1003  1.5424  1.2746
 2985TIP3    H230447   0.848   1.419  15.602  1.6384  0.3466  0.9095
 2986TIP3   OH230448   3.834   0.733   3.509 -0.3556  0.3041  0.1933
 2986TIP3    H130449   3.842   0.824   3.483  1.3096  0.1119 -0.0911
 2986TIP3    H230450   3.925   0.703   3.521 -0.8180 -1.5067 -0.4443
 2987TIP3   OH230451   4.587   4.523   5.190 -0.3655  0.0482 -0.2563
 2987TIP3    H130452   4.630   4.550   5.109 -0.3421 -2.8559 -1.3331
 2987TIP3    H230453   4.657   4.525   5.256  0.4495 -0.6727 -1.0633
 2988TIP3   OH230454   3.332   5.921  15.166  0.5720  0.2742  0.0472
 2988TIP3    H130455   3.316   6.012  15.141 -1.6825 -0.0235  0.1896
 2988TIP3    H230456   3.381   5.884  15.093 -0.6347  0.9821 -1.1658
 2989TIP3   OH230457   3.413   1.128  13.759 -0.0562 -0.0036 -0.2607
 2989TIP3    H130458   3.430   1.096  13.847 -2.2669  0.0122  0.2179
 2989TIP3    H230459   3.320   1.148  13.758  0.1508  1.1382 -2.2473
 2990TIP3   OH230460   4.818   6.726   2.785 -0.1027  0.0275  0.2766
 2990TIP3    H130461   4.861   6.784   2.848 -0.2865  0.0833  0.3515
 2990TIP3    H230462   4.889   6.696   2.728 -0.3086  2.0468 -1.1446
 2991TIP3   OH230463   5.542   1.852   0.593 -0.4773 -0.1593 -0.0614
 2991TIP3    H130464   5.624   1.878   0.635  0.6289 -1.2159 -1.4564
 2991TIP3    H230465   5.546   1.757   0.588 -0.9774 -0.1397 -1.6738
 2992TIP3   OH230466   6.388   5.110   3.119  0.3995  0.0169 -0.7915
 2992TIP3    H130467   6.465   5.166   3.128 -1.0062  1.9751 -0.4166
 2992TIP3    H230468   6.364   5.117   3.026 -0.8058  1.5283 -0.4015
 2993TIP3   OH230469   5.512   2.351  11.897  0.1314 -0.2352  0.0783
 2993TIP3    H130470   5.593   2.320  11.857  0.8305 -0.6112  1.7006
 2993TIP3    H230471   5.452   2.277  11.891  0.2344 -0.2959 -0.2273
 2994TIP3   OH230472   0.093   6.568   1.351 -0.2959  0.3717 -0.3655
 2994TIP3    H130473   0.181   6.530   1.350 -0.0764  0.8809 -0.4384
 2994TIP3    H230474   0.069   6.575   1.258 -1.1368 -1.4007 -0.3391
 2995TIP3   OH230475   6.670   2.547  17.024  0.3852  0.0342 -0.4596
 2995TIP3    H130476   6.615   2.488  16.973  0.7209 -0.5475 -0.1657
 2995TIP3    H230477   6.690   2.498  17.104 -1.2058  1.3994  0.8691
 2996TIP3   OH230478   6.687   4.647   4.847  0.0872  0.6595 -0.3965
 2996TIP3    H130479   6.621   4.578   4.843 -0.3776  1.0013  1.0181
 2996TIP3    H230480   6.657   4.712   4.783  0.4576 -0.3417 -1.6389
 2997TIP3   OH230481   5.199   5.976  16.245  0.3191 -0.1004  0.4082
 2997TIP3    H130482   5.130   5.916  16.272 -0.7020  0.0439 -1.6957
 2997TIP3    H230483   5.199   6.045  16.311 -0.9138 -0.5785  0.9281
 2998TIP3   OH230484   0.094   3.341   3.139 -0.3004  0.3510 -0.2245
 2998TIP3    H130485   0.087   3.367   3.231 -0.6083 -1.5412  0.3343
 2998TIP3    H230486   0.129   3.418   3.095 -2.9870  2.3760  0.9145
 2999TIP3   OH230487   0.596   3.311  12.421  0.1747 -0.4700  0.1351
 2999TIP3    H130488   0.630   3.400  12.421  0.8746 -0.7300  0.4364
 2999TIP3    H230489   0.563   3.298  12.332  0.4505 -0.0536 -0.0311
 3000TIP3   OH230490   2.006   6.243   3.566 -0.0548  0.5893 -0.9497
 3000TIP3    H130491   1.991   6.222   3.658  0.8794  1.7326 -0.5191
 3000TIP3    H230492   2.078   6.305   3.567 -0.1573  0.7633 -2.4513
 3001TIP3   OH230493   2.171   0.996  16.768 -0.1722  0.4374 -0.4908
 3001TIP3    H130494   2.146   0.938  16.696  2.1089  0.1659 -1.1279
 3001TIP3    H230495   2.229   1.061  16.728  0.5767  0.7144  0.9767
 3002TIP3   OH230496   0.189   4.319  14.586  0.0082  0.3613 -0.0023
 3002TIP3    H130497   0.110   4.266  14.592  0.7287 -0.6004  1.5663
 3002TIP3    H230498   0.199   4.336  14.492 -0.7908 -1.4973 -0.4760
 3003TIP3   OH230499   0.967   4.169  13.633 -0.7177 -0.2764  0.2583
 3003TIP3    H130500   1.023   4.120  13.693  2.2780  0.3241 -1.8142
 3003TIP3    H230501   0.944   4.107  13.565 -0.2691  0.1693 -0.3066
 3004TIP3   OH230502   2.236   4.764  13.494  0.0285  0.4202  0.4594
 3004TIP3    H130503   2.211   4.841  13.546  1.5525  0.8365  0.6168
 3004TIP3    H230504   2.319   4.788  13.454  1.1721 -1.5682  1.4846
 3005TIP3   OH230505   2.358   1.149  16.595 -0.0310  0.4650 -0.1523
 3005TIP3    H130506   2.287   1.129  16.534  0.8844 -2.2883 -0.4541
 3005TIP3    H230507   2.406   1.220  16.552 -0.5134 -0.1062 -1.7346
 3006TIP3   OH230508   5.871   5.474   5.085  0.3526  1.0728 -0.4198
 3006TIP3    H130509   5.966   5.467   5.082  0.2893  0.0210 -0.6026
 3006TIP3    H230510   5.853   5.536   5.155  1.1635  0.8159  0.0281
 3007TIP3   OH230511   2.891   3.455   6.218 -0.7953  0.0375 -0.3601
 3007TIP3    H130512   2.913   3.402   6.141 -1.4187 -1.0827  0.2005
 3007TIP3    H230513   2.973   3.495   6.244 -0.4348 -0.1330 -1.1975
 3008TIP3   OH230514   6.090   5.014   1.148 -0.5457  0.1529 -0.5798
 3008TIP3    H130515   6.041   4.947   1.101 -1.0314  1.5019 -2.0822
 3008TIP3    H230516   6.033   5.039   1.221 -0.8002 -0.3416 -0.6055
 3009TIP3   OH230517   2.620   4.554  12.933  0.1016  0.1277  0.1523
 3009TIP3    H130518   2.600   4.570  12.841  0.0965  0.7553  0.2560
 3009TIP3    H230519   2.538   4.523  12.971 -0.1046  0.6108  0.1106
 3010TIP3   OH230520   6.343   0.044  11.287 -0.4549  0.1285 -0.0638
 3010TIP3    H130521   6.397   0.035  11.208  1.4860  0.7226  1.1355
 3010TIP3    H230522   6.296   0.127  11.274  1.8903  1.6397  0.5068
 3011TIP3   OH230523   0.122   0.964  16.674 -0.0232  0.0874  0.4559
 3011TIP3    H130524   0.196   1.008  16.717  0.0121  0.4422  0.0349
 3011TIP3    H230525   0.121   0.999  16.585  2.8717 -3.9821 -1.5082
 3012TIP3   OH230526   6.081   2.102  10.873 -0.2200 -0.5029  0.1758
 3012TIP3    H130527   6.095   2.029  10.933  1.0234 -0.0689  0.4516
 3012TIP3    H230528   5.988   2.096  10.849 -0.7223 -0.7923  1.9980
 3013TIP3   OH230529   4.654   1.636   3.642 -0.3354 -0.2956 -0.5126
 3013TIP3    H130530   4.676   1.584   3.565 -0.9805  0.9758 -1.5824
 3013TIP3    H230531   4.648   1.726   3.611  0.8514  0.4800  1.3138
 3014TIP3   OH230532   3.961   1.364   0.197  0.4491  0.0291 -0.0308
 3014TIP3    H130533   4.025   1.313   0.247  2.2925  1.9449 -0.2913
 3014TIP3    H230534   3.885   1.372   0.255  0.4378 -2.1829  0.3472
 3015TIP3   OH230535   2.795   5.362   6.674 -0.2870  0.2014  0.5679
 3015TIP3    H130536   2.789   5.357   6.769  0.2665 -1.0784  0.5685
 3015TIP3    H230537   2.860   5.295   6.651 -0.5794  0.3268 -0.7239
 3016TIP3   OH230538   4.824   4.060   3.294  0.1939  0.3629  0.0940
 3016TIP3    H130539   4.794   4.075   3.204  0.1737  2.4138  0.4047
 3016TIP3    H230540   4.825   3.965   3.303 -0.3454  0.1253 -1.8924
 3017TIP3   OH230541   2.598   4.877   4.846  0.2573 -0.4314 -0.0725
 3017TIP3    H130542   2.585   4.791   4.887  0.6577 -1.0508 -1.2102
 3017TIP3    H230543   2.675   4.913   4.890  0.8523 -1.2106 -0.4628
 3018TIP3   OH230544   0.530   6.710  12.275  0.1243 -0.1978 -0.3180
 3018TIP3    H130545   0.586   6.725  12.199  0.0358  2.7225  0.0791
 3018TIP3    H230546   0.590   6.710  12.350  0.0286 -1.3498 -0.2311
 3019TIP3   OH230547   5.319   1.191  11.422 -0.6416 -0.3064  0.4527
 3019TIP3    H130548   5.235   1.201  11.376  0.8057  0.4206 -2.2660
 3019TIP3    H230549   5.337   1.278  11.458 -0.8562 -0.3537  0.6754
 3020TIP3   OH230550   0.456   1.986  16.356  0.0576  0.6024  0.3462
 3020TIP3    H130551   0.450   1.963  16.449 -0.8800  0.5027  0.2691
 3020TIP3    H230552   0.485   2.077  16.356  0.4778  0.4746  0.7248
 3021TIP3   OH230553   5.579   2.341   3.904 -0.1184 -0.6913  0.0634
 3021TIP3    H130554   5.561   2.272   3.840  0.1049 -0.4474 -0.2601
 3021TIP3    H230555   5.541   2.420   3.867 -1.4418 -0.8673  0.9884
 3022TIP3   OH230556   3.925   1.882  15.970 -0.5890  0.4778 -0.2346
 3022TIP3    H130557   3.924   1.962  15.918  1.3128  1.2080  0.7485
 3022TIP3    H230558   3.968   1.817  15.914  0.7321  1.0433  0.0936
 3023TIP3   OH230559   3.906   5.843   5.353 -0.6984 -0.0542 -0.2136
 3023TIP3    H130560   3.943   5.925   5.385 -0.5413 -0.2757  0.1780
 3023TIP3    H230561   3.958   5.822   5.275  1.3682 -1.3937  1.4394
 3024TIP3   OH230562   5.852   2.397  14.126  0.6049  0.8166  0.7742
 3024TIP3    H130563   5.875   2.358  14.210  0.5264  1.3661  1.0570
 3024TIP3    H230564   5.860   2.491  14.141 -0.1738  0.9522  0.3993
 3025TIP3   OH230565   6.238   6.211   0.746 -0.0111 -0.0847 -0.1375
 3025TIP3    H130566   6.155   6.216   0.794  1.6801  2.5193  2.9093
 3025TIP3    H230567   6.213   6.209   0.654 -3.4357 -1.4323  0.6789
 3026TIP3   OH230568   6.393   0.621   0.046  0.2654  0.1868  0.1004
 3026TIP3    H130569   6.343   0.640  -0.033 -0.3890 -2.3380 -0.1745
 3026TIP3    H230570   6.478   0.591   0.014 -0.7498 -3.0967  0.0900
 3027TIP3   OH230571   5.963   5.004  16.458  0.3644  0.3635 -0.1868
 3027TIP3    H130572   6.052   5.011  16.493  0.1388  1.5593  0.1664
 3027TIP3    H230573   5.914   4.960  16.528  0.2402  1.4792  0.4551
 3028TIP3   OH230574   1.290   6.802  15.733 -0.5276  0.5707  0.0065
 3028TIP3    H130575   1.367   6.801  15.789  0.6352  0.3596 -1.5402
 3028TIP3    H230576   1.268   6.895  15.724  0.6830  0.7779 -1.0161
 3029TIP3   OH230577   1.096   1.029   4.577 -0.1440  0.1976  0.5994
 3029TIP3    H130578   1.104   0.989   4.491  1.1838 -1.3987  1.4122
 3029TIP3    H230579   1.009   1.069   4.578  0.0377  0.7523 -1.6608
 3030TIP3   OH230580   0.337   0.724   0.949  0.5913 -0.3984 -0.0867
 3030TIP3    H130581   0.425   0.716   0.913  0.6824 -1.7739  0.3626
 3030TIP3    H230582   0.318   0.637   0.984 -1.3082 -0.4142 -1.0181
 3031TIP3   OH230583   1.918   5.390  11.352  0.3061  0.8255  0.1386
 3031TIP3    H130584   1.891   5.466  11.403  0.3983  0.5777  0.5722
 3031TIP3    H230585   1.972   5.425  11.282  1.5346  1.0632  1.1603
 3032TIP3   OH230586   1.702   5.035   2.576 -0.5341  0.3106  0.4325
 3032TIP3    H130587   1.676   4.983   2.500  0.1087  0.5416  0.0502
 3032TIP3    H230588   1.731   4.971   2.641  2.5668  0.1950 -0.8780
 3033TIP3   OH230589   4.168   4.753   1.758 -0.5145  0.0920 -0.6127
 3033TIP3    H130590   4.086   4.787   1.793 -0.1723  0.2002  0.1140
 3033TIP3    H230591   4.163   4.770   1.664 -0.8641  1.0667 -0.4254
 3034TIP3   OH230592   1.236   4.156   1.634 -0.2462  0.6498  0.0084
 3034TIP3    H130593   1.228   4.169   1.539 -0.4459  0.0865 -0.0576
 3034TIP3    H230594   1.303   4.218   1.661 -0.1429  0.7726 -0.5137
 3035TIP3   OH230595   3.889   6.244  12.886  0.2439  0.2825  0.5166
 3035TIP3    H130596   3.916   6.201  12.967  0.8205  0.6945  0.5588
 3035TIP3    H230597   3.846   6.325  12.915 -1.5936 -0.6418  0.4644
 3036TIP3   OH230598   4.886   6.626   3.765  0.2656  0.3969 -0.1610
 3036TIP3    H130599   4.798   6.661   3.750 -0.8039 -0.7948  2.6187
 3036TIP3    H230600   4.916   6.670   3.845  0.6395 -1.7308  0.9719
 3037TIP3   OH230601   0.401   3.071  11.598 -0.4833  0.0580  0.0232
 3037TIP3    H130602   0.427   3.153  11.556 -0.8348  0.7133  1.0350
 3037TIP3    H230603   0.459   3.065  11.674 -0.9472 -0.2572  0.3561
 3038TIP3   OH230604   0.782   1.763   4.215 -0.0368 -0.6814  0.3429
 3038TIP3    H130605   0.741   1.815   4.147  0.3771 -1.3117 -0.4108
 3038TIP3    H230606   0.715   1.698   4.240  0.2897 -1.3487 -0.4811
 3039TIP3   OH230607   1.371   1.320  15.328 -0.3741 -0.0771 -0.2193
 3039TIP3    H130608   1.381   1.297  15.421  0.7488  0.2232 -0.2573
 3039TIP3    H230609   1.357   1.414  15.328 -2.5349 -0.3573 -0.2318
 3040TIP3   OH230610   0.734   4.874   0.702 -0.0413 -0.5008  1.0151
 3040TIP3    H130611   0.720   4.955   0.654  0.9108 -0.1365  1.3411
 3040TIP3    H230612   0.781   4.817   0.640 -0.8052 -0.8619  0.7470
 3041TIP3   OH230613   3.585   6.777   1.357 -0.7615  0.2569 -0.7700
 3041TIP3    H130614   3.551   6.776   1.447  0.9908  0.8558 -0.0635
 3041TIP3    H230615   3.554   6.694   1.319 -0.0273 -0.8852  0.9822
 3042TIP3   OH230616   2.448   3.824  13.645  0.2967  0.2392  0.3537
 3042TIP3    H130617   2.410   3.905  13.612 -1.6643 -0.7581  0.0647
 3042TIP3    H230618   2.453   3.836  13.740  1.0791  1.1114  0.2131
 3043TIP3   OH230619   2.649   4.847  15.806 -0.0943 -0.2867  0.1866
 3043TIP3    H130620   2.575   4.786  15.805 -1.3341  1.1776 -0.9685
 3043TIP3    H230621   2.699   4.824  15.728 -0.3823 -0.0319 -0.0728
 3044TIP3   OH230622   2.306   6.055   3.480 -0.9081  0.2537 -0.7987
 3044TIP3    H130623   2.320   6.127   3.419  2.7859  0.4767  0.0413
 3044TIP3    H230624   2.306   6.096   3.566  2.0277 -0.6711 -0.2546
 3045TIP3   OH230625   1.315   2.664  15.495 -0.2820 -0.2171  0.6376
 3045TIP3    H130626   1.353   2.596  15.439 -0.4407 -1.5390  2.0563
 3045TIP3    H230627   1.371   2.667  15.572 -1.3972 -0.1703  1.4808
 3046TIP3   OH230628   4.375   0.233  13.475  0.1223  0.0266  0.3989
 3046TIP3    H130629   4.453   0.187  13.445 -0.9565 -0.3866 -2.0458
 3046TIP3    H230630   4.397   0.326  13.467  0.8780 -0.0603  1.2987
 3047TIP3   OH230631   4.698   5.565   3.472 -0.2402 -0.1980  0.2747
 3047TIP3    H130632   4.614   5.603   3.448 -0.1921 -0.9130 -1.2037
 3047TIP3    H230633   4.676   5.481   3.513 -0.2734  0.1319  0.9351
 3048TIP3   OH230634   1.878   5.646  12.450 -0.5362 -0.3603  0.1637
 3048TIP3    H130635   1.880   5.739  12.425 -1.3279 -0.2454  0.4817
 3048TIP3    H230636   1.896   5.646  12.544  0.4681 -0.6245 -0.0157
 3049TIP3   OH230637   2.149   1.708   1.969  0.0574 -0.4386  0.0532
 3049TIP3    H130638   2.136   1.803   1.975  1.0950 -0.3598  1.4420
 3049TIP3    H230639   2.243   1.696   1.987 -0.1785 -1.7771  0.4621
 3050TIP3   OH230640   1.999   5.210   4.264  0.0016 -0.1959 -0.4608
 3050TIP3    H130641   1.911   5.220   4.228  0.4615 -1.0829 -1.9362
 3050TIP3    H230642   2.006   5.117   4.286  0.4095 -0.0437  0.0611
 3051TIP3   OH230643   3.029   5.236   0.477  0.0908  0.0236  0.4607
 3051TIP3    H130644   3.100   5.281   0.521 -0.3897  0.4200  0.8401
 3051TIP3    H230645   3.011   5.160   0.532 -0.3652  0.4029  0.8481
 3052TIP3   OH230646   4.380   0.217   3.754 -0.1590  0.4366  0.5123
 3052TIP3    H130647   4.464   0.245   3.717 -0.5642  2.4434  1.0019
 3052TIP3    H230648   4.320   0.219   3.680  0.0841 -0.5418  0.2638
 3053TIP3   OH230649   2.467   6.294   0.893  0.1256  0.0331  0.1605
 3053TIP3    H130650   2.414   6.235   0.946  1.2650 -3.0052 -1.8119
 3053TIP3    H230651   2.556   6.285   0.927  0.3418  0.5170 -0.2579
 3054TIP3   OH230652   4.633   0.977  13.929  0.2046 -0.0057 -0.0080
 3054TIP3    H130653   4.698   0.988  13.999 -0.6703  1.0400  0.6704
 3054TIP3    H230654   4.672   0.912  13.871  2.1837  1.1170 -0.0197
 3055TIP3   OH230655   1.082   0.968   5.899  0.2219 -0.5926 -0.2272
 3055TIP3    H130656   1.115   0.910   5.831 -1.0767 -0.0877 -1.3432
 3055TIP3    H230657   1.148   0.965   5.968  0.6085 -2.6727 -0.6427
 3056TIP3   OH230658   6.285   6.141  14.215 -0.4859  1.1375  0.3586
 3056TIP3    H130659   6.363   6.086  14.225 -2.3178 -1.7561 -0.1132
 3056TIP3    H230660   6.294   6.180  14.127  0.0700  0.2189 -0.0046
 3057TIP3   OH230661   5.877   1.785  15.041  0.0358  0.2278  0.6510
 3057TIP3    H130662   5.822   1.707  15.046 -1.6832  1.3519  0.0910
 3057TIP3    H230663   5.845   1.833  14.965 -0.3944  2.4934  2.1401
 3058TIP3   OH230664   6.367   4.275   5.836 -0.2202 -0.0125  0.4231
 3058TIP3    H130665   6.273   4.287   5.846 -0.2862  1.3762 -1.3676
 3058TIP3    H230666   6.400   4.271   5.926 -1.8995  0.2329  1.0832
 3059TIP3   OH230667   6.676   4.634  13.051  0.4714 -0.4355  0.1350
 3059TIP3    H130668   6.733   4.558  13.051  0.9840 -0.0869  1.7711
 3059TIP3    H230669   6.669   4.659  13.143 -1.9277 -0.1683 -0.0464
 3060TIP3   OH230670   5.183   6.199  11.597 -0.2697 -0.0206 -0.1492
 3060TIP3    H130671   5.157   6.289  11.577  0.4744 -0.0294 -1.2304
 3060TIP3    H230672   5.190   6.156  11.512  1.1229 -0.6064  0.2248
 3061TIP3   OH230673   6.088   1.253  15.398 -0.3718 -0.4868 -0.3494
 3061TIP3    H130674   6.059   1.337  15.433  0.6631 -0.1612 -0.2292
 3061TIP3    H230675   6.090   1.266  15.303 -0.6663 -0.5343 -0.3639
 3062TIP3   OH230676   1.094   0.981   0.338  0.0982 -0.4289  0.3089
 3062TIP3    H130677   1.154   0.915   0.302  0.5881  0.5933 -0.8208
 3062TIP3    H230678   1.148   1.032   0.399  0.0142 -0.3533  0.3203
 3063TIP3   OH230679   1.409   3.072  12.313  0.5639  0.4627 -0.3581
 3063TIP3    H130680   1.480   3.116  12.267  0.2329  0.0914 -1.2395
 3063TIP3    H230681   1.378   3.137  12.376  1.5362  0.7036 -0.1010
 3064TIP3   OH230682   6.084   0.392   2.018 -0.2841  0.3746 -0.7542
 3064TIP3    H130683   6.175   0.416   2.040  0.7623 -0.7546 -3.4754
 3064TIP3    H230684   6.086   0.297   2.006 -1.8864  0.3042 -0.7064
 3065TIP3   OH230685   3.107   4.565   2.406  0.6022 -0.1693 -0.7061
 3065TIP3    H130686   3.094   4.646   2.358 -0.7490 -2.1140 -3.9922
 3065TIP3    H230687   3.202   4.561   2.422  0.8315  1.4789 -1.5110
 3066TIP3   OH230688   2.524   0.880  17.228  0.7988 -0.2648  0.3702
 3066TIP3    H130689   2.512   0.937  17.152 -1.5633 -0.2196  0.6999
 3066TIP3    H230690   2.455   0.907  17.289  1.1306 -1.8982  1.5298
 3067TIP3   OH230691   2.804   0.862  17.240 -0.1518 -0.5276 -0.0924
 3067TIP3    H130692   2.844   0.929  17.185 -0.7719  1.2469  1.4786
 3067TIP3    H230693   2.710   0.882  17.238 -0.5362 -2.2373 -0.6718
 3068TIP3   OH230694   3.245   3.303  12.959 -0.5462  0.4526  0.1498
 3068TIP3    H130695   3.229   3.250  12.881 -0.0752  1.2225 -0.4870
 3068TIP3    H230696   3.309   3.252  13.010 -0.8925 -0.0721  0.0648
 3069TIP3   OH230697   1.746   5.293  17.221  0.2071  0.2535 -0.0439
 3069TIP3    H130698   1.688   5.237  17.170 -0.5133  0.9008  0.0535
 3069TIP3    H230699   1.706   5.295  17.308  0.6672  0.2862  0.1691
 3070TIP3   OH230700   1.134   6.606   2.876  0.5017  0.0502  0.1460
 3070TIP3    H130701   1.226   6.579   2.865  0.4103  0.0600 -0.6927
 3070TIP3    H230702   1.117   6.663   2.802 -0.1691  0.1113  0.3410
 3071TIP3   OH230703   3.521   5.661  17.213  0.3992 -0.2526 -0.5089
 3071TIP3    H130704   3.549   5.570  17.202  1.6480  0.1203 -0.5730
 3071TIP3    H230705   3.494   5.666  17.305  1.9142 -0.3080 -0.0290
 3072TIP3   OH230706   1.335   5.943  14.521  0.3791 -0.7763 -0.0763
 3072TIP3    H130707   1.277   5.871  14.546 -1.4450  1.1873  1.6836
 3072TIP3    H230708   1.367   5.979  14.604 -0.9700  2.1081 -0.6787
 3073TIP3   OH230709   2.382   3.246  14.114  0.3696  0.6881  0.7588
 3073TIP3    H130710   2.371   3.274  14.023  0.4545  1.0110  0.8483
 3073TIP3    H230711   2.468   3.203  14.115 -0.2026 -0.5173  0.3925
 3074TIP3   OH230712   3.992   3.327  15.929 -0.2017 -0.0745  0.0841
 3074TIP3    H130713   4.056   3.261  15.902  0.1305  0.5880 -0.7880
 3074TIP3    H230714   3.995   3.325  16.025 -1.7815 -2.8339  0.1779
 3075TIP3   OH230715   5.807   6.358  10.553  0.0651 -0.1630 -0.2177
 3075TIP3    H130716   5.884   6.315  10.590 -0.2060  0.3930  1.0459
 3075TIP3    H230717   5.818   6.451  10.573 -0.3335  0.1035 -1.1416
 3076TIP3   OH230718   2.184   1.647   0.707  0.6849  0.1740  0.2864
 3076TIP3    H130719   2.178   1.704   0.630  0.7551  1.6723  1.3401
 3076TIP3    H230720   2.274   1.657   0.737  0.3787  0.4473  1.1605
 3077TIP3   OH230721   2.694   2.138  16.993  0.2621 -0.1045 -0.2037
 3077TIP3    H130722   2.769   2.175  17.039  0.5902 -0.3310 -0.5479
 3077TIP3    H230723   2.697   2.179  16.906  0.2606 -0.4614 -0.3759
 3078TIP3   OH230724   2.356   2.983  11.489  0.3581  0.4187  0.3131
 3078TIP3    H130725   2.343   2.992  11.583 -0.3905  0.8925  0.1717
 3078TIP3    H230726   2.365   3.073  11.457  3.2457  0.2088  0.2626
 3079TIP3   OH230727   3.075   1.506   5.832 -0.7766 -0.4204  0.0281
 3079TIP3    H130728   3.060   1.441   5.900 -1.3284  0.4236  0.7425
 3079TIP3    H230729   3.012   1.483   5.763 -0.6258 -0.9263  0.0565
 3080TIP3   OH230730   4.726   1.950  11.157 -0.1088  0.6805 -0.1812
 3080TIP3    H130731   4.722   2.020  11.222 -1.3258  0.4869 -0.0310
 3080TIP3    H230732   4.636   1.942  11.125 -0.2379 -1.5629  0.6056
 3081TIP3   OH230733   1.091   4.963   4.280  0.3139  0.6426  0.5527
 3081TIP3    H130734   1.054   4.969   4.192 -1.0650 -0.8079  0.9838
 3081TIP3    H230735   1.034   4.902   4.326  2.0261 -0.0026  1.9466
 3082TIP3   OH230736   6.282   5.119  14.970 -0.2042  0.1232 -0.6390
 3082TIP3    H130737   6.273   5.071  15.052 -0.8132 -1.6461 -1.6627
 3082TIP3    H230738   6.194   5.147  14.948 -0.2474 -0.4377 -1.2343
 3083TIP3   OH230739   4.298   0.878  11.128  0.1093 -0.5835  0.3113
 3083TIP3    H130740   4.257   0.851  11.046  1.7226  0.0853 -0.7625
 3083TIP3    H230741   4.278   0.807  11.189 -1.0955 -1.1084 -0.6659
 3084TIP3   OH230742   2.580   6.386   4.881  0.2417 -0.3144 -0.6140
 3084TIP3    H130743   2.660   6.366   4.832 -1.1056 -3.3968 -1.8311
 3084TIP3    H230744   2.600   6.363   4.971  1.1247  0.2105 -0.6700
 3085TIP3   OH230745   6.155   0.845  13.699 -0.1199  0.6191  0.0449
 3085TIP3    H130746   6.198   0.879  13.620  0.7697 -1.9392 -0.6619
 3085TIP3    H230747   6.191   0.898  13.770  2.5017  0.1163 -0.8030
 3086TIP3   OH230748   0.063   2.202  17.211  0.0095  0.0621  0.2237
 3086TIP3    H130749   0.106   2.142  17.150  0.4668 -0.1569  0.7571
 3086TIP3    H230750   0.085   2.289  17.178  2.2818  0.0024  1.4033
 3087TIP3   OH230751   4.440   3.837  12.811 -0.5077 -1.0331 -0.0431
 3087TIP3    H130752   4.435   3.830  12.716  1.0664 -0.9354 -0.1532
 3087TIP3    H230753   4.353   3.812  12.841 -1.8977  1.5326 -1.6143
 3088TIP3   OH230754   5.704   1.713   1.650  0.4522 -0.6432 -0.1700
 3088TIP3    H130755   5.745   1.790   1.611  1.4897 -0.2999  1.5191
 3088TIP3    H230756   5.652   1.748   1.723  0.6153 -1.4973  0.3624
 3089TIP3   OH230757   0.854   0.520  12.697  0.8834 -0.0452  0.0866
 3089TIP3    H130758   0.829   0.560  12.613  0.0881  0.8996  0.7452
 3089TIP3    H230759   0.782   0.542  12.756  2.0039  0.3495  1.3459
 3090TIP3   OH230760   3.421   1.058   4.442 -0.0066  0.4014  0.0474
 3090TIP3    H130761   3.452   1.133   4.391  2.6239  0.3419  1.4205
 3090TIP3    H230762   3.335   1.086   4.475  0.8812  2.8375  0.5003
 3091TIP3   OH230763   4.358   3.090  16.414 -0.1316  0.0353 -0.0496
 3091TIP3    H130764   4.425   3.083  16.346  0.7235 -2.2529  0.9324
 3091TIP3    H230765   4.281   3.047  16.377  0.3419 -1.2344  0.4031
 3092TIP3   OH230766   6.037   0.526  15.609  0.3501  0.0206  0.2378
 3092TIP3    H130767   6.062   0.447  15.658 -0.0058 -0.5582 -0.5053
 3092TIP3    H230768   5.974   0.495  15.545 -0.4449  1.0692  0.5040
 3093TIP3   OH230769   0.918   6.144  15.653  0.6474 -0.0457  0.4380
 3093TIP3    H130770   0.837   6.122  15.699  1.2230 -0.5142  1.2612
 3093TIP3    H230771   0.925   6.239  15.662 -0.8426  0.3077 -1.4251
 3094TIP3   OH230772   3.552   2.083  11.292  0.0249 -0.3182 -0.1231
 3094TIP3    H130773   3.599   2.097  11.373 -0.8490 -0.8896  0.5026
 3094TIP3    H230774   3.603   2.129  11.226 -0.7467  2.6669  1.2010
 3095TIP3   OH230775   3.507   0.220   4.164  0.2962 -0.3131  0.3675
 3095TIP3    H130776   3.561   0.148   4.196 -1.0195 -1.6239 -0.2264
 3095TIP3    H230777   3.419   0.198   4.193 -0.3433  0.3598 -0.9811
 3096TIP3   OH230778   1.667   1.393   4.866 -0.3641 -0.1526 -0.3827
 3096TIP3    H130779   1.659   1.331   4.793 -0.9785  0.0236 -0.4732
 3096TIP3    H230780   1.605   1.463   4.844  1.5617  1.3986 -1.1626
 3097TIP3   OH230781   2.299   3.025   4.839 -0.0407 -0.0188 -0.6867
 3097TIP3    H130782   2.244   3.103   4.842 -1.0407 -0.6059 -2.2595
 3097TIP3    H230783   2.388   3.058   4.841 -0.3663  0.9305  2.4686
 3098TIP3   OH230784   2.372   0.059  13.015  0.0143  0.7144 -0.2493
 3098TIP3    H130785   2.289   0.096  13.043 -0.1736  0.2019 -0.1249
 3098TIP3    H230786   2.364  -0.035  13.031  0.6871  0.6807 -0.0472
 3099TIP3   OH230787   1.737   1.133  11.187  0.4713  0.4416 -0.1187
 3099TIP3    H130788   1.754   1.057  11.243 -0.4573  0.3227  0.0170
 3099TIP3    H230789   1.747   1.100  11.098 -0.8230 -0.0821 -0.0867
 3100TIP3   OH230790   6.742   3.894  15.893 -0.4617 -0.2636 -0.1491
 3100TIP3    H130791   6.785   3.832  15.835 -0.8885 -0.8042  0.1026
 3100TIP3    H230792   6.807   3.962  15.909  0.4195 -1.2409  0.5046
 3101TIP3   OH230793   2.648   1.890  12.684 -0.0684 -0.7925 -0.0301
 3101TIP3    H130794   2.641   1.866  12.592 -1.2359  0.0338 -0.1848
 3101TIP3    H230795   2.719   1.954  12.687 -0.4918 -0.2905 -0.4914
 3102TIP3   OH230796   0.925   2.559  17.193  0.0400 -0.2147 -0.5388
 3102TIP3    H130797   1.016   2.572  17.219 -0.0742  0.1110 -0.3016
 3102TIP3    H230798   0.889   2.647  17.183 -0.5371 -0.3330  0.3872
 3103TIP3   OH230799   5.172   5.336  11.900  0.2701  0.4353  0.2550
 3103TIP3    H130800   5.234   5.299  11.837  1.0497  0.2923  1.0845
 3103TIP3    H230801   5.094   5.355  11.848  0.8794  0.2956 -0.7480
 3104TIP3   OH230802   0.821   4.323   5.208  0.6269  0.7683  0.2970
 3104TIP3    H130803   0.898   4.378   5.223  1.0833 -0.0580  1.0851
 3104TIP3    H230804   0.754   4.384   5.178  1.3861  1.6115  0.2674
 3105TIP3   OH230805   2.262   5.254   4.226 -0.5212 -0.2787 -0.0545
 3105TIP3    H130806   2.296   5.189   4.288 -0.8848 -1.7468 -1.3152
 3105TIP3    H230807   2.172   5.225   4.209 -1.3652  1.6893  0.7928
 3106TIP3   OH230808   1.355   2.926  12.715 -0.0955  0.1817  0.3522
 3106TIP3    H130809   1.446   2.931  12.686  0.2519  0.9047  1.4753
 3106TIP3    H230810   1.359   2.887  12.802 -0.3977  3.4962  2.0391
 3107TIP3   OH230811   3.069   5.256   1.069 -0.1971  0.1717  0.0226
 3107TIP3    H130812   3.018   5.330   1.104  0.0845  0.1640  0.4500
 3107TIP3    H230813   3.014   5.221   0.998 -0.2211  0.9519 -0.3587
 3108TIP3   OH230814   3.060   5.821   1.849 -0.4537  0.0739 -0.4290
 3108TIP3    H130815   3.101   5.886   1.792 -0.7228  0.7920  0.1741
 3108TIP3    H230816   3.065   5.860   1.937 -1.4336 -0.3190 -0.1897
 3109TIP3   OH230817   4.499   1.965  14.727  0.0446 -0.6030  0.5866
 3109TIP3    H130818   4.475   1.955  14.635  1.0492  1.6712  0.0262
 3109TIP3    H230819   4.424   2.011  14.766  0.8560  1.1147  0.1910
 3110TIP3   OH230820   1.709   0.794  16.557  0.6237 -0.3905  0.2360
 3110TIP3    H130821   1.628   0.764  16.598  0.4787 -1.7778 -0.9846
 3110TIP3    H230822   1.778   0.746  16.603  0.3048 -4.0811 -2.7050
 3111TIP3   OH230823   0.931   6.695  12.463  0.2881 -0.0742 -0.8610
 3111TIP3    H130824   0.926   6.726  12.553 -1.2110  2.3226 -1.6874
 3111TIP3    H230825   1.023   6.671  12.451  0.9585  1.4821  0.7179
 3112TIP3   OH230826   3.310   1.340   1.613  0.5953  0.0072  0.3589
 3112TIP3    H130827   3.319   1.253   1.575 -0.2842  0.5120 -1.0642
 3112TIP3    H230828   3.327   1.400   1.541 -1.0982  0.9869  0.7168
 3113TIP3   OH230829   2.453   0.637  16.786 -0.3369  0.0456 -0.1098
 3113TIP3    H130830   2.360   0.616  16.788 -0.3120 -0.0334  0.5646
 3113TIP3    H230831   2.472   0.669  16.874  0.6550 -1.6690  0.3534
 3114TIP3   OH230832   6.379   1.410   1.419  0.4459 -0.1083  0.0554
 3114TIP3    H130833   6.468   1.408   1.455  0.4215 -0.1727  0.1131
 3114TIP3    H230834   6.325   1.438   1.493  0.3305 -0.7006  0.2034
 3115TIP3   OH230835   0.776   4.923   2.957 -0.0254  0.5558 -0.3701
 3115TIP3    H130836   0.790   4.864   2.882 -0.4308 -1.2823  0.9296
 3115TIP3    H230837   0.686   4.905   2.984  0.4826  0.3566  1.2524
 3116TIP3   OH230838   0.330   3.239   5.797 -0.5872 -0.1107  0.1800
 3116TIP3    H130839   0.398   3.299   5.766 -1.1020  0.1569 -0.4438
 3116TIP3    H230840   0.302   3.277   5.881 -0.7548  0.4022 -0.1030
 3117TIP3   OH230841   3.686   1.290   4.489 -0.2714 -0.4673  0.2668
 3117TIP3    H130842   3.721   1.201   4.500  0.8161 -0.3570 -1.8798
 3117TIP3    H230843   3.640   1.288   4.405 -1.3044  0.7006  0.7756
 3118TIP3   OH230844   0.969   1.809   1.121  0.1319 -0.0100 -0.3260
 3118TIP3    H130845   1.029   1.735   1.121  0.4149  0.2171 -0.4938
 3118TIP3    H230846   0.936   1.814   1.031 -1.1916 -0.9691  0.0668
 3119TIP3   OH230847   3.819   5.790   2.652 -0.1567  0.3943 -0.0831
 3119TIP3    H130848   3.886   5.837   2.702 -0.5989  1.5538 -0.5546
 3119TIP3    H230849   3.753   5.765   2.716  0.0881  0.3992  0.1705
 3120TIP3   OH230850   2.079   3.136  14.788 -0.2944  0.1302  0.7197
 3120TIP3    H130851   2.099   3.051  14.827  0.0376 -0.0492  0.1666
 3120TIP3    H230852   2.073   3.195  14.862  0.4361 -0.1846  1.0384
 3121TIP3   OH230853   6.020   5.552  12.808 -0.4839  0.3283 -0.4484
 3121TIP3    H130854   5.993   5.570  12.717  3.1967 -0.2517 -1.8395
 3121TIP3    H230855   6.116   5.562  12.807 -0.1237 -1.3007  3.0100
 3122TIP3   OH230856   3.011   0.299   6.517  0.0529 -0.3379  0.0233
 3122TIP3    H130857   3.029   0.216   6.561  1.9964 -0.0343 -0.1192
 3122TIP3    H230858   3.089   0.315   6.463 -1.6836 -0.0962 -2.6130
 3123TIP3   OH230859   3.985   5.418   5.488 -0.1828 -0.8162 -0.1440
 3123TIP3    H130860   3.964   5.488   5.549 -2.1522 -1.2638 -0.2188
 3123TIP3    H230861   4.078   5.429   5.468 -0.1123  0.8572  0.9655
 3124TIP3   OH230862   0.166   3.154  13.459 -0.0358  0.0285  0.0632
 3124TIP3    H130863   0.135   3.138  13.548  2.1820 -0.1423  0.8414
 3124TIP3    H230864   0.176   3.249  13.454  0.1090  0.0123  0.0678
 3125TIP3   OH230865   1.716   4.190   0.374  0.3057  0.4370 -0.4440
 3125TIP3    H130866   1.660   4.114   0.385 -0.5094  1.2791  2.0059
 3125TIP3    H230867   1.661   4.265   0.396  1.7913  1.4934 -0.0850
 3126TIP3   OH230868   0.188   5.802   4.940  0.1368 -0.1001  0.2715
 3126TIP3    H130869   0.155   5.890   4.924 -0.7867 -0.6652 -1.0714
 3126TIP3    H230870   0.281   5.815   4.958 -0.3952  1.3403  2.3257
 3127TIP3   OH230871   5.038   1.407   0.403  0.0147  0.4777  0.4139
 3127TIP3    H130872   5.054   1.481   0.345 -0.4860  1.0777  1.0311
 3127TIP3    H230873   5.117   1.353   0.395  0.2405  0.8982 -0.2942
 3128TIP3   OH230874   1.056   2.280   2.616  0.1090  0.1966  0.2802
 3128TIP3    H130875   1.018   2.339   2.551  0.6999  1.1685  0.7988
 3128TIP3    H230876   1.024   2.313   2.700  0.3352 -0.3109  0.5727
 3129TIP3   OH230877   1.982   4.023  13.923  0.3290 -0.0038 -0.1240
 3129TIP3    H130878   2.033   4.060  13.852 -1.2347 -1.0832 -1.8978
 3129TIP3    H230879   1.931   4.096  13.957 -0.0165  0.2305 -1.1303
 3130TIP3   OH230880   6.797   5.083  13.913 -0.1205  0.1070  0.3775
 3130TIP3    H130881   6.872   5.025  13.929 -0.3877 -0.3907 -0.1484
 3130TIP3    H230882   6.720   5.028  13.931 -0.4063 -0.0711 -1.2835
 3131TIP3   OH230883   5.686   4.554   0.964  0.0472  0.4128  0.3240
 3131TIP3    H130884   5.654   4.466   0.984 -2.0794  1.2392  0.7958
 3131TIP3    H230885   5.776   4.541   0.932 -0.3901 -1.9425 -0.0573
 3132TIP3   OH230886   6.715   2.771   1.809 -0.4928  0.1553 -0.2845
 3132TIP3    H130887   6.808   2.776   1.831 -0.9149 -0.3617  1.8837
 3132TIP3    H230888   6.702   2.840   1.744  0.7524  2.7665  2.0092
 3133TIP3   OH230889   3.227   6.577   1.904  0.1777  0.2132 -0.1456
 3133TIP3    H130890   3.151   6.538   1.947  0.0111  0.7429  0.0494
 3133TIP3    H230891   3.229   6.537   1.817 -0.1092 -0.0712 -0.0230
 3134TIP3   OH230892   1.619   5.394  16.884  0.0311  0.7632 -0.5131
 3134TIP3    H130893   1.553   5.329  16.908  0.7882  0.8779  2.2947
 3134TIP3    H230894   1.620   5.455  16.958  3.7103  0.3461 -0.0285
 3135TIP3   OH230895   0.411   3.528   3.908  0.1607  0.1479 -0.4809
 3135TIP3    H130896   0.402   3.610   3.957  1.3825  0.2009 -0.3173
 3135TIP3    H230897   0.370   3.547   3.823  1.0314  1.1628 -0.7017
 3136TIP3   OH230898   3.748   3.712  13.056  0.0730 -0.0819 -0.3144
 3136TIP3    H130899   3.707   3.799  13.056 -0.5354 -0.2088  3.1923
 3136TIP3    H230900   3.675   3.651  13.071  0.5858 -1.1906 -2.0446
 3137TIP3   OH230901   5.365   4.794   1.372  0.0064 -0.1798 -0.2937
 3137TIP3    H130902   5.449   4.805   1.417  0.2668  0.4441 -0.9158
 3137TIP3    H230903   5.351   4.877   1.326 -0.0231 -0.9487 -1.7322
 3138TIP3   OH230904   0.749   0.267   1.348  0.3199 -0.4322  0.9637
 3138TIP3    H130905   0.826   0.254   1.403  1.4734  1.5589 -0.0641
 3138TIP3    H230906   0.756   0.358   1.318 -1.5696 -0.6946 -0.4642
 3139TIP3   OH230907   2.865   4.740  12.426  1.0636 -0.4874  0.1309
 3139TIP3    H130908   2.927   4.762  12.495  0.6984 -0.9657  0.6196
 3139TIP3    H230909   2.880   4.806  12.358  1.5923 -0.1585  0.5607
 3140TIP3   OH230910   5.341   3.133  13.103  0.2375  0.1091  0.6545
 3140TIP3    H130911   5.366   3.149  13.194  3.0752 -0.5847  0.0794
 3140TIP3    H230912   5.336   3.037  13.096 -1.2512  0.1846  0.3473
 3141TIP3   OH230913   2.768   0.761   1.906  0.5821  0.2903  0.1245
 3141TIP3    H130914   2.772   0.760   2.002 -0.5553 -0.5352  0.1797
 3141TIP3    H230915   2.856   0.788   1.879  0.5053  2.0214  1.4097
 3142TIP3   OH230916   2.365   5.423   5.507  0.2117  0.5647  1.2717
 3142TIP3    H130917   2.384   5.427   5.601  1.1995  1.3492  1.0566
 3142TIP3    H230918   2.347   5.514   5.482 -0.7270  0.2717  0.8213
 3143TIP3   OH230919   1.295   3.356   3.665  0.0281 -0.1630 -0.0097
 3143TIP3    H130920   1.251   3.385   3.744 -0.2444 -2.1592  0.6281
 3143TIP3    H230921   1.259   3.269   3.647  1.4232 -0.5378 -1.2661
 3144TIP3   OH230922   0.326   1.052   1.370 -0.0849  0.6209 -1.2112
 3144TIP3    H130923   0.266   0.999   1.317 -0.5287  0.9288 -1.0251
 3144TIP3    H230924   0.303   1.032   1.461  0.5807  0.1989 -1.1276
 3145TIP3   OH230925   1.721   3.999  14.542  0.8867 -0.3818  0.0132
 3145TIP3    H130926   1.705   4.094  14.546 -0.9741 -0.6964  1.1713
 3145TIP3    H230927   1.781   3.988  14.468  0.9553  1.6710 -0.2962
 3146TIP3   OH230928   3.357   2.055   1.688  0.2300 -0.6050  1.0404
 3146TIP3    H130929   3.418   2.103   1.633 -0.3635 -1.4229 -0.3791
 3146TIP3    H230930   3.403   1.975   1.712 -0.1186 -1.0465  0.2814
 3147TIP3   OH230931   6.558   5.344  15.184  0.3309 -0.5926  0.0713
 3147TIP3    H130932   6.480   5.383  15.224 -0.0280 -0.0655 -1.1117
 3147TIP3    H230933   6.536   5.335  15.091  1.3031 -1.4041 -0.1006
 3148TIP3   OH230934   6.392   6.038   3.847  0.0594  0.0967  0.0082
 3148TIP3    H130935   6.434   6.039   3.932 -0.3360  0.0292  0.2082
 3148TIP3    H230936   6.301   6.013   3.865  0.3429 -1.4974 -0.5983
 3149TIP3   OH230937   0.475   0.453   4.234 -0.0100 -0.1547  0.3336
 3149TIP3    H130938   0.521   0.464   4.150 -0.5180  0.6717  0.1529
 3149TIP3    H230939   0.489   0.361   4.257  0.7797 -0.1986 -0.2780
 3150TIP3   OH230940   3.826   1.487   2.233 -0.8870  0.3725  0.0094
 3150TIP3    H130941   3.889   1.523   2.296  1.0822  0.7548 -2.0578
 3150TIP3    H230942   3.810   1.559   2.171 -1.3931 -0.5101 -0.9136
 3151TIP3   OH230943   3.535   3.849  15.261  0.8951 -0.2187  0.2837
 3151TIP3    H130944   3.461   3.847  15.200  1.6346 -0.5854 -0.6388
 3151TIP3    H230945   3.600   3.904  15.217  2.6636 -2.9548 -0.7756
 3152TIP3   OH230946   6.154   4.335   3.000  0.1013  0.5079 -0.2751
 3152TIP3    H130947   6.074   4.283   3.000 -0.6804  1.6323  1.1133
 3152TIP3    H230948   6.173   4.351   2.908 -0.1213 -1.4510 -0.7002
 3153TIP3   OH230949   2.452   1.985  13.617  0.8126  0.5404 -0.1838
 3153TIP3    H130950   2.460   2.080  13.622  2.4266  0.4961 -1.4037
 3153TIP3    H230951   2.520   1.952  13.676  0.2991  0.1301  0.1887
 3154TIP3   OH230952   3.137   6.044   0.430 -0.4693  0.1385  0.4541
 3154TIP3    H130953   3.121   6.133   0.462  1.8242  1.7664 -2.4297
 3154TIP3    H230954   3.224   6.022   0.463  1.5182  1.4674 -3.2875
 3155TIP3   OH230955   1.040   6.240  14.261 -0.3283  0.0428  0.1333
 3155TIP3    H130956   1.034   6.297  14.338 -1.7126  1.0167 -0.6382
 3155TIP3    H230957   1.131   6.247  14.233  0.7739 -1.9356  2.7951
 3156TIP3   OH230958   4.000   5.478  14.121  0.1167  0.1444 -0.0269
 3156TIP3    H130959   4.080   5.500  14.073  0.1523  0.9742  0.3839
 3156TIP3    H230960   3.944   5.556  14.110  0.3380  0.5802  1.6974
 3157TIP3   OH230961   2.743   6.357   4.068 -0.1505 -0.2182  0.1462
 3157TIP3    H130962   2.650   6.357   4.046 -0.3381  4.4190 -0.1786
 3157TIP3    H230963   2.745   6.362   4.164  0.0869 -4.1474  0.5008
 3158TIP3   OH230964   2.550   6.164  14.067 -0.3330 -0.5293  0.0983
 3158TIP3    H130965   2.463   6.125  14.074 -0.6287  0.3476  1.9280
 3158TIP3    H230966   2.575   6.184  14.157  2.4283 -2.1229 -0.2017
 3159TIP3   OH230967   0.308   0.798   3.167  0.5269 -0.3604  0.3848
 3159TIP3    H130968   0.329   0.793   3.260  1.7974 -0.1590  0.1278
 3159TIP3    H230969   0.283   0.709   3.143 -2.5399  0.0575  1.4708
 3160TIP3   OH230970   2.156   1.897  13.597 -0.5952 -0.5325 -0.1653
 3160TIP3    H130971   2.235   1.950  13.611  0.0505 -0.8420 -2.3352
 3160TIP3    H230972   2.145   1.849  13.680  0.2833  1.0362  0.9161
 3161TIP3   OH230973   2.473   4.907   5.162  0.2006 -0.3443 -0.0257
 3161TIP3    H130974   2.516   4.976   5.112 -0.9703  0.4608  0.0197
 3161TIP3    H230975   2.521   4.903   5.245  0.4935  0.1790 -0.1680
 3162TIP3   OH230976   0.251   0.261  11.005  0.3937 -0.0146  0.0155
 3162TIP3    H130977   0.298   0.194  11.054 -0.3548 -1.6896 -1.4498
 3162TIP3    H230978   0.319   0.317  10.969  1.2976 -1.9627 -1.4692
 3163TIP3   OH230979   2.650   4.266   2.720 -0.0562  0.0816 -0.2029
 3163TIP3    H130980   2.716   4.202   2.748 -0.3039 -0.1478 -0.1393
 3163TIP3    H230981   2.650   4.332   2.789  1.6468  1.2393 -1.2293
 3164TIP3   OH230982   1.950   2.215  14.907 -0.6299  0.7243 -0.1233
 3164TIP3    H130983   1.864   2.236  14.944 -1.2863  1.0563 -1.7621
 3164TIP3    H230984   2.003   2.293  14.925 -0.1330 -0.0722  2.2751
 3165TIP3   OH230985   3.882   1.962  16.628 -0.4443 -0.6073  0.2494
 3165TIP3    H130986   3.864   2.054  16.610  0.5324 -0.3683  0.4375
 3165TIP3    H230987   3.800   1.917  16.608 -1.0976  0.3657  0.6666
 3166TIP3   OH230988   5.923   4.569  15.983 -0.2901 -0.3728 -0.2645
 3166TIP3    H130989   5.890   4.573  15.893  0.1615 -0.0379 -0.4170
 3166TIP3    H230990   5.855   4.612  16.035 -0.2200  0.0887 -0.5446
 3167TIP3   OH230991   6.068   0.826  11.969 -0.5124 -0.4656  0.2641
 3167TIP3    H130992   6.011   0.749  11.967 -0.1060 -0.8131  1.4625
 3167TIP3    H230993   6.008   0.901  11.971 -0.9219 -0.8009  0.6474
 3168TIP3   OH230994   5.707   5.386  12.803 -0.1371 -0.1219  0.0198
 3168TIP3    H130995   5.749   5.471  12.790 -0.3730 -0.4175 -3.5472
 3168TIP3    H230996   5.614   5.403  12.796 -0.2668 -0.4913  0.7617
 3169TIP3   OH230997   1.626   5.280   2.379 -0.1263  0.8836  0.2922
 3169TIP3    H130998   1.620   5.306   2.470 -0.6791  0.4892  0.3775
 3169TIP3    H230999   1.628   5.184   2.382 -1.0387  0.8364 -0.1397
 3170TIP3   OH231000   2.497   3.876   0.874  0.4376 -0.0817  0.0043
 3170TIP3    H131001   2.558   3.806   0.852 -2.1056 -3.1698  1.8711
 3170TIP3    H231002   2.425   3.866   0.811 -1.1115 -0.9199  1.7974
 3171TIP3   OH231003   0.881   4.197  17.269  0.3806  0.0220  0.0351
 3171TIP3    H131004   0.951   4.245  17.225 -1.2013  1.2038 -1.3422
 3171TIP3    H231005   0.881   4.110  17.228  1.6383 -0.3392  0.7558
 3172TIP3   OH231006   0.600   0.265   1.876 -0.3354  0.1121  0.2188
 3172TIP3    H131007   0.657   0.195   1.907 -1.5548 -1.2829 -0.5860
 3172TIP3    H231008   0.621   0.274   1.783  1.7007  2.7281  0.7887
 3173TIP3   OH231009   5.636   3.605   3.485  0.4140 -0.2504  0.0569
 3173TIP3    H131010   5.670   3.692   3.507  0.8360 -0.3964 -0.0113
 3173TIP3    H231011   5.712   3.557   3.453 -0.1587 -0.0493 -1.7299
 3174TIP3   OH231012   2.514   1.416   0.197 -0.4143  0.4204 -0.1060
 3174TIP3    H131013   2.468   1.471   0.260 -2.2845 -0.5531 -0.5390
 3174TIP3    H231014   2.599   1.458   0.186 -0.7296  1.6258  1.6646
 3175TIP3   OH231015   4.174   1.155   5.430 -0.1429 -0.1893 -0.0664
 3175TIP3    H131016   4.262   1.160   5.394 -0.7234  0.4163 -1.5179
 3175TIP3    H231017   4.165   1.233   5.484  0.5612 -0.8217  0.9950
 3176TIP3   OH231018   3.253   3.284   2.991 -0.6410  0.0077 -0.3648
 3176TIP3    H131019   3.207   3.363   2.962 -0.3906  0.2145 -0.2085
 3176TIP3    H231020   3.289   3.308   3.077 -0.6668 -0.3166 -0.2623
 3177TIP3   OH231021   6.467   1.357   5.317 -0.0747 -0.3894  0.0897
 3177TIP3    H131022   6.411   1.422   5.275  0.7632  0.9217  0.9335
 3177TIP3    H231023   6.547   1.358   5.266  0.6971  0.7360  1.2466
 3178TIP3   OH231024   0.447   6.389   3.071  0.2474 -0.1670 -0.2407
 3178TIP3    H131025   0.388   6.453   3.031  1.1141 -0.1965 -1.6371
 3178TIP3    H231026   0.432   6.398   3.165 -1.1338  0.6232 -0.5084
 3179TIP3   OH231027   2.984   1.911  15.821 -0.7238 -0.8410  0.0206
 3179TIP3    H131028   2.973   1.966  15.743  0.9513 -0.4465  0.0127
 3179TIP3    H231029   2.942   1.829  15.798 -0.0891 -0.8048 -1.4098
 3180TIP3   OH231030   6.568   6.540  14.638 -0.3343 -0.2654  0.8188
 3180TIP3    H131031   6.515   6.478  14.687 -1.5001  0.3466  0.3645
 3180TIP3    H231032   6.567   6.506  14.548  2.4294 -1.8171  1.2577
 3181TIP3   OH231033   0.723   3.340  17.171  0.0264 -0.5641  0.5407
 3181TIP3    H131034   0.646   3.388  17.202 -0.4445 -0.4860 -0.6962
 3181TIP3    H231035   0.687   3.257  17.139  0.4240 -0.4208 -0.2790
 3182TIP3   OH231036   2.910   5.931   2.484  0.1843  0.4662 -0.1650
 3182TIP3    H131037   2.973   5.893   2.423 -1.4243  0.8707 -2.1763
 3182TIP3    H231038   2.934   5.895   2.569  0.0552 -3.4417 -1.6035
 3183TIP3   OH231039   0.681   3.601   0.798  0.2284  0.5740 -0.4472
 3183TIP3    H131040   0.730   3.591   0.880  1.6549 -1.6670 -1.4681
 3183TIP3    H231041   0.613   3.534   0.803  2.1603 -1.7314 -2.2029
 3184TIP3   OH231042   0.507   4.660   2.643  0.0313  0.3768 -0.3208
 3184TIP3    H131043   0.526   4.575   2.603 -0.2514  1.1994 -2.2905
 3184TIP3    H231044   0.511   4.722   2.571  0.6054  2.1225  1.1337
 3185TIP3   OH231045   0.107   2.735   0.060 -0.3417 -0.7867  0.9694
 3185TIP3    H131046   0.061   2.672   0.116 -2.2080  0.1284  0.5392
 3185TIP3    H231047   0.042   2.803   0.041  1.1064  0.4196  0.0454
 3186TIP3   OH231048   3.648   2.652  12.436 -0.2065  0.2762  0.3937
 3186TIP3    H131049   3.628   2.725  12.378  0.3377  0.9069  0.9816
 3186TIP3    H231050   3.743   2.641  12.429 -0.1742  0.1660  0.9310
 3187TIP3   OH231051   1.395   6.732   1.872  0.0428  0.2283 -0.2986
 3187TIP3    H131052   1.401   6.647   1.830 -0.6721 -0.2901  0.5936
 3187TIP3    H231053   1.386   6.712   1.965  0.4011  1.2989 -0.0167
 3188TIP3   OH231054   1.004   3.693  14.057  0.6871  0.5174 -0.1729
 3188TIP3    H131055   0.910   3.685  14.074  0.8744  0.1377  0.7426
 3188TIP3    H231056   1.010   3.718  13.965 -0.2653 -1.3085 -0.7713
 3189TIP3   OH231057   5.536   3.394   4.679  0.1269  0.4175  0.1118
 3189TIP3    H131058   5.572   3.478   4.708 -0.6410  0.0431  2.3177
 3189TIP3    H231059   5.511   3.349   4.759 -0.3020 -1.5842 -1.0615
 3190TIP3   OH231060   2.100   4.139  15.508  0.2994  0.1599 -0.1495
 3190TIP3    H131061   2.151   4.175  15.435 -0.0801  0.4530 -0.2766
 3190TIP3    H231062   2.022   4.102  15.466 -0.2202  0.8808  0.1566
 3191TIP3   OH231063   1.559   1.876   5.205 -0.5038 -0.2569 -0.3287
 3191TIP3    H131064   1.508   1.825   5.269  3.8961 -2.0332  2.2008
 3191TIP3    H231065   1.565   1.819   5.128 -0.7225 -0.8903  0.1104
 3192TIP3   OH231066   1.311   5.925   4.351 -0.3805  0.2761  0.1537
 3192TIP3    H131067   1.364   5.914   4.272  1.0222  0.6340  1.0039
 3192TIP3    H231068   1.248   5.993   4.328  1.6934  2.3009  0.0980
 3193TIP3   OH231069   1.715   2.455   2.475  0.2281  0.0390 -0.1091
 3193TIP3    H131070   1.677   2.425   2.392  0.0018 -2.5370  0.8522
 3193TIP3    H231071   1.645   2.506   2.516  0.1434  0.8513 -1.2065
 3194TIP3   OH231072   5.151   3.519   1.334  0.0323  0.3552  0.0954
 3194TIP3    H131073   5.095   3.469   1.394 -0.1917  1.9835  1.3413
 3194TIP3    H231074   5.181   3.593   1.387  2.1434  0.3535 -1.0108
 3195TIP3   OH231075   2.315   2.396  11.284 -0.1998  0.2951 -0.0680
 3195TIP3    H131076   2.246   2.375  11.221 -0.1975  1.4584 -0.4774
 3195TIP3    H231077   2.268   2.420  11.364 -0.3342  1.7685 -0.5527
 3196TIP3   OH231078   0.346   5.375  11.916  0.3959  0.3255 -0.1065
 3196TIP3    H131079   0.280   5.385  11.847 -1.6347  2.1544  1.8977
 3196TIP3    H231080   0.384   5.462  11.925  0.9506  0.0072  0.7532
 3197TIP3   OH231081   2.456   0.321  11.471 -0.8011 -0.1891 -0.1368
 3197TIP3    H131082   2.512   0.274  11.409 -0.5324 -0.8976  0.6238
 3197TIP3    H231083   2.403   0.252  11.512 -2.4986  0.4787 -1.0716
 3198TIP3   OH231084   2.624   1.517  12.500 -0.1761  0.0444 -0.2695
 3198TIP3    H131085   2.630   1.498  12.406 -0.2412  0.6749 -0.4081
 3198TIP3    H231086   2.532   1.501  12.522 -0.3165  0.5617 -0.4683
 3199TIP3   OH231087   4.681   1.649  11.279  0.0706 -0.3242 -0.3057
 3199TIP3    H131088   4.708   1.739  11.265  1.5679 -0.7732 -0.4782
 3199TIP3    H231089   4.694   1.634  11.372 -2.5110  0.3254  0.2450
 3200TIP3   OH231090   6.607   2.617   2.775 -0.4443 -0.1049 -0.0227
 3200TIP3    H131091   6.516   2.646   2.769 -0.7277 -0.7903  0.7739
 3200TIP3    H231092   6.658   2.697   2.770 -1.1655  0.4645  1.1886
 3201TIP3   OH231093   0.204   2.405  17.140 -1.1494 -0.3247 -0.0762
 3201TIP3    H131094   0.286   2.427  17.184  1.3444 -1.8134 -3.5325
 3201TIP3    H231095   0.178   2.486  17.095  0.1706 -0.5791 -1.3723
 3202TIP3   OH231096   5.839   1.897   4.425  0.1892 -0.2632  0.3182
 3202TIP3    H131097   5.827   1.823   4.486  1.5001 -0.5099  0.2957
 3202TIP3    H231098   5.817   1.974   4.478 -1.0793 -0.6287  0.3778
 3203TIP3   OH231099   5.543   0.237   3.673  0.0093 -0.1017 -0.9765
 3203TIP3    H131100   5.459   0.194   3.661 -0.1750 -0.2353  0.5258
 3203TIP3    H231101   5.574   0.255   3.585 -2.8747  2.5613 -1.5904
 3204TIP3   OH231102   2.245   0.079  14.373 -0.3263  0.1440 -0.5458
 3204TIP3    H131103   2.340   0.076  14.371 -0.2330 -0.5824  1.8738
 3204TIP3    H231104   2.223   0.171  14.382  0.3847  0.0802  2.7960
 3205TIP3   OH231105   6.370   4.862  14.882 -0.5117 -0.4752 -0.1359
 3205TIP3    H131106   6.347   4.954  14.899  1.3890  0.0365 -0.0264
 3205TIP3    H231107   6.305   4.811  14.930 -0.0763  0.8644  2.0092
 3206TIP3   OH231108   2.031   5.200  16.562 -0.4803  0.2996 -0.2543
 3206TIP3    H131109   2.097   5.135  16.583  0.5590  1.5249  0.3989
 3206TIP3    H231110   2.073   5.258  16.498 -0.9472  1.0359  0.0935
 3207TIP3   OH231111   5.890   4.006  11.335 -0.8668  0.2986 -0.5872
 3207TIP3    H131112   5.842   4.087  11.351 -2.0090 -0.9439  3.3343
 3207TIP3    H231113   5.926   3.982  11.420  0.3823 -2.7702 -1.8278
 3208TIP3   OH231114   4.679   6.522  14.734  0.2430  0.2450 -0.7730
 3208TIP3    H131115   4.655   6.528  14.641 -2.1377  0.7991 -0.1920
 3208TIP3    H231116   4.691   6.613  14.761  1.5183  0.0537 -0.6481
 3209TIP3   OH231117   2.757   3.965  15.304  0.3533 -0.2346  0.2225
 3209TIP3    H131118   2.702   3.928  15.235 -2.4116  3.5896  0.0457
 3209TIP3    H231119   2.821   4.020  15.257  1.7221 -1.4096  0.6261
 3210TIP3   OH231120   1.346   1.334   2.661  0.2624 -0.3819  0.2758
 3210TIP3    H131121   1.402   1.267   2.622  0.1550 -0.0932 -0.3928
 3210TIP3    H231122   1.399   1.414   2.660  0.4885 -0.5047  1.3184
 3211TIP3   OH231123   5.966   5.152   1.607 -0.2536 -0.0005 -0.4610
 3211TIP3    H131124   6.039   5.091   1.604 -0.3962 -0.1354 -1.5889
 3211TIP3    H231125   5.958   5.176   1.699 -0.0039 -1.4389 -0.0481
 3212TIP3   OH231126   5.059   3.204  13.431 -0.0442  0.2733 -0.0512
 3212TIP3    H131127   5.063   3.111  13.451  0.2949  0.2022 -0.4323
 3212TIP3    H231128   4.982   3.214  13.375 -0.5499  0.3527  0.6518
 3213TIP3   OH231129   0.466   4.064   1.642  0.2036  0.2597 -0.1715
 3213TIP3    H131130   0.455   4.051   1.548 -0.1313  2.6404 -0.5229
 3213TIP3    H231131   0.380   4.044   1.679 -0.4331  1.7794 -0.7365
 3214TIP3   OH231132   0.314   4.961   3.305  0.0277 -0.0281 -0.5941
 3214TIP3    H131133   0.316   4.947   3.399  0.2750 -0.8599 -0.7215
 3214TIP3    H231134   0.406   4.969   3.279 -0.0497  0.5441 -0.7228
 3215TIP3   OH231135   3.107   6.022   3.277  0.0456 -0.5535 -0.0844
 3215TIP3    H131136   3.177   6.077   3.243  0.5545 -1.3125 -0.3078
 3215TIP3    H231137   3.058   5.995   3.199 -0.8814  0.4749  0.1305
 3216TIP3   OH231138   0.779   4.711  16.643 -0.2018 -0.3531  0.0421
 3216TIP3    H131139   0.785   4.619  16.616  1.0389 -0.6641  1.2850
 3216TIP3    H231140   0.870   4.739  16.656 -0.5852  0.9151  0.1513
 3217TIP3   OH231141   1.832   3.011   6.418  0.5213  0.2426 -0.1017
 3217TIP3    H131142   1.835   3.106   6.405  1.9647  0.0256 -1.7231
 3217TIP3    H231143   1.920   2.988   6.449  0.4668 -0.6599 -0.5774
 3218TIP3   OH231144   2.464   3.227  16.598  0.4303  0.4788  0.2681
 3218TIP3    H131145   2.377   3.254  16.568 -1.6563 -4.1257  1.2262
 3218TIP3    H231146   2.465   3.249  16.691 -0.5844 -1.0506  0.6816
 3219TIP3   OH231147   4.675   0.128   4.604  0.4930 -0.5345  0.1509
 3219TIP3    H131148   4.726   0.062   4.653 -1.4910 -0.3521  2.7029
 3219TIP3    H231149   4.740   0.193   4.577  1.9286 -1.4384  1.2602
 3220TIP3   OH231150   2.451   3.442  14.289 -0.6001  0.1473 -0.0903
 3220TIP3    H131151   2.427   3.364  14.240  1.5176  0.6042 -2.0404
 3220TIP3    H231152   2.369   3.490  14.300 -1.4507 -0.8802 -1.5908
 3221TIP3   OH231153   3.914   4.881  16.738 -0.5272 -1.2249 -0.1038
 3221TIP3    H131154   3.907   4.932  16.819  1.8520 -0.8673 -0.0686
 3221TIP3    H231155   3.900   4.945  16.669 -0.6563 -1.1641 -0.0236
 3222TIP3   OH231156   5.964   3.536  11.593 -0.6139  0.5116  0.3090
 3222TIP3    H131157   5.936   3.552  11.683 -0.3970  0.2433  0.4276
 3222TIP3    H231158   6.010   3.616  11.567  0.3509  0.1479  0.8493
 3223TIP3   OH231159   5.519   0.560   4.500  0.4477  0.4547  0.4590
 3223TIP3    H131160   5.502   0.490   4.437  1.3687 -0.0749  0.7889
 3223TIP3    H231161   5.608   0.544   4.531  1.1606  2.4801 -0.3790
 3224TIP3   OH231162   4.258   5.196   3.863  0.1953 -0.6273 -0.3930
 3224TIP3    H131163   4.279   5.289   3.878  1.7825 -1.0597  0.2529
 3224TIP3    H231164   4.184   5.198   3.802 -0.2257  1.0691  0.1095
 3225TIP3   OH231165   1.683   6.204   4.735 -0.2063 -0.5279 -0.2373
 3225TIP3    H131166   1.681   6.110   4.717  0.6547 -0.6290  0.1517
 3225TIP3    H231167   1.675   6.211   4.830 -1.7125 -0.1268 -0.3607
 3226TIP3   OH231168   1.070   5.658   1.907 -0.1277 -0.3047  0.4089
 3226TIP3    H131169   1.091   5.565   1.901  0.1444 -0.2252  0.0970
 3226TIP3    H231170   0.974   5.661   1.903 -0.0931 -0.4760 -1.0444
 3227TIP3   OH231171   2.131   3.852  15.846  0.4612 -0.6768 -0.3408
 3227TIP3    H131172   2.208   3.796  15.832  1.0210  0.2802 -1.1738
 3227TIP3    H231173   2.058   3.801  15.811  0.7503 -1.4548  0.1481
 3228TIP3   OH231174   5.877   2.679  14.150  0.4090  0.1789  0.1663
 3228TIP3    H131175   5.812   2.700  14.217  0.4679  0.1630  0.2278
 3228TIP3    H231176   5.940   2.751  14.153 -0.2516  0.8259 -0.7076
 3229TIP3   OH231177   5.653   1.112   3.372 -0.2442 -0.0308  0.5705
 3229TIP3    H131178   5.739   1.154   3.367  0.1468 -0.7477  1.0716
 3229TIP3    H231179   5.672   1.023   3.402 -1.1603 -0.2034  0.6503
 3230TIP3   OH231180   2.483   6.168  16.305 -0.0296  0.2319  0.4838
 3230TIP3    H131181   2.578   6.163  16.310 -0.0497 -2.2791 -0.2345
 3230TIP3    H231182   2.456   6.081  16.276 -2.5454  0.9329  0.4883
 3231TIP3   OH231183   1.547   2.972  13.348  0.4587 -0.5880 -0.0251
 3231TIP3    H131184   1.585   2.897  13.393  2.2090  0.5229  0.4119
 3231TIP3    H231185   1.484   3.008  13.411  1.6044 -0.0911  0.8630
 3232TIP3   OH231186   5.211   4.795   0.317  0.6148 -0.2368  0.1923
 3232TIP3    H131187   5.229   4.722   0.377  1.3027  0.3464  0.7200
 3232TIP3    H231188   5.267   4.778   0.242  2.0243  0.5904  1.0241
 3233TIP3   OH231189   3.594   6.421  15.860  0.6962  0.3983  0.2610
 3233TIP3    H131190   3.566   6.451  15.773  0.8227  0.5506  0.2720
 3233TIP3    H231191   3.654   6.349  15.841  0.3351  0.1008  0.2361
 3234TIP3   OH231192   0.758   3.674  15.731  1.0415 -0.8966  0.4452
 3234TIP3    H131193   0.767   3.636  15.818 -0.3887  0.0913  1.0548
 3234TIP3    H231194   0.677   3.635  15.696  1.0468 -0.4990 -0.0232
 3235TIP3   OH231195   1.427   3.991  13.494  0.2254 -0.5621 -0.2555
 3235TIP3    H131196   1.341   3.954  13.471 -0.1949 -0.1924  0.6667
 3235TIP3    H231197   1.465   3.927  13.554  0.6531 -0.7731 -0.7401
 3236TIP3   OH231198   4.829   2.350   1.833  0.0026  0.0062 -0.1506
 3236TIP3    H131199   4.832   2.304   1.749 -1.7167 -0.3734 -0.0450
 3236TIP3    H231200   4.739   2.339   1.863  0.5533  0.2090  1.7202
 3237TIP3   OH231201   4.808   0.201  14.458 -0.0269  0.3018  0.4444
 3237TIP3    H131202   4.794   0.120  14.506  1.6987 -0.1729  0.2183
 3237TIP3    H231203   4.898   0.225  14.478  0.1419  1.0762 -1.0987
 3238TIP3   OH231204   0.806   3.593   1.062 -0.2385  0.3470  0.0034
 3238TIP3    H131205   0.855   3.651   1.121 -1.1804  1.2556 -0.0828
 3238TIP3    H231206   0.761   3.533   1.121 -0.9320  1.0582  0.2189
 3239TIP3   OH231207   5.755   5.628   6.125 -0.4831 -0.7274 -0.3298
 3239TIP3    H131208   5.830   5.664   6.174 -0.3249 -0.7353 -0.5643
 3239TIP3    H231209   5.679   5.667   6.167 -0.3002  0.1044 -0.7554
 3240TIP3   OH231210   4.186   4.708  13.501 -0.2300 -0.0709 -0.3105
 3240TIP3    H131211   4.189   4.784  13.558 -1.4524  0.4225 -0.8806
 3240TIP3    H231212   4.237   4.734  13.424 -2.2792  0.9626 -1.3889
 3241TIP3   OH231213   1.456   0.135   5.975 -0.3110 -0.3842  0.4316
 3241TIP3    H131214   1.451   0.111   6.068  0.0047  0.1377  0.5926
 3241TIP3    H231215   1.462   0.231   5.976  3.2439 -0.4424  0.0771
 3242TIP3   OH231216   0.287   1.379   5.147  0.1726  0.1042 -0.1604
 3242TIP3    H131217   0.350   1.430   5.096  0.2255  0.0013 -0.1977
 3242TIP3    H231218   0.206   1.384   5.097  0.7028 -1.5746 -1.2453
 3243TIP3   OH231219   4.304   6.158  16.498  0.1546 -0.1054 -0.0471
 3243TIP3    H131220   4.276   6.239  16.456 -2.3168 -0.6351  0.4629
 3243TIP3    H231221   4.335   6.184  16.584 -0.1940  0.3350 -0.0568
 3244TIP3   OH231222   5.294   4.589   0.473  0.0345  0.2817 -0.5932
 3244TIP3    H131223   5.332   4.588   0.561  0.1360  2.8411 -0.5365
 3244TIP3    H231224   5.202   4.566   0.486 -0.0101  0.9058  0.2268
 3245TIP3   OH231225   3.255   4.104  12.517 -0.1282  0.3164 -0.0944
 3245TIP3    H131226   3.208   4.030  12.555  1.1476 -1.2942 -1.4916
 3245TIP3    H231227   3.208   4.181  12.548 -3.3558 -1.1510 -0.9772
 3246TIP3   OH231228   5.909   4.970  11.688 -0.4090 -0.1112  0.3453
 3246TIP3    H131229   5.936   4.983  11.597 -0.0773 -0.0875  0.4463
 3246TIP3    H231230   5.838   5.033  11.701 -1.1058 -0.7596 -0.1773
 3247TIP3   OH231231   4.116   4.417   3.633 -0.6514  0.1176  0.0777
 3247TIP3    H131232   4.200   4.373   3.623 -0.2449  0.8247  0.3058
 3247TIP3    H231233   4.118   4.487   3.568 -0.3243  1.2285  1.2517
 3248TIP3   OH231234   1.353   2.851   4.694  0.3328  0.5909  0.1152
 3248TIP3    H131235   1.402   2.933   4.703  2.8375 -0.8623  0.8569
 3248TIP3    H231236   1.314   2.837   4.781 -0.6836  1.2905 -0.2093
 3249TIP3   OH231237   1.077   1.869  11.438 -0.2495  0.8740 -0.1327
 3249TIP3    H131238   1.131   1.793  11.461  0.9876  1.8564  0.3293
 3249TIP3    H231239   1.139   1.941  11.429 -1.3733  1.8019 -0.7747
 3250TIP3   OH231240   0.538   6.204   5.308  0.1879 -0.2987  0.4657
 3250TIP3    H131241   0.445   6.224   5.320  0.3810  0.2977  1.0414
 3250TIP3    H231242   0.539   6.131   5.246 -0.6686 -0.3959  0.5520
 3251TIP3   OH231243   6.593   1.045  12.333  0.4033  0.2345  0.4118
 3251TIP3    H131244   6.581   1.047  12.238  0.1410 -0.7396  0.4202
 3251TIP3    H231245   6.650   0.970  12.348  1.4559  1.1046  0.9292
 3252TIP3   OH231246   0.464   2.420  11.722  0.5818  0.0573 -0.1734
 3252TIP3    H131247   0.510   2.423  11.638  2.1743  4.2640  0.5844
 3252TIP3    H231248   0.530   2.389  11.784 -0.2480 -1.9351 -0.2287
 3253TIP3   OH231249   6.584   1.489   5.534  0.0676 -0.4782 -0.1254
 3253TIP3    H131250   6.553   1.578   5.551  0.6845 -0.4379  0.8614
 3253TIP3    H231251   6.542   1.465   5.452 -0.7658  0.4150  0.0126
 3254TIP3   OH231252   3.925   3.185  10.883  0.3387  0.3859 -0.2919
 3254TIP3    H131253   4.003   3.136  10.858  1.1258  1.2138  0.4419
 3254TIP3    H231254   3.959   3.267  10.919 -0.8726  0.7655  0.0355
 3255TIP3   OH231255   4.170   1.297  16.490 -0.3290  0.0217  0.1211
 3255TIP3    H131256   4.235   1.321  16.556 -1.3611 -1.1197  1.6292
 3255TIP3    H231257   4.087   1.328  16.526 -1.0167 -1.3356 -0.2216
 3256TIP3   OH231258   1.018   3.007   5.604 -0.0398 -0.2380  0.1106
 3256TIP3    H131259   1.011   2.960   5.521  0.2778 -0.6750  0.3227
 3256TIP3    H231260   1.059   2.944   5.663 -1.9717 -0.6245  1.1409
 3257TIP3   OH231261   0.055   4.184   2.795 -0.1648 -0.1407  0.3021
 3257TIP3    H131262   0.001   4.132   2.854 -0.0092 -1.0996 -0.3764
 3257TIP3    H231263   0.081   4.122   2.727  0.5140  0.6936 -0.2019
 3258TIP3   OH231264   5.328   6.699   1.349  0.4610  0.3555 -0.4004
 3258TIP3    H131265   5.371   6.751   1.417 -0.3903  1.4283 -0.6564
 3258TIP3    H231266   5.268   6.642   1.398  1.3173 -0.3419 -0.1280
 3259TIP3   OH231267   4.394   0.210   5.017 -0.0750  0.7004 -0.0284
 3259TIP3    H131268   4.358   0.191   5.104 -1.6065 -1.7859 -1.0914
 3259TIP3    H231269   4.468   0.150   5.008 -0.0410  0.8069 -0.4977
 3260TIP3   OH231270   1.453   4.126   0.192 -0.4590  0.1476 -0.9587
 3260TIP3    H131271   1.384   4.178   0.235  0.3306  1.2186 -0.9408
 3260TIP3    H231272   1.499   4.189   0.137  1.3044 -0.2468 -0.0059
 3261TIP3   OH231273   4.501   2.016   4.959 -0.4753 -0.1730 -0.8582
 3261TIP3    H131274   4.451   1.974   5.029 -1.6203 -1.2145 -2.2297
 3261TIP3    H231275   4.479   1.965   4.881 -1.1926  2.3860 -2.4523
 3262TIP3   OH231276   1.043   1.466   2.736 -0.3021  0.4360 -0.6624
 3262TIP3    H131277   1.005   1.529   2.798  0.8327  0.9042 -0.4199
 3262TIP3    H231278   1.106   1.516   2.686  0.7331 -0.5391 -0.3703
 3263TIP3   OH231279   6.501   1.912   2.232  0.4516  0.0379  0.3032
 3263TIP3    H131280   6.515   1.857   2.155  0.2212 -1.2890  1.1622
 3263TIP3    H231281   6.579   1.899   2.285  1.3134  2.1352 -0.3434
 3264TIP3   OH231282   6.250   0.170  17.032  0.0916 -0.1041 -0.3359
 3264TIP3    H131283   6.312   0.113  17.077 -0.3274  0.3378  0.8389
 3264TIP3    H231284   6.293   0.256  17.031 -0.3282  0.1235  0.1697
 3265TIP3   OH231285   2.075   0.566  15.150  0.1151 -0.5145  0.1702
 3265TIP3    H131286   2.162   0.556  15.190  0.8010  0.3192 -1.0571
 3265TIP3    H231287   2.093   0.591  15.060 -1.4125  1.7001  0.3994
 3266TIP3   OH231288   3.667   3.541   5.258  0.1271  0.2285  0.0450
 3266TIP3    H131289   3.649   3.546   5.352 -1.9728  1.1168 -0.3422
 3266TIP3    H231290   3.667   3.447   5.239  0.7561  0.0291  0.9503
 3267TIP3   OH231291   3.324   3.670  15.793  0.0046 -0.0698  0.2422
 3267TIP3    H131292   3.397   3.707  15.842  1.0327 -1.8768  0.1558
 3267TIP3    H231293   3.247   3.711  15.831  0.9157  0.2594  1.8515
 3268TIP3   OH231294   5.300   6.363   2.424  0.1923 -0.1724  0.1474
 3268TIP3    H131295   5.271   6.427   2.359 -0.7203  2.1628  2.6386
 3268TIP3    H231296   5.370   6.314   2.381  0.8580  2.4388 -1.9801
 3269TIP3   OH231297   4.462   6.697  13.815  0.4091 -0.7054 -0.3332
 3269TIP3    H131298   4.500   6.782  13.795  2.2323 -1.0771  1.2201
 3269TIP3    H231299   4.375   6.716  13.850  0.5367  0.4453 -0.6194
 3270TIP3   OH231300   0.546   5.081   5.775  0.3020 -0.7365 -0.6210
 3270TIP3    H131301   0.457   5.047   5.768  0.0280 -0.0288 -0.6937
 3270TIP3    H231302   0.595   5.033   5.708  0.0468 -1.3372 -0.3829
 3271TIP3   OH231303   4.742   5.076  16.785  0.8650  0.6481 -0.2893
 3271TIP3    H131304   4.711   4.986  16.781 -0.8489  1.1415  0.5745
 3271TIP3    H231305   4.765   5.089  16.877 -1.7056  1.8697  0.2830
 3272TIP3   OH231306   2.659   6.442   3.259 -0.1406 -1.0182 -0.1574
 3272TIP3    H131307   2.701   6.399   3.333 -0.5134 -1.4587 -0.2003
 3272TIP3    H231308   2.617   6.372   3.210  0.5255 -0.7950 -1.0751
 3273TIP3   OH231309   1.225   1.409  10.727 -0.3680  0.3264  0.1959
 3273TIP3    H131310   1.169   1.474  10.684 -3.3665 -2.7031 -0.9468
 3273TIP3    H231311   1.265   1.360  10.654  2.3525  1.1506  1.0153
 3274TIP3   OH231312   3.202   2.606   5.168  0.0960  0.3435  0.1042
 3274TIP3    H131313   3.176   2.578   5.080  1.6305  1.7081 -0.8527
 3274TIP3    H231314   3.298   2.601   5.167  0.1516  0.5455  1.6621
 3275TIP3   OH231315   2.721   5.248   0.493  0.0751  0.2068  0.6784
 3275TIP3    H131316   2.816   5.259   0.484 -0.2593  1.6277 -2.7469
 3275TIP3    H231317   2.696   5.195   0.417 -1.9368  0.4862  1.1042
 3276TIP3   OH231318   4.830   2.834  16.680 -0.1417 -0.2755 -0.0939
 3276TIP3    H131319   4.827   2.921  16.721  1.0245  0.9328 -2.4032
 3276TIP3    H231320   4.905   2.791  16.722  0.2548  0.4408 -0.0494
 3277TIP3   OH231321   1.450   0.933   0.054  0.6546 -0.1568  0.4061
 3277TIP3    H131322   1.538   0.905   0.076  2.3394  4.0898  0.1125
 3277TIP3    H231323   1.428   0.886  -0.027  1.9794 -2.3237  1.2351
 3278TIP3   OH231324   6.779   2.713  11.596  0.2507 -0.0303 -0.0224
 3278TIP3    H131325   6.866   2.681  11.573  0.4749  2.2848 -2.9967
 3278TIP3    H231326   6.729   2.634  11.617  2.1118 -1.7634 -1.7172
 3279TIP3   OH231327   2.094   3.982   5.596 -0.0047  0.8312 -0.8645
 3279TIP3    H131328   2.034   3.954   5.527 -1.6301 -0.6591  1.0405
 3279TIP3    H231329   2.116   3.902   5.643  1.9585  1.6421 -0.2912
 3280TIP3   OH231330   1.846   2.771  11.682 -0.0193 -0.3612 -0.0685
 3280TIP3    H131331   1.940   2.757  11.694  0.6988  1.6260 -2.3621
 3280TIP3    H231332   1.831   2.753  11.590 -2.1250 -1.4851  0.4431
 3281TIP3   OH231333   1.231   6.136   0.611 -0.2994  0.4085  0.4412
 3281TIP3    H131334   1.241   6.202   0.543 -0.7011  1.5471  1.4606
 3281TIP3    H231335   1.313   6.140   0.660 -0.8300  1.0627  1.2875
 3282TIP3   OH231336   0.735   4.561   0.053  0.2772  0.4716  0.2555
 3282TIP3    H131337   0.709   4.494  -0.011  1.4579 -1.5560  1.8052
 3282TIP3    H231338   0.809   4.606   0.012 -0.8670  1.2728 -1.0278
 3283TIP3   OH231339   4.469   5.995   2.419  0.2108  0.8021  0.1072
 3283TIP3    H131340   4.548   5.941   2.427  0.2023  0.8316  0.3997
 3283TIP3    H231341   4.487   6.052   2.344 -0.4765 -0.7882 -1.3457
 3284TIP3   OH231342   2.705   6.777  16.806 -0.0503  0.5812 -0.4437
 3284TIP3    H131343   2.770   6.719  16.767 -0.3628  0.8273 -1.3748
 3284TIP3    H231344   2.747   6.863  16.806  1.3954  0.0420  3.2383
 3285TIP3   OH231345   2.954   5.677  11.911  0.8029 -0.2291 -0.2686
 3285TIP3    H131346   2.998   5.737  11.850 -2.0473  0.5018 -1.8063
 3285TIP3    H231347   3.002   5.687  11.993  2.2276  1.9879 -1.2592
 3286TIP3   OH231348   1.403   0.276   5.449  0.2095 -0.3303  0.2820
 3286TIP3    H131349   1.448   0.199   5.483 -0.0044 -1.0420 -0.9939
 3286TIP3    H231350   1.459   0.308   5.378 -1.2790 -1.3153 -1.4330
 3287TIP3   OH231351   0.774   4.368  14.222  0.1739  0.3084 -0.6060
 3287TIP3    H131352   0.851   4.364  14.166 -0.1080 -0.1095 -0.9674
 3287TIP3    H231353   0.793   4.438  14.284  1.4156 -0.6428  0.1459
 3288TIP3   OH231354   4.837   5.494   5.689 -0.3645 -0.1961 -0.2291
 3288TIP3    H131355   4.777   5.551   5.641  0.0706  0.0323 -0.5101
 3288TIP3    H231356   4.800   5.406   5.679 -0.7569 -0.0319 -0.2289
 3289TIP3   OH231357   0.654   5.873  14.797 -0.1006 -0.2607  0.1575
 3289TIP3    H131358   0.577   5.827  14.763  0.4700 -0.9123 -0.2792
 3289TIP3    H231359   0.618   5.939  14.856 -1.1636  1.1175 -1.9112
 3290TIP3   OH231360   3.876   0.460   4.386 -0.0786 -0.0838  0.3458
 3290TIP3    H131361   3.841   0.513   4.313  0.0527 -1.4315 -0.7391
 3290TIP3    H231362   3.821   0.382   4.386  2.4844 -2.0069 -1.0153
 3291TIP3   OH231363   2.668   3.445  16.364 -0.0415 -0.4129 -0.4419
 3291TIP3    H131364   2.605   3.511  16.393  0.6266  0.9304 -1.9557
 3291TIP3    H231365   2.718   3.487  16.294 -1.6979 -3.4907 -3.7892
 3292TIP3   OH231366   3.001   4.643   1.587 -0.2408 -0.0888 -0.2231
 3292TIP3    H131367   3.024   4.620   1.497  0.5742 -1.2675  0.2553
 3292TIP3    H231368   2.928   4.704   1.578 -0.6464 -0.7347 -1.6757
 3293TIP3   OH231369   5.691   4.175   1.064  0.0933 -0.2546  0.3672
 3293TIP3    H131370   5.646   4.177   1.149  0.2906 -0.8113  0.4909
 3293TIP3    H231371   5.624   4.145   1.002 -0.3907  1.3251  0.0999
 3294TIP3   OH231372   2.904   1.824  11.866 -0.1232  0.1822  0.2595
 3294TIP3    H131373   2.945   1.785  11.788  0.4170 -0.0080  0.6289
 3294TIP3    H231374   2.833   1.877  11.831 -0.3165 -0.4355 -0.3215
 3295TIP3   OH231375   3.142   1.559   0.207 -0.3600 -0.1325  0.6028
 3295TIP3    H131376   3.234   1.583   0.202 -0.8484  2.0390  1.0439
 3295TIP3    H231377   3.142   1.463   0.210  1.9155 -0.1574  1.4825
 3296TIP3   OH231378   5.582   4.908  11.577 -0.7924 -0.0842 -0.4109
 3296TIP3    H131379   5.494   4.942  11.593 -1.3282 -1.1035 -1.1350
 3296TIP3    H231380   5.620   4.967  11.512 -1.9933 -1.2463 -2.2318
 3297TIP3   OH231381   1.979   3.009   6.047 -0.3377 -0.0832 -0.1391
 3297TIP3    H131382   1.968   3.102   6.063  1.7936  0.3282 -0.7800
 3297TIP3    H231383   2.048   2.982   6.109 -0.4713 -1.0891 -0.4080
 3298TIP3   OH231384   1.401   2.553   6.066  0.5762 -0.6077 -0.0199
 3298TIP3    H131385   1.455   2.631   6.070 -0.7933  0.3454  0.7149
 3298TIP3    H231386   1.441   2.492   6.128  1.9768 -0.7307 -1.0152
 3299TIP3   OH231387   5.854   2.569   2.871 -0.3079  0.0088  0.0535
 3299TIP3    H131388   5.859   2.488   2.921 -1.6791 -1.2214 -1.6805
 3299TIP3    H231389   5.938   2.574   2.825  0.8310  0.9889  2.1325
 3300TIP3   OH231390   3.134   3.520  11.192  0.6268 -0.3518 -0.5898
 3300TIP3    H131391   3.151   3.426  11.187  0.4131 -0.5312  1.3260
 3300TIP3    H231392   3.212   3.561  11.154  1.3736 -1.3023 -0.1337
 3301TIP3   OH231393   3.743   3.057   3.197  0.2887 -0.3855 -0.4108
 3301TIP3    H131394   3.732   3.151   3.206  2.1765 -0.3442  3.7255
 3301TIP3    H231395   3.658   3.020   3.221 -0.0623  0.1947 -0.7371
 3302TIP3   OH231396   6.588   6.034   0.182 -0.1012  0.1314  0.5467
 3302TIP3    H131397   6.578   6.073   0.268  0.9257 -0.4546  0.9390
 3302TIP3    H231398   6.559   6.102   0.121  2.7870  2.0158  1.1279
 3303TIP3   OH231399   2.437   5.793   3.796 -0.1056 -0.7847 -0.1339
 3303TIP3    H131400   2.435   5.779   3.701 -0.0939 -1.1905 -0.0753
 3303TIP3    H231401   2.497   5.867   3.808  0.2100 -0.9904 -0.4123
 3304TIP3   OH231402   0.012   0.468   0.338 -0.1106 -0.0153 -0.0370
 3304TIP3    H131403  -0.014   0.458   0.430 -0.9912 -2.4908 -0.4755
 3304TIP3    H231404  -0.047   0.535   0.304 -0.7973 -0.1470  0.8513
 3305TIP3   OH231405   1.606   4.894  14.865 -0.0079 -0.5388  0.4374
 3305TIP3    H131406   1.610   4.989  14.852 -0.6458 -0.8328 -2.7087
 3305TIP3    H231407   1.697   4.866  14.863  0.0862 -0.2059 -1.1681
 3306TIP3   OH231408   1.147   2.934  11.619 -0.1563  0.7069  0.4704
 3306TIP3    H131409   1.168   3.011  11.567 -0.3721  1.5248  1.5381
 3306TIP3    H231410   1.208   2.937  11.693  0.0557 -0.3417  0.3527
 3307TIP3   OH231411   4.654   3.427   1.919  0.6035 -0.2490  0.6363
 3307TIP3    H131412   4.707   3.506   1.916 -0.4769  0.5421  1.4361
 3307TIP3    H231413   4.565   3.457   1.900 -0.0460 -1.0378  2.2231
 3308TIP3   OH231414   0.262   0.118  12.439  0.6258 -0.1545  0.0721
 3308TIP3    H131415   0.332   0.100  12.377  1.3103  0.6669  0.5856
 3308TIP3    H231416   0.260   0.214  12.445 -0.8063 -0.1435 -0.2249
 3309TIP3   OH231417   3.338   4.547  11.961  0.4442  0.7225 -0.5867
 3309TIP3    H131418   3.269   4.611  11.976 -1.1792 -0.7555 -1.3373
 3309TIP3    H231419   3.374   4.530  12.048 -0.6704  0.9877 -0.0560
 3310TIP3   OH231420   3.334   5.834  14.391 -0.0072  0.0948  0.0377
 3310TIP3    H131421   3.418   5.836  14.346  0.5747 -0.1225  1.0882
 3310TIP3    H231422   3.281   5.772  14.340  0.0910  1.0062 -1.2335
 3311TIP3   OH231423   5.003   5.310   2.044  0.0445  0.0586 -0.0808
 3311TIP3    H131424   4.909   5.319   2.060  0.1826  1.5125 -0.0060
 3311TIP3    H231425   5.009   5.280   1.953 -0.4863  0.1840 -0.1599
 3312TIP3   OH231426   1.098   5.956   0.402  0.4376 -0.0779  0.1276
 3312TIP3    H131427   1.114   5.865   0.375  1.3248  0.4888 -1.4059
 3312TIP3    H231428   1.185   5.990   0.425  0.1787  0.5118  0.2576
 3313TIP3   OH231429   0.025   2.706   3.150 -1.0059 -0.3005 -0.4194
 3313TIP3    H131430   0.047   2.678   3.239 -0.6030 -0.8793 -0.6960
 3313TIP3    H231431  -0.044   2.646   3.122 -2.3668  0.9528  0.1180
 3314TIP3   OH231432   2.569   1.032  14.905 -0.3664 -0.3299  0.4142
 3314TIP3    H131433   2.615   1.037  14.822  1.5957  0.7484  1.4855
 3314TIP3    H231434   2.538   1.121  14.921  0.4459 -0.2033  1.4145
 3315TIP3   OH231435   2.691   3.277   5.321  0.0533  0.0707  0.4510
 3315TIP3    H131436   2.777   3.285   5.279  0.0859  0.0954  0.5232
 3315TIP3    H231437   2.709   3.244   5.409  0.0446  0.7300  0.7046
 3316TIP3   OH231438   6.405   5.335   4.988 -0.3076  0.5561  0.2817
 3316TIP3    H131439   6.479   5.298   4.939 -0.7146  0.8212 -0.5458
 3316TIP3    H231440   6.440   5.349   5.076  0.4648  0.1573  0.0524
 3317TIP3   OH231441   0.280   0.180  11.325 -0.0026 -0.4608  0.5490
 3317TIP3    H131442   0.331   0.122  11.269 -0.8180 -0.0879 -0.6102
 3317TIP3    H231443   0.190   0.171  11.294 -0.2831  0.7033  0.9657
 3318TIP3   OH231444   5.891   3.517   5.674 -0.0595 -0.4526  0.1532
 3318TIP3    H131445   5.937   3.587   5.721 -0.5994 -1.1380  1.7887
 3318TIP3    H231446   5.866   3.557   5.591  3.2287  0.0356 -0.7458
 3319TIP3   OH231447   1.585   0.011  11.891 -0.2189 -0.3277 -0.8740
 3319TIP3    H131448   1.494   0.035  11.910 -0.0624 -1.4439  1.8361
 3319TIP3    H231449   1.578  -0.062  11.830 -1.3556 -1.9111  1.0194
 3320TIP3   OH231450   0.464   4.436   2.492  0.9299  0.0810  0.2734
 3320TIP3    H131451   0.406   4.495   2.444  0.4354 -1.7102 -1.4240
 3320TIP3    H231452   0.518   4.395   2.425 -0.8740 -3.7507  0.9189
 3321TIP3   OH231453   6.784   1.918  17.235  0.2351  0.0558  0.0959
 3321TIP3    H131454   6.715   1.965  17.281 -0.5506 -0.9736  0.0100
 3321TIP3    H231455   6.830   1.985  17.184 -0.7824  0.7311  0.0536
 3322TIP3   OH231456   3.462   6.352  12.411 -0.2102  0.4482 -0.4239
 3322TIP3    H131457   3.377   6.358  12.455  0.5335  0.5070  1.0612
 3322TIP3    H231458   3.468   6.433  12.360 -0.4327  1.1375  0.6141
 3323TIP3   OH231459   2.061   2.933  15.005 -0.5737 -0.3290 -0.0388
 3323TIP3    H131460   2.001   2.871  15.046 -4.3987  2.0943 -1.4138
 3323TIP3    H231461   2.083   2.995  15.074 -1.5153 -0.0172 -0.0030
 3324TIP3   OH231462   0.139   3.013   1.695 -0.0465  0.3051  0.0508
 3324TIP3    H131463   0.228   3.033   1.725 -0.1614  0.1305  0.5128
 3324TIP3    H231464   0.107   3.096   1.659  1.3401 -0.2706 -2.8661
 3325TIP3   OH231465   0.687   3.414  11.514 -0.0388 -0.3726 -0.1911
 3325TIP3    H131466   0.641   3.425  11.597  0.9363 -2.3713  0.6973
 3325TIP3    H231467   0.682   3.499  11.472 -0.8578  0.6091  1.7574
 3326TIP3   OH231468   1.709   6.642   4.770 -0.2592  0.1494 -0.2519
 3326TIP3    H131469   1.759   6.721   4.749 -0.1457  0.7227  1.9368
 3326TIP3    H231470   1.771   6.586   4.818 -0.8722 -0.4542 -0.1422
 3327TIP3   OH231471   2.590   5.301   0.119 -0.4017  0.4455 -0.6003
 3327TIP3    H131472   2.669   5.278   0.167  0.2594  1.7520 -1.0246
 3327TIP3    H231473   2.552   5.217   0.094  0.2746 -0.2150  0.5256
 3328TIP3   OH231474   5.223   2.113  16.460 -0.2663  0.1048  0.0399
 3328TIP3    H131475   5.209   2.129  16.367 -1.7958  1.8546  0.5180
 3328TIP3    H231476   5.292   2.046  16.463 -1.4622 -1.3861 -2.3695
 3329TIP3   OH231477   0.353   2.890   2.558 -0.3960  0.0153  0.0106
 3329TIP3    H131478   0.347   2.857   2.648  0.9138 -3.3656 -0.9856
 3329TIP3    H231479   0.401   2.822   2.511  2.3146  3.3109 -2.5146
 3330TIP3   OH231480   2.881   1.508  16.290  0.0026 -0.2296 -0.5915
 3330TIP3    H131481   2.907   1.599  16.279  1.8810 -0.8877 -2.2798
 3330TIP3    H231482   2.802   1.498  16.237 -1.0922  0.7200  0.8028
 3331TIP3   OH231483   5.839   2.087   5.361 -0.4194 -0.3165  0.1168
 3331TIP3    H131484   5.842   2.181   5.378  0.5252 -0.4557  0.7977
 3331TIP3    H231485   5.931   2.060   5.357 -0.6637 -1.0696 -0.9214
 3332TIP3   OH231486   3.860   0.441  16.594 -0.0251 -0.1401 -0.9422
 3332TIP3    H131487   3.792   0.453  16.660  0.6070 -0.4487 -0.2090
 3332TIP3    H231488   3.814   0.440  16.510 -0.9509 -0.6766 -0.4373
 3333TIP3   OH231489   0.071   4.715  12.567 -0.5673  0.0228 -0.7710
 3333TIP3    H131490   0.022   4.651  12.618 -0.7648  1.5242  1.0459
 3333TIP3    H231491   0.152   4.727  12.617  0.1814  0.0401 -1.9493
 3334TIP3   OH231492   3.967   6.142  16.480 -0.2375 -0.2576  1.3615
 3334TIP3    H131493   3.908   6.216  16.463  0.4287 -0.1872 -0.9350
 3334TIP3    H231494   3.935   6.072  16.424  2.2897  0.0629 -0.6715
 3335TIP3   OH231495   4.950   0.436  12.097 -0.0356 -0.0467  0.3910
 3335TIP3    H131496   4.976   0.344  12.109  1.4182  0.1927 -0.6993
 3335TIP3    H231497   5.032   0.483  12.081 -0.9530  1.0321 -1.5068
 3336TIP3   OH231498   5.031   2.337   2.953  0.3454 -0.3235 -0.1563
 3336TIP3    H131499   5.042   2.253   2.997  2.6833 -0.0426 -0.1060
 3336TIP3    H231500   5.038   2.403   3.022 -0.8981 -0.0331 -0.2796
 3337TIP3   OH231501   3.194   0.355  10.981 -0.3900  0.0313 -0.5837
 3337TIP3    H131502   3.270   0.313  10.941  0.6374  1.2766  0.0055
 3337TIP3    H231503   3.231   0.422  11.038 -1.8565 -0.8164  1.4629
 3338TIP3   OH231504   3.542   2.282   1.214 -0.2673  0.1751  0.7603
 3338TIP3    H131505   3.521   2.356   1.157 -1.0919  0.3034  1.2240
 3338TIP3    H231506   3.547   2.207   1.155  0.2510  0.5322  0.3333
 3339TIP3   OH231507   2.913   4.780  11.062  0.1255 -1.2901 -0.1015
 3339TIP3    H131508   2.824   4.764  11.032  0.1043  1.2548 -1.7330
 3339TIP3    H231509   2.951   4.837  10.994  3.0176 -2.3176  0.4989
 3340TIP3   OH231510   4.318   5.910   5.515  0.5651 -0.5798 -0.1834
 3340TIP3    H131511   4.320   5.845   5.585 -1.8715 -1.4913 -0.8622
 3340TIP3    H231512   4.283   5.989   5.556  0.5662 -0.6542 -0.0397
 3341TIP3   OH231513   2.721   6.621   4.687  0.6042  0.0545  0.0409
 3341TIP3    H131514   2.639   6.596   4.643  0.7221 -0.8481  0.3093
 3341TIP3    H231515   2.766   6.538   4.703  1.3151  0.4977  0.4107
 3342TIP3   OH231516   4.912   4.516   0.866 -0.7572  0.2800 -0.4655
 3342TIP3    H131517   4.817   4.506   0.861 -0.8146 -0.1969  1.0834
 3342TIP3    H231518   4.944   4.430   0.893 -0.1962  1.1977  2.0414
 3343TIP3   OH231519   4.814   6.194   5.689 -0.5361  0.5070  0.3216
 3343TIP3    H131520   4.849   6.153   5.768 -0.1353 -2.1813 -1.1124
 3343TIP3    H231521   4.889   6.195   5.628 -1.2403  1.0340 -0.5661
 3344TIP3   OH231522   1.000   2.690  10.567  0.4467 -0.3484  0.0677
 3344TIP3    H131523   1.035   2.712  10.653  1.4711 -1.0394 -0.1483
 3344TIP3    H231524   0.908   2.713  10.571  0.8196  1.0822  0.8251
 3345TIP3   OH231525   5.035   3.733  14.797  0.4061  0.0140  0.2845
 3345TIP3    H131526   4.977   3.692  14.861 -0.6072  1.0617  0.0918
 3345TIP3    H231527   5.038   3.671  14.724  1.7205 -1.2754  1.3805
 3346TIP3   OH231528   1.029   2.437   6.048 -0.7521  0.5927  0.4812
 3346TIP3    H131529   1.095   2.473   6.107  0.1998 -1.0601  0.5060
 3346TIP3    H231530   0.977   2.378   6.103 -0.7554  0.1129 -0.0198
 3347TIP3   OH231531   5.232   6.002   2.289 -0.7390 -0.3142  0.2191
 3347TIP3    H131532   5.278   5.919   2.272 -2.3028 -0.8953 -1.5327
 3347TIP3    H231533   5.254   6.023   2.380 -1.1085 -3.2187  1.0982
 3348TIP3   OH231534   3.764   2.199   2.014  0.2141  0.0305 -0.3380
 3348TIP3    H131535   3.814   2.196   1.932  0.5730  2.9852 -0.3275
 3348TIP3    H231536   3.691   2.139   1.999  0.7048 -0.1173 -2.5029
 3349TIP3   OH231537   1.202   2.717   4.511 -0.1980 -0.8464 -0.5028
 3349TIP3    H131538   1.119   2.764   4.511  0.7037  0.8673  0.3068
 3349TIP3    H231539   1.262   2.776   4.557  1.9055 -1.2010 -2.5721
 3350TIP3   OH231540   0.685   0.383  13.081 -0.7807  0.2374  0.2596
 3350TIP3    H131541   0.727   0.336  13.008  0.9191  2.3295 -0.2034
 3350TIP3    H231542   0.677   0.317  13.150  2.4142 -0.5817  0.0147
 3351TIP3   OH231543   4.386   2.652   5.425 -0.4128 -0.3482  0.3624
 3351TIP3    H131544   4.306   2.606   5.399 -0.1574  0.1883 -1.5088
 3351TIP3    H231545   4.355   2.724   5.481 -1.1530 -0.6343  0.3346
 3352TIP3   OH231546   5.504   0.571   1.806  0.2267  0.5687  0.3865
 3352TIP3    H131547   5.564   0.517   1.755 -0.3400 -0.0369  0.3466
 3352TIP3    H231548   5.420   0.564   1.760  0.4371  2.5500 -0.3689
 3353TIP3   OH231549   0.007   2.790   1.047 -0.0856  0.2456  0.6694
 3353TIP3    H131550  -0.076   2.751   1.020  1.0547 -1.2587 -0.8139
 3353TIP3    H231551   0.048   2.724   1.103  0.7348  0.3766  0.2371
 3354TIP3   OH231552   0.724   2.810   4.799  0.3396 -0.4949 -0.2167
 3354TIP3    H131553   0.718   2.785   4.891 -1.2689  0.6519  0.0380
 3354TIP3    H231554   0.680   2.739   4.752  1.2351 -1.1215 -0.1231
 3355TIP3   OH231555   0.970   3.790   2.112 -0.2287  0.2388 -0.3216
 3355TIP3    H131556   0.935   3.742   2.037 -1.3037  0.6826 -0.1182
 3355TIP3    H231557   0.909   3.772   2.183  1.4571 -1.2298  0.8648
 3356TIP3   OH231558   0.692   5.502  14.731 -0.3218 -0.5386 -0.3115
 3356TIP3    H131559   0.712   5.435  14.665  1.4369 -2.2235  1.7429
 3356TIP3    H231560   0.773   5.553  14.738 -1.7921  2.3306 -2.2103
 3357TIP3   OH231561   2.481   0.738   3.982  0.5945  0.8710  0.3397
 3357TIP3    H131562   2.552   0.786   4.025  0.6515  1.9029 -0.8448
 3357TIP3    H231563   2.524   0.668   3.934  0.5420 -0.2072  1.7927
 3358TIP3   OH231564   1.061   5.933   6.259 -0.2347  0.0294 -0.0089
 3358TIP3    H131565   1.090   6.007   6.312 -0.3089 -0.8088  1.2329
 3358TIP3    H231566   1.134   5.872   6.261  0.0200  0.2541 -1.4438
 3359TIP3   OH231567   4.413   0.420   0.010  0.3576  0.1829  0.4339
 3359TIP3    H131568   4.465   0.405   0.089  1.1328  0.5507  0.0047
 3359TIP3    H231569   4.365   0.339  -0.003 -0.3568  0.3709  1.7015
 3360TIP3   OH231570   3.806   2.495   4.741  0.3247 -0.0029 -0.4742
 3360TIP3    H131571   3.736   2.434   4.767  0.7074  0.1012  0.9130
 3360TIP3    H231572   3.886   2.442   4.746  0.4552  0.1427 -1.0562
 3361TIP3   OH231573   5.487   0.647   0.847  0.1634  0.7023 -0.1785
 3361TIP3    H131574   5.547   0.707   0.803 -0.4619  1.9257  0.5718
 3361TIP3    H231575   5.443   0.702   0.913 -1.2305 -0.3310 -0.2139
 3362TIP3   OH231576   3.027   6.315  16.002 -0.2095  0.3515 -0.2949
 3362TIP3    H131577   3.017   6.264  16.082  1.2324  1.3155  0.5485
 3362TIP3    H231578   2.996   6.403  16.025 -2.9557 -0.0886 -1.8102
 3363TIP3   OH231579   6.501   0.816  16.997 -0.0262 -0.2051  0.0919
 3363TIP3    H131580   6.487   0.857  16.911  1.5877 -1.6391 -0.9084
 3363TIP3    H231581   6.508   0.722  16.978  1.4664 -0.4523  1.6295
 3364TIP3   OH231582   3.038   5.259  16.119  0.3144 -0.5533 -0.0091
 3364TIP3    H131583   3.096   5.298  16.184  0.6669 -1.2989  0.1284
 3364TIP3    H231584   2.950   5.276  16.154  0.4148  0.8078 -0.3492
 3365TIP3   OH231585   3.412   2.623  13.945  0.1657  0.0450  0.1664
 3365TIP3    H131586   3.464   2.547  13.971  1.1016  0.0485 -1.5700
 3365TIP3    H231587   3.468   2.698  13.962  0.2412  0.1446 -0.4924
 3366TIP3   OH231588   4.248   6.382  16.357 -0.2389 -0.2007  0.4035
 3366TIP3    H131589   4.176   6.431  16.318 -0.3568 -0.6751  0.0318
 3366TIP3    H231590   4.322   6.444  16.355 -0.4751  0.0814  0.2499
 3367TIP3   OH231591   2.199   4.555  16.263  0.0520  0.0430  0.2091
 3367TIP3    H131592   2.123   4.552  16.321  0.2764  0.7498  0.5519
 3367TIP3    H231593   2.164   4.528  16.177 -1.0398  2.1260 -0.0839
 3368TIP3   OH231594   2.992   5.731   4.567 -0.3706  0.0613  0.0745
 3368TIP3    H131595   3.080   5.736   4.530  0.4533 -2.0119  1.5570
 3368TIP3    H231596   2.940   5.690   4.498 -0.4224  1.9913 -1.1047
 3369TIP3   OH231597   0.031   2.200   2.529 -0.1212  0.1354  0.0800
 3369TIP3    H131598   0.005   2.273   2.585 -1.0849 -0.3847  0.3255
 3369TIP3    H231599  -0.028   2.129   2.552  2.0535 -1.4005  1.2990
 3370TIP3   OH231600   1.073   1.017  12.839 -0.1813 -0.7327  0.3590
 3370TIP3    H131601   0.994   0.964  12.836  0.2770 -1.4004 -0.5337
 3370TIP3    H231602   1.138   0.959  12.880  0.9835 -1.8636 -2.7579
 3371TIP3   OH231603   1.486   4.255   0.663  0.1658 -0.3292  0.1833
 3371TIP3    H131604   1.427   4.212   0.600  0.6008 -0.2463 -0.2819
 3371TIP3    H231605   1.467   4.211   0.746  1.2856 -2.1507 -0.4499
 3372TIP3   OH231606   3.085   5.566  17.132  0.2315  0.1097 -0.5002
 3372TIP3    H131607   3.024   5.610  17.191  1.3350 -0.0848  0.8390
 3372TIP3    H231608   3.106   5.483  17.177  2.2738  0.6362 -0.3749
 3373TIP3   OH231609   5.715   5.994  12.651 -0.2299  0.4276  0.5103
 3373TIP3    H131610   5.652   6.053  12.610 -1.2557  0.9598  2.7035
 3373TIP3    H231611   5.676   5.907  12.642 -1.0601  0.6907  1.3779
 3374TIP3   OH231612   3.866   3.795  16.417  0.1931 -0.0019  0.1129
 3374TIP3    H131613   3.874   3.731  16.346  1.3301  1.2683 -0.9503
 3374TIP3    H231614   3.933   3.769  16.480  2.7004  1.6909 -1.6496
 3375TIP3   OH231615   1.294   1.681   0.439  0.2202  0.4092 -0.3790
 3375TIP3    H131616   1.225   1.743   0.417  0.9486  1.7915  0.9936
 3375TIP3    H231617   1.275   1.656   0.530  0.6630 -0.3697 -0.4965
 3376TIP3   OH231618   2.582   0.105  16.011  0.4643 -0.3699  0.0134
 3376TIP3    H131619   2.669   0.115  15.973 -0.2386 -0.0167 -1.5820
 3376TIP3    H231620   2.567   0.186  16.059  0.3414  0.3289 -1.1760
 3377TIP3   OH231621   3.832   0.727  10.962 -0.5078  0.6053  0.1615
 3377TIP3    H131622   3.764   0.777  11.008 -1.0361  0.1373 -0.1050
 3377TIP3    H231623   3.807   0.733  10.869  1.3288  2.7497 -0.2688
 3378TIP3   OH231624   4.750   1.251   6.072 -0.8851 -0.7699  0.3495
 3378TIP3    H131625   4.710   1.208   6.148 -1.5605 -0.5121  0.1454
 3378TIP3    H231626   4.734   1.191   5.999 -0.5377 -0.8538  0.3379
 3379TIP3   OH231627   0.525   3.430  11.755 -0.2003 -0.0713  0.1001
 3379TIP3    H131628   0.561   3.499  11.812  2.1554 -1.8769  0.9502
 3379TIP3    H231629   0.450   3.397  11.803  0.4109 -0.0461  1.1072
 3380TIP3   OH231630   6.716   6.303  13.272 -0.2545 -0.1674  0.3417
 3380TIP3    H131631   6.685   6.377  13.220 -1.7586 -2.0285 -1.5852
 3380TIP3    H231632   6.637   6.263  13.308 -0.1661 -3.5123 -2.5524
 3381TIP3   OH231633   2.523   5.090   2.504 -0.4155  0.3148  0.5866
 3381TIP3    H131634   2.552   5.001   2.483 -0.4628  0.2590  0.7611
 3381TIP3    H231635   2.433   5.079   2.535 -0.3870  0.4123  0.7031
 3382TIP3   OH231636   3.179   1.792  16.207  0.0297  0.1960 -0.5101
 3382TIP3    H131637   3.193   1.791  16.113  1.5767  1.2969 -0.3294
 3382TIP3    H231638   3.259   1.828  16.243 -0.7444  0.3152  1.2064
 3383TIP3   OH231639   0.344   3.959  14.727  0.4078 -0.0517 -0.4627
 3383TIP3    H131640   0.427   3.975  14.682  0.1894 -0.8479 -1.1767
 3383TIP3    H231641   0.314   4.046  14.753  3.3159  0.1050  3.3160
 3384TIP3   OH231642   4.314   3.338   4.842 -0.2146  0.3015 -0.2229
 3384TIP3    H131643   4.383   3.281   4.875 -0.3438 -0.5785 -1.4097
 3384TIP3    H231644   4.260   3.281   4.787 -0.6742  1.4355 -0.9822
 3385TIP3   OH231645   5.842   6.140  13.467  0.2355  0.1040 -0.3097
 3385TIP3    H131646   5.847   6.235  13.475  1.6104 -0.0050  0.3881
 3385TIP3    H231647   5.850   6.108  13.557  0.0275 -0.6776 -0.5635
 3386TIP3   OH231648   3.439   3.537   1.254 -0.1533 -0.9203 -0.6678
 3386TIP3    H131649   3.525   3.573   1.280 -0.1463 -1.0459 -0.5144
 3386TIP3    H231650   3.407   3.599   1.189 -0.2196 -0.5282 -0.2747
 3387TIP3   OH231651   3.221   4.527   3.797  0.1035  0.2267  0.3596
 3387TIP3    H131652   3.164   4.583   3.745  0.3709  1.6735  1.5405
 3387TIP3    H231653   3.266   4.472   3.733 -2.4007 -0.8217 -0.6241
 3388TIP3   OH231654   0.751   1.512  12.408 -0.5981  0.1806  0.7736
 3388TIP3    H131655   0.674   1.473  12.448 -1.1405  1.0505  0.6049
 3388TIP3    H231656   0.743   1.492  12.315 -0.6327  0.3068  0.7501
 3389TIP3   OH231657   0.024   5.635   5.537 -0.6033  0.0370 -0.0555
 3389TIP3    H131658   0.017   5.697   5.609  1.6979 -2.2757  2.3659
 3389TIP3    H231659  -0.060   5.590   5.535 -0.4391 -0.4089  1.7696
 3390TIP3   OH231660   0.095   4.413   1.642 -0.7625 -0.2764  0.0459
 3390TIP3    H131661   0.134   4.364   1.714 -1.2510 -1.7711 -0.6594
 3390TIP3    H231662   0.089   4.349   1.571 -1.8638  0.6910 -0.7646
 3391TIP3   OH231663   2.336   5.577   4.223  0.1638 -0.4943  0.4772
 3391TIP3    H131664   2.306   5.489   4.246 -0.1818 -0.1584  1.3425
 3391TIP3    H231665   2.275   5.607   4.156  1.4033 -1.6282 -1.2566
 3392TIP3   OH231666   0.034   1.620   3.339  0.3519 -0.3475  0.4612
 3392TIP3    H131667   0.012   1.703   3.381 -1.2603 -0.1535 -0.6713
 3392TIP3    H231668  -0.034   1.560   3.370  1.2153 -1.1358  0.8693
 3393TIP3   OH231669   4.542   1.156   2.439  0.0207 -0.6830 -0.4708
 3393TIP3    H131670   4.493   1.233   2.410 -0.2175 -0.7405 -0.2217
 3393TIP3    H231671   4.555   1.169   2.533 -0.3173 -1.1055 -0.3601
 3394TIP3   OH231672   1.629   6.243  14.683  0.6091  0.2937  0.3901
 3394TIP3    H131673   1.581   6.262  14.602  0.8876  1.7488  0.5484
 3394TIP3    H231674   1.618   6.321  14.737 -0.0158 -0.8589  2.0080
 3395TIP3   OH231675   6.259   1.934  14.373  0.3570 -0.2163  0.0929
 3395TIP3    H131676   6.315   2.011  14.369 -0.0585  0.2858  2.4226
 3395TIP3    H231677   6.171   1.968  14.388 -0.3047 -1.0659 -1.6407
 3396TIP3   OH231678   4.797   6.269  14.712 -0.0696 -0.2657 -0.3115
 3396TIP3    H131679   4.756   6.349  14.746 -0.4087 -0.0989 -1.0921
 3396TIP3    H231680   4.839   6.296  14.630  0.2930 -0.7674 -0.2947
 3397TIP3   OH231681   1.133   5.687   0.304  0.3051 -0.5555 -0.2464
 3397TIP3    H131682   1.106   5.650   0.219  1.3657 -2.0696  0.0494
 3397TIP3    H231683   1.079   5.641   0.368 -2.8306  2.7662 -0.1519
 3398TIP3   OH231684   1.992   2.229  15.371  0.7946  0.5218 -0.5361
 3398TIP3    H131685   2.036   2.151  15.336  2.4334  0.5310  1.3602
 3398TIP3    H231686   2.063   2.284  15.403 -0.4616  1.8905 -0.0056
 3399TIP3   OH231687   4.448   0.507  12.710 -0.1376  0.3983  0.1273
 3399TIP3    H131688   4.425   0.599  12.694  1.3213  0.9983  1.2508
 3399TIP3    H231689   4.478   0.506  12.801 -0.0746 -1.1893  0.1050
 3400TIP3   OH231690   2.182   6.063   2.324 -0.0833 -0.2743 -0.1340
 3400TIP3    H131691   2.252   6.106   2.274  0.6584 -2.8965 -1.5361
 3400TIP3    H231692   2.120   6.034   2.257 -0.6334 -1.2025  0.7600
 3401TIP3   OH231693   4.217   4.702  14.496  0.8451 -0.2649  0.2181
 3401TIP3    H131694   4.197   4.705  14.590  0.7838  2.5650  0.1994
 3401TIP3    H231695   4.280   4.630  14.488  0.7493 -0.6828  2.3860
 3402TIP3   OH231696   4.787   3.939   2.063 -0.2102 -0.1421 -0.2377
 3402TIP3    H131697   4.803   4.014   2.120  1.1576  0.9674 -1.9905
 3402TIP3    H231698   4.831   3.961   1.981  0.1088 -2.8090 -0.8699
 3403TIP3   OH231699   5.478   2.956   0.725 -0.2489  0.4490  0.2378
 3403TIP3    H131700   5.547   2.976   0.788  1.6012 -1.9504 -0.8495
 3403TIP3    H231701   5.438   3.040   0.705  0.3646  1.5550  3.1052
 3404TIP3   OH231702   0.124   5.915  16.371  0.6394  0.8770 -0.0603
 3404TIP3    H131703   0.071   5.983  16.330  2.2126  1.0190 -1.9790
 3404TIP3    H231704   0.092   5.833  16.334 -1.0348  0.4934  2.0066
 3405TIP3   OH231705   4.013   4.248  13.823 -0.3648 -0.0084 -0.4687
 3405TIP3    H131706   3.973   4.226  13.907 -1.8526  1.7767 -0.6482
 3405TIP3    H231707   4.102   4.274  13.845  0.4994 -3.0804  0.0696
 3406TIP3   OH231708   2.947   2.319   1.898  0.7606 -0.1416  0.3443
 3406TIP3    H131709   2.865   2.270   1.900  0.8793 -0.3473  0.1663
 3406TIP3    H231710   2.980   2.315   1.988  0.5036  0.0670  0.4505
 3407TIP3   OH231711   4.474   2.223   2.905  0.2512  0.0685  0.1964
 3407TIP3    H131712   4.429   2.141   2.924  0.0242  0.0401 -0.4280
 3407TIP3    H231713   4.566   2.206   2.927  0.5967 -1.0398 -1.8019
 3408TIP3   OH231714   4.037   6.432  12.401 -1.0637 -0.0981 -0.0862
 3408TIP3    H131715   4.049   6.522  12.430 -0.1106 -0.6621  1.3962
 3408TIP3    H231716   4.050   6.436  12.306 -0.4161  1.2209  0.0343
 3409TIP3   OH231717   3.626   6.033  16.571 -0.2990  0.2145 -0.5301
 3409TIP3    H131718   3.713   6.002  16.543  0.2946  0.2846  1.1321
 3409TIP3    H231719   3.611   6.112  16.520  1.2609  0.9855  0.1173
 3410TIP3   OH231720   5.548   0.199  13.471  0.2746 -0.1431 -0.3608
 3410TIP3    H131721   5.457   0.202  13.441 -0.2775 -1.1520  1.1515
 3410TIP3    H231722   5.572   0.291  13.481  0.1111  0.2270 -2.6415
 3411TIP3   OH231723   4.069   3.001   0.083  1.2605  0.1113  0.1641
 3411TIP3    H131724   4.009   2.935   0.048  1.1378  0.6237 -0.6153
 3411TIP3    H231725   4.122   2.954   0.147  2.0516 -1.0793 -1.2964
 3412TIP3   OH231726   3.952   1.277   1.312  0.0084 -0.1707 -0.3651
 3412TIP3    H131727   3.971   1.354   1.259  1.0198  0.7186  1.2228
 3412TIP3    H231728   3.881   1.233   1.265 -2.7580  3.2878  0.1996
 3413TIP3   OH231729   4.991   4.121   0.358 -0.1697 -0.2961  0.5891
 3413TIP3    H131730   4.985   4.189   0.425  2.3635  0.7473 -0.1280
 3413TIP3    H231731   5.031   4.046   0.402 -1.1644 -0.6614  0.9013
 3414TIP3   OH231732   3.971   0.029  14.503  0.5680 -0.6492  0.8043
 3414TIP3    H131733   4.060   0.062  14.489 -0.0869  0.4416 -1.1924
 3414TIP3    H231734   3.978  -0.065  14.486  1.2169 -0.4491 -0.1294
 3415TIP3   OH231735   1.535   0.553  16.330  0.1249  0.2956 -0.4194
 3415TIP3    H131736   1.601   0.622  16.329  0.3966  0.1436  1.9322
 3415TIP3    H231737   1.520   0.533  16.238  1.9509  1.6681 -1.0701
 3416TIP3   OH231738   5.946   2.939  15.715  0.4606  0.2163 -0.3076
 3416TIP3    H131739   5.939   2.876  15.786 -0.1961 -0.0927 -0.6420
 3416TIP3    H231740   5.879   3.005  15.734 -0.9313 -0.7817 -1.5421
 3417TIP3   OH231741   2.210   3.755  11.429 -0.0889  0.5193 -0.4186
 3417TIP3    H131742   2.115   3.764  11.422 -0.3232 -0.9954  0.3322
 3417TIP3    H231743   2.245   3.792  11.348 -1.5104 -1.5376 -2.0545
 3418TIP3   OH231744   3.446   2.264  15.116 -0.4329 -0.7098  0.1654
 3418TIP3    H131745   3.396   2.200  15.065 -1.5431  0.2151  0.0346
 3418TIP3    H231746   3.385   2.292  15.185  0.0908  0.0490  0.3374
 3419TIP3   OH231747   0.590   3.662  15.130 -0.3013  0.3198  0.2457
 3419TIP3    H131748   0.657   3.614  15.082  0.4390 -0.3419  1.8676
 3419TIP3    H231749   0.629   3.748  15.148 -0.2649  0.2871  0.3262
 3420TIP3   OH231750   4.596   0.725  14.076 -0.0139  0.3637 -0.2606
 3420TIP3    H131751   4.524   0.689  14.024 -0.1326 -0.0725  0.2038
 3420TIP3    H231752   4.597   0.819  14.054  1.3489 -0.1295 -2.7826
 3421TIP3   OH231753   5.082   3.530  14.634 -0.4209 -0.2009 -0.0307
 3421TIP3    H131754   5.022   3.456  14.630  0.6041 -1.1368  1.1299
 3421TIP3    H231755   5.167   3.493  14.610  0.0204  0.7224  0.0746
 3422TIP3   OH231756   2.867   4.867   3.340 -0.4471  0.1754 -0.3781
 3422TIP3    H131757   2.931   4.915   3.287  0.7045 -0.9484 -0.0650
 3422TIP3    H231758   2.851   4.923   3.416  2.1157 -0.5516  0.8109
 3423TIP3   OH231759   0.439   0.571  12.264 -0.2201  0.6928 -0.5889
 3423TIP3    H131760   0.454   0.556  12.170  0.0937  1.4883 -0.6768
 3423TIP3    H231761   0.523   0.604  12.296 -0.8046  2.0327 -0.3794
 3424TIP3   OH231762   2.908   1.826  10.331  0.3527  0.0418  0.0740
 3424TIP3    H131763   2.929   1.733  10.325 -1.7648 -0.5413  0.9545
 3424TIP3    H231764   2.816   1.829  10.358 -0.0961  2.3936 -1.3902
 3425TIP3   OH231765   4.558   3.606  15.531 -0.2701 -0.0949  0.3194
 3425TIP3    H131766   4.618   3.567  15.594  1.6303  0.2582 -1.2033
 3425TIP3    H231767   4.583   3.698  15.527 -0.3154 -0.1268 -1.0005
 3426TIP3   OH231768   5.750   2.199  11.744  0.5348  0.4897 -0.4261
 3426TIP3    H131769   5.802   2.218  11.666 -1.2545  0.1581 -1.7707
 3426TIP3    H231770   5.810   2.213  11.817  2.7363 -0.6516 -1.8954
 3427TIP3   OH231771   3.828   1.773  12.468  0.0924 -0.1684  0.6690
 3427TIP3    H131772   3.748   1.786  12.417  1.4120  2.2484 -0.9610
 3427TIP3    H231773   3.849   1.680  12.455 -2.0582 -0.7011  0.6138
 3428TIP3   OH231774   1.614   4.248  14.024 -0.5535 -0.5551  0.2448
 3428TIP3    H131775   1.624   4.343  14.025  1.6357 -0.7328  1.8037
 3428TIP3    H231776   1.614   4.225  13.932 -1.1522  0.9298 -0.1600
 3429TIP3   OH231777   3.140   5.744  16.251  0.7043  0.1463  0.1125
 3429TIP3    H131778   3.191   5.807  16.302  1.1380  0.6921 -0.9621
 3429TIP3    H231779   3.075   5.797  16.205  1.2297 -0.1403 -0.9916
 3430TIP3   OH231780   6.401   2.350  11.159  0.1651 -0.3287  0.4232
 3430TIP3    H131781   6.344   2.367  11.084 -0.1506  1.2217  0.9658
 3430TIP3    H231782   6.471   2.296  11.124  0.4779  1.0438 -1.2213
 3431TIP3   OH231783   6.109   3.164  13.831 -0.4915  0.2235  0.3347
 3431TIP3    H131784   6.166   3.190  13.758 -0.7416  0.9512  0.3936
 3431TIP3    H231785   6.143   3.079  13.858  1.3752  1.1699  1.1918
 3432TIP3   OH231786   3.808   2.408   3.421  0.2065 -0.5050 -0.2360
 3432TIP3    H131787   3.861   2.389   3.498 -0.2015  0.5549  0.3308
 3432TIP3    H231788   3.840   2.492   3.389  0.9475 -1.3165 -1.7579
 3433TIP3   OH231789   0.006   1.378   5.595  0.0581  0.3297  0.0648
 3433TIP3    H131790  -0.021   1.363   5.685  0.8675  0.5435  0.3574
 3433TIP3    H231791  -0.054   1.444   5.562 -1.5491 -1.2039 -0.2328
 3434TIP3   OH231792   1.754   0.138   2.655 -0.0198  0.0074  0.4292
 3434TIP3    H131793   1.685   0.201   2.679  1.4102  2.0696 -0.5583
 3434TIP3    H231794   1.833   0.191   2.650  0.9222 -1.4664 -2.4405
 3435TIP3   OH231795   5.057   4.602   0.636 -0.6765 -0.2920  0.1791
 3435TIP3    H131796   5.025   4.578   0.723  1.0010 -1.3282  0.5600
 3435TIP3    H231797   5.093   4.690   0.648 -0.8598 -0.2466  0.4132
 3436TIP3   OH231798   0.731   4.060   5.251  0.1272 -0.6488  0.1837
 3436TIP3    H131799   0.755   4.151   5.265 -1.1047 -0.2460 -0.1712
 3436TIP3    H231800   0.745   4.046   5.157  0.6621 -0.9466  0.3005
 3437TIP3   OH231801   0.783   2.685   1.055 -0.0472 -0.2556  0.4300
 3437TIP3    H131802   0.713   2.750   1.066  1.7262  2.0018 -0.7382
 3437TIP3    H231803   0.746   2.619   0.996 -1.5544  0.2004  0.8027
 3438TIP3   OH231804   5.383   1.542   3.281 -0.4139 -0.1724 -0.4347
 3438TIP3    H131805   5.329   1.565   3.205  1.0259  0.1742 -1.3996
 3438TIP3    H231806   5.473   1.560   3.252  0.1633  0.0463  1.3912
 3439TIP3   OH231807   5.290   2.085  14.169  0.5081  0.0819 -0.1508
 3439TIP3    H131808   5.239   2.153  14.124  2.1083  0.0733 -2.1266
 3439TIP3    H231809   5.245   2.003  14.146  0.3136  0.2249 -0.2858
 3440TIP3   OH231810   4.704   4.416  16.904  0.1755 -0.2934 -0.6088
 3440TIP3    H131811   4.668   4.504  16.920  0.6403 -0.2083 -0.0081
 3440TIP3    H231812   4.783   4.412  16.958 -0.5385 -1.5658  0.3942
 3441TIP3   OH231813   3.010   1.678  14.805  0.1763  0.0674  0.7191
 3441TIP3    H131814   2.937   1.636  14.851  1.7745 -2.9000  0.8036
 3441TIP3    H231815   3.029   1.620  14.731  1.7355  1.3411  0.0617
 3442TIP3   OH231816   6.738   0.524   3.494  0.1852 -0.1101 -0.3248
 3442TIP3    H131817   6.780   0.496   3.412 -0.0086  0.4741 -0.6346
 3442TIP3    H231818   6.809   0.566   3.543  0.0795  0.4913 -0.6632
 3443TIP3   OH231819   0.310   2.547  13.418 -0.6378  0.3410  0.4490
 3443TIP3    H131820   0.353   2.463  13.431  1.4392  1.3402  0.3844
 3443TIP3    H231821   0.380   2.612  13.427 -2.2781  2.1149  1.1015
 3444TIP3   OH231822   3.702   0.815   2.905  0.3320  0.4935 -0.1891
 3444TIP3    H131823   3.619   0.766   2.911 -0.5079  1.7501 -1.1615
 3444TIP3    H231824   3.687   0.880   2.836  2.2250  0.5986 -0.5498
 3445TIP3   OH231825   6.184   0.795  17.003  0.3329  0.1696  0.1550
 3445TIP3    H131826   6.264   0.760  16.963 -0.2037 -2.4491  1.1433
 3445TIP3    H231827   6.176   0.747  17.086 -2.4168  0.0582 -0.0809
 3446TIP3   OH231828   4.827   6.303   5.241 -0.9127  0.7067  0.0247
 3446TIP3    H131829   4.770   6.367   5.284 -1.6722  0.7942 -1.0877
 3446TIP3    H231830   4.767   6.248   5.190 -0.0873  0.2351 -0.4509
 3447TIP3   OH231831   0.769   5.291   1.347  0.0828 -0.0445  0.3024
 3447TIP3    H131832   0.738   5.325   1.430 -0.1825  2.3009 -0.6995
 3447TIP3    H231833   0.701   5.312   1.284  2.5103  3.2345 -1.5270
 3448TIP3   OH231834   1.918   0.978   4.737 -0.5547 -0.0561 -0.5026
 3448TIP3    H131835   1.984   0.951   4.801 -0.3202  3.0024  0.7349
 3448TIP3    H231836   1.848   1.016   4.789 -1.3932  0.4887 -1.9602
 3449TIP3   OH231837   2.704   4.592   4.594  0.1075  0.7581 -0.1180
 3449TIP3    H131838   2.626   4.646   4.585  0.1051  0.8663  0.4727
 3449TIP3    H231839   2.745   4.593   4.508 -0.5078  0.7519 -0.4155
 3450TIP3   OH231840   5.158   0.513  12.968  0.2521 -0.2649  0.5449
 3450TIP3    H131841   5.136   0.600  12.935 -0.3605 -0.5637  0.1665
 3450TIP3    H231842   5.090   0.456  12.934  0.1116 -0.7348  1.5906
 3451TIP3   OH231843   5.085   5.569   4.960  0.2135 -0.2954 -0.0293
 3451TIP3    H131844   5.040   5.495   4.921  0.1078 -0.7702  0.9559
 3451TIP3    H231845   5.028   5.595   5.034 -0.3674  1.5236 -1.0524
 3452TIP3   OH231846   0.573   1.212  13.502  0.0019  0.2069  0.2450
 3452TIP3    H131847   0.668   1.215  13.498  0.1578 -2.3940 -2.7398
 3452TIP3    H231848   0.552   1.215  13.595  3.0580 -0.1464  1.0390
 3453TIP3   OH231849   4.423   0.781  12.723 -0.2158 -0.0090 -0.1067
 3453TIP3    H131850   4.501   0.811  12.768  0.4821 -0.8512 -0.7242
 3453TIP3    H231851   4.351   0.823  12.769  0.6016  0.8353  0.4211
 3454TIP3   OH231852   2.488   6.366   5.495  0.0676 -0.2990  0.4780
 3454TIP3    H131853   2.576   6.394   5.517  0.4577 -0.2116 -1.0490
 3454TIP3    H231854   2.497   6.324   5.409 -1.3497 -0.3921  0.3449
 3455TIP3   OH231855   3.572   2.576  14.688 -0.2029 -0.4898 -0.3220
 3455TIP3    H131856   3.568   2.488  14.726  0.9456 -0.8585 -1.0061
 3455TIP3    H231857   3.633   2.568  14.615  1.6294  1.3035  0.8658
 3456TIP3   OH231858   0.157   6.402  15.260 -0.3215  0.1353  0.0101
 3456TIP3    H131859   0.234   6.348  15.244  2.5075  3.5418  0.9125
 3456TIP3    H231860   0.147   6.403  15.355  1.3926  3.0685  0.2901
 3457TIP3   OH231861   4.756   0.907   0.513 -0.4265  0.2292 -0.1316
 3457TIP3    H131862   4.690   0.925   0.580 -0.3845  2.1941 -0.5816
 3457TIP3    H231863   4.706   0.896   0.432 -0.2842  0.3951 -0.2405
 3458TIP3   OH231864   3.018   6.205  11.698  0.3098 -0.5121  0.5666
 3458TIP3    H131865   2.965   6.134  11.734 -1.2280  0.9660  1.4049
 3458TIP3    H231866   3.066   6.166  11.625 -1.5393 -2.0950  0.1169
 3459TIP3   OH231867   1.131   4.976   3.548  0.3885 -0.1067 -0.4174
 3459TIP3    H131868   1.137   5.022   3.632 -0.4893  1.6272 -1.2464
 3459TIP3    H231869   1.206   5.009   3.498  1.6229 -2.0364  0.0256
 3460TIP3   OH231870   2.874   2.968   3.911  0.0998  0.6724 -0.0682
 3460TIP3    H131871   2.823   3.026   3.854  0.0711  0.8560  0.1434
 3460TIP3    H231872   2.958   2.958   3.866 -0.0890  0.4416 -0.3731
 3461TIP3   OH231873   3.448   3.508  11.689  0.0868  0.3104 -0.2921
 3461TIP3    H131874   3.443   3.458  11.770  0.6239  0.7913  0.0514
 3461TIP3    H231875   3.465   3.598  11.718  1.7679  0.2459 -0.9768
 3462TIP3   OH231876   6.742   2.442  14.050  0.1316  0.0567 -0.4447
 3462TIP3    H131877   6.743   2.444  13.955 -0.7786 -0.1859 -0.4660
 3462TIP3    H231878   6.713   2.529  14.076 -2.6191 -0.7748 -0.4841
 3463TIP3   OH231879   0.082   5.242  16.637  0.3583 -0.2601  0.3939
 3463TIP3    H131880   0.015   5.186  16.596  1.3573 -0.3763 -1.1826
 3463TIP3    H231881   0.081   5.322  16.585  0.7472  0.1372  0.9935
 3464TIP3   OH231882   4.172   6.593  14.398 -0.2286  0.3462  0.2181
 3464TIP3    H131883   4.126   6.555  14.473 -0.1669  1.8111  1.0340
 3464TIP3    H231884   4.261   6.610  14.430 -0.3715  1.5440  0.0150
 3465TIP3   OH231885   6.818   2.453   2.621  0.4729  0.3895 -0.4035
 3465TIP3    H131886   6.838   2.544   2.644  0.2095  0.3321  0.0599
 3465TIP3    H231887   6.872   2.436   2.543  0.2858  1.0366 -0.6815
 3466TIP3   OH231888   6.333   2.653   3.219 -0.5284 -0.0518  0.0424
 3466TIP3    H131889   6.334   2.734   3.270 -1.7054 -0.2414  0.3782
 3466TIP3    H231890   6.346   2.682   3.128  2.6466  0.2055  0.4681
 3467TIP3   OH231891   0.678   5.315   0.074  0.2871  0.6519  0.3062
 3467TIP3    H131892   0.593   5.284   0.105  0.9956 -1.0918  0.6420
 3467TIP3    H231893   0.664   5.407   0.052 -1.1026  1.0470  2.5474
 3468TIP3   OH231894   1.375   2.001  10.841 -0.4705 -0.0181 -0.0633
 3468TIP3    H131895   1.450   1.954  10.804  0.1166  1.5787 -0.9748
 3468TIP3    H231896   1.300   1.971  10.788  0.0744  0.8580 -1.3880
 3469TIP3   OH231897   5.941   2.468   4.904 -0.4261 -0.4332  0.6441
 3469TIP3    H131898   5.912   2.433   4.988 -1.0040 -1.5202  0.0145
 3469TIP3    H231899   6.016   2.523   4.926 -0.5638 -0.6969  1.8681
 3470TIP3   OH231900   2.773   1.975   2.964 -0.4441 -0.3838  0.0129
 3470TIP3    H131901   2.780   1.883   2.939 -3.2771 -0.4361 -0.9922
 3470TIP3    H231902   2.750   2.020   2.883  0.0465  1.0896  0.6558
 3471TIP3   OH231903   2.982   3.780  10.669 -0.3475  0.2269 -0.0171
 3471TIP3    H131904   2.927   3.704  10.649 -0.5371 -0.1216  1.7229
 3471TIP3    H231905   3.070   3.744  10.675  0.0582  0.6908 -2.2121
 3472TIP3   OH231906   0.497   6.403  14.960 -0.5465  0.5013 -0.0720
 3472TIP3    H131907   0.583   6.381  14.923 -0.7152  0.7461 -0.6304
 3472TIP3    H231908   0.447   6.437  14.885 -0.5533  2.0242  0.5765
 3473TIP3   OH231909   1.646   5.341  14.187  0.6358  0.7624 -1.0295
 3473TIP3    H131910   1.574   5.405  14.179  0.8689  1.0204 -1.0999
 3473TIP3    H231911   1.712   5.387  14.239 -0.1276 -0.2613  0.9425
 3474TIP3   OH231912   6.240   5.885   3.361  0.2694 -0.0048 -0.2548
 3474TIP3    H131913   6.334   5.877   3.380  0.2025 -1.7648 -0.5083
 3474TIP3    H231914   6.212   5.963   3.408  2.1215  1.3138 -1.2157
 3475TIP3   OH231915   1.179   6.744   2.642  0.3326  0.1758  0.1557
 3475TIP3    H131916   1.273   6.753   2.624  0.4329  0.9607  1.0031
 3475TIP3    H231917   1.137   6.802   2.578  0.3986 -0.2907 -0.3249
 3476TIP3   OH231918   1.293   5.666  16.783  0.2162 -0.0007  0.3541
 3476TIP3    H131919   1.382   5.700  16.792 -0.0438  0.4851  1.3286
 3476TIP3    H231920   1.257   5.711  16.707  1.7988 -2.5423 -2.0882
 3477TIP3   OH231921   4.916   1.961  16.752  0.4159 -0.5774 -0.2764
 3477TIP3    H131922   4.868   1.951  16.834  0.6166 -0.4455 -0.1420
 3477TIP3    H231923   4.961   1.877  16.741  1.2590 -0.2164  0.3122
 3478TIP3   OH231924   1.619   3.538   1.150 -0.1926 -0.3253 -0.1205
 3478TIP3    H131925   1.711   3.517   1.168  0.4200  2.1181 -0.0398
 3478TIP3    H231926   1.603   3.502   1.062  0.7043 -1.1185  0.0267
 3479TIP3   OH231927   4.193   2.689   1.307  0.0664 -0.0651 -0.1060
 3479TIP3    H131928   4.266   2.693   1.245  0.6202  0.6874  0.5593
 3479TIP3    H231929   4.235   2.699   1.393 -0.8813  1.1133  0.2494
 3480TIP3   OH231930   4.292   4.141  17.046  0.6168  0.4961 -0.5040
 3480TIP3    H131931   4.209   4.141  16.999  1.1030  3.8268 -1.6350
 3480TIP3    H231932   4.356   4.109  16.983  0.7820  1.8878 -1.0626
 3481TIP3   OH231933   6.117   5.943  16.744  0.9777 -0.5571  0.8383
 3481TIP3    H131934   6.161   5.926  16.827  1.8008  0.5851  0.6590
 3481TIP3    H231935   6.050   6.008  16.764  0.1560 -1.4010  0.8798
 3482TIP3   OH231936   1.866   6.477   5.649 -0.4568 -0.8063  0.2224
 3482TIP3    H131937   1.826   6.447   5.730  0.1474  0.8313  1.1764
 3482TIP3    H231938   1.820   6.558   5.627 -0.9738 -1.4926 -1.3968
 3483TIP3   OH231939   2.693   0.141   2.007  0.2600  0.3559 -0.4422
 3483TIP3    H131940   2.615   0.108   2.050 -0.6902  1.1574 -1.5004
 3483TIP3    H231941   2.737   0.193   2.075  1.1629 -1.9915  0.8753
 3484TIP3   OH231942   4.904   0.338  10.605 -0.2286  0.4462 -0.2027
 3484TIP3    H131943   4.943   0.353  10.691  0.7006  0.6904 -0.6600
 3484TIP3    H231944   4.853   0.417  10.587 -0.9240  0.1421  0.3757
 3485TIP3   OH231945   2.041   4.159  14.449  0.1643  0.0240 -0.0162
 3485TIP3    H131946   2.129   4.130  14.473  0.6861 -0.7465 -2.5078
 3485TIP3    H231947   2.002   4.083  14.405 -0.9747  0.9797 -0.7230
 3486TIP3   OH231948   4.318   6.460  12.684  0.7809 -0.1905  0.3353
 3486TIP3    H131949   4.277   6.395  12.627  0.0597  1.5606 -1.2458
 3486TIP3    H231950   4.371   6.409  12.746  0.3915 -2.2361 -0.9564
 3487TIP3   OH231951   0.678   5.881  13.599 -0.1111  1.0836 -0.0435
 3487TIP3    H131952   0.729   5.818  13.649 -1.0400  0.3437  0.0072
 3487TIP3    H231953   0.587   5.852  13.608 -0.3841  1.3588 -1.5347
 3488TIP3   OH231954   3.917   2.519  13.880 -0.1219 -0.3141 -0.5296
 3488TIP3    H131955   3.825   2.528  13.857 -0.4371 -2.1202 -0.1488
 3488TIP3    H231956   3.954   2.464  13.811  0.7322  0.5501 -0.7865
 3489TIP3   OH231957   3.397   4.180  15.950  0.0206  0.0602  0.0140
 3489TIP3    H131958   3.481   4.157  15.989 -0.9478 -0.4463  1.9234
 3489TIP3    H231959   3.351   4.229  16.019 -2.3160 -2.0384  0.1087
 3490TIP3   OH231960   1.398   3.323   0.680 -0.4547  0.0026 -0.3707
 3490TIP3    H131961   1.330   3.380   0.643  0.4156  1.4319  0.1603
 3490TIP3    H231962   1.480   3.364   0.653  0.2629 -2.2993 -1.9296
 3491TIP3   OH231963   0.379   4.954  15.686  0.0075 -0.3801 -0.6417
 3491TIP3    H131964   0.318   4.984  15.754  0.1965 -1.6780  0.1324
 3491TIP3    H231965   0.407   4.867  15.715 -1.5299 -1.9436 -3.4247
 3492TIP3   OH231966   3.339   3.376  14.141 -0.0500  0.6340  0.4404
 3492TIP3    H131967   3.368   3.453  14.091  0.6314  1.6057  2.1921
 3492TIP3    H231968   3.308   3.413  14.224 -2.6887 -0.7552  0.1537
 3493TIP3   OH231969   0.165   5.010   2.562 -0.6403  0.8668  0.0079
 3493TIP3    H131970   0.113   5.019   2.643 -1.4212 -0.3689 -0.3191
 3493TIP3    H231971   0.251   4.981   2.593 -1.1348 -0.2708  0.3846
 3494TIP3   OH231972   2.548   1.430  12.847 -0.5939  0.6831  0.0506
 3494TIP3    H131973   2.618   1.491  12.867  0.0297  0.2721 -0.8164
 3494TIP3    H231974   2.585   1.344  12.867 -0.6211  0.4152 -1.0148
 3495TIP3   OH231975   4.345   5.611  14.547  0.4378  0.1365 -0.3937
 3495TIP3    H131976   4.408   5.549  14.511  0.0466 -1.1863  1.1111
 3495TIP3    H231977   4.262   5.586  14.507  0.2806 -0.3343  0.2106
 3496TIP3   OH231978   3.467   6.652  12.095  0.2281  0.3675 -0.3128
 3496TIP3    H131979   3.558   6.630  12.078  0.2863  1.4008 -1.4713
 3496TIP3    H231980   3.453   6.628  12.187  1.1323 -1.4735 -0.6227
 3497TIP3   OH231981   5.970   3.237   5.011  0.0619  0.3925 -0.0529
 3497TIP3    H131982   6.015   3.292   4.947  2.0165  0.0265  0.9291
 3497TIP3    H231983   5.907   3.187   4.960 -0.1360  1.8379 -1.3098
 3498TIP3   OH231984   6.769   4.404   2.712 -0.4424  0.2092 -0.1660
 3498TIP3    H131985   6.723   4.397   2.628  0.3901 -0.3397 -0.5999
 3498TIP3    H231986   6.814   4.320   2.721  2.4392  1.5499 -0.9714
 3499TIP3   OH231987   0.655   4.978   4.051 -0.1429 -0.0098 -0.7622
 3499TIP3    H131988   0.618   5.065   4.068  0.8568  0.6417 -1.7545
 3499TIP3    H231989   0.591   4.934   3.996 -1.3719 -0.5170  0.9667
 3500TIP3   OH231990   3.321   2.490  13.736 -0.3923  0.0584  0.9008
 3500TIP3    H131991   3.362   2.529  13.813  1.3910  0.3025 -0.1258
 3500TIP3    H231992   3.232   2.525  13.735  0.0115  1.1505  2.0616
 3501TIP3   OH231993   3.674   1.565   6.329 -0.4850 -0.6544 -0.1602
 3501TIP3    H131994   3.737   1.519   6.274 -1.2270 -0.3448 -1.3275
 3501TIP3    H231995   3.589   1.529   6.303 -0.9282  0.1503  0.1226
 3502TIP3   OH231996   4.754   1.199   4.680  0.4267  0.2042 -0.4470
 3502TIP3    H131997   4.803   1.218   4.600  2.0891  2.5128  0.9855
 3502TIP3    H231998   4.691   1.270   4.688  0.8137  0.4436  0.6685
 3503TIP3   OH231999   1.290   2.838   2.004 -0.2061  0.1201  0.4578
 3503TIP3    H132000   1.353   2.842   1.932 -1.0658  0.1357 -0.3170
 3503TIP3    H232001   1.214   2.794   1.966 -0.5774 -0.1005  1.4383
 3504TIP3   OH232002   3.503   5.262   4.258  0.0637  0.2743  0.0695
 3504TIP3    H132003   3.559   5.220   4.324  2.1883  1.7272 -0.7150
 3504TIP3    H232004   3.441   5.193   4.232 -0.0462 -0.7134  2.6285
 3505TIP3   OH232005   3.634   4.541  11.730 -0.1693  0.2604 -0.1555
 3505TIP3    H132006   3.717   4.552  11.777  0.3564  0.0405 -1.0074
 3505TIP3    H232007   3.570   4.586  11.784  0.7060  1.4029 -0.0235
 3506TIP3   OH232008   2.059   1.500   1.797  0.1323  0.3475 -0.3474
 3506TIP3    H132009   1.969   1.484   1.825  0.1913 -1.9981 -1.2592
 3506TIP3    H232010   2.096   1.555   1.866 -1.1681 -0.9957  1.5312
 3507TIP3   OH232011   1.878   1.539  14.350 -0.1194  0.1150 -0.2962
 3507TIP3    H132012   1.965   1.502  14.334 -0.2831 -0.9789  1.1222
 3507TIP3    H232013   1.881   1.625  14.309  2.1953  0.7978  1.0809
 3508TIP3   OH232014   4.105   3.590   2.385  0.0271 -0.2798  0.3776
 3508TIP3    H132015   4.072   3.653   2.322 -4.3896 -0.1961  2.3816
 3508TIP3    H232016   4.088   3.505   2.346 -0.5506 -0.2223  0.4992
 3509TIP3   OH232017   2.151   2.747  15.314  0.2034  0.0903  0.6954
 3509TIP3    H132018   2.182   2.670  15.265  0.9731  0.2784  0.8665
 3509TIP3    H232019   2.230   2.799  15.329 -0.1997  0.5765  1.1830
 3510TIP3   OH232020   6.408   1.879  15.192  0.0454 -0.3248 -0.2766
 3510TIP3    H132021   6.461   1.872  15.271 -0.5462  0.1598  0.1688
 3510TIP3    H232022   6.471   1.870  15.120  0.4357 -1.9724  0.2247
 3511TIP3   OH232023   4.129   0.002   4.376 -0.0669  0.2659 -0.2702
 3511TIP3    H132024   4.124   0.093   4.408 -2.9690 -0.5202  1.9632
 3511TIP3    H232025   4.219  -0.024   4.392 -0.1032  1.5954  2.9049
 3512TIP3   OH232026   1.830   1.917  14.595 -0.1209 -0.8617  0.4653
 3512TIP3    H132027   1.812   1.824  14.583 -0.8271 -0.9285  1.8862
 3512TIP3    H232028   1.744   1.957  14.606  0.1564  0.0271 -0.3907
 3513TIP3   OH232029   1.491   6.010   3.635 -0.1577 -0.1307  0.0807
 3513TIP3    H132030   1.484   5.953   3.558  1.3527 -0.2964  0.0408
 3513TIP3    H232031   1.416   5.986   3.689 -0.4111 -1.0641 -0.6528
 3514TIP3   OH232032   3.611   0.720   0.658  0.1357  0.5438  0.2494
 3514TIP3    H132033   3.527   0.691   0.693 -0.1461  0.5062 -0.4351
 3514TIP3    H232034   3.676   0.673   0.710 -0.2607  0.6012  0.8106
 3515TIP3   OH232035   3.851   5.063  16.516  0.8487  0.1358 -0.1312
 3515TIP3    H132036   3.898   5.141  16.486  1.4835  0.3319  1.3187
 3515TIP3    H232037   3.766   5.096  16.545  2.1807  0.8729  3.3767
 3516TIP3   OH232038   6.499   3.556   3.286  0.3036  1.0698 -0.2199
 3516TIP3    H132039   6.497   3.601   3.370 -0.4316  2.1061 -0.7693
 3516TIP3    H232040   6.570   3.493   3.294 -0.6129  0.1820  1.6667
 3517TIP3   OH232041   1.929   1.310   1.260 -0.1004 -0.3188 -0.0480
 3517TIP3    H132042   1.868   1.333   1.191 -0.4239  0.9774  0.6497
 3517TIP3    H232043   1.876   1.262   1.324 -0.4087  0.7417  0.5218
 3518TIP3   OH232044   5.761   2.367   0.461  0.0163 -0.2950 -0.0332
 3518TIP3    H132045   5.824   2.307   0.501 -0.8113 -0.7861  0.5525
 3518TIP3    H232046   5.788   2.453   0.491 -0.3935 -0.6268  1.3439
 3519TIP3   OH232047   4.063   4.138  12.757  0.6239  0.5004 -0.1005
 3519TIP3    H132048   3.968   4.147  12.764  0.4018  0.3512 -2.1584
 3519TIP3    H232049   4.096   4.227  12.754  0.5580  0.5527  0.6283
 3520TIP3   OH232050   4.920   2.097   5.961 -0.0819 -1.0990 -0.3555
 3520TIP3    H132051   4.996   2.136   6.005 -0.1484 -0.3716 -0.8854
 3520TIP3    H232052   4.900   2.019   6.014 -0.7792  0.2732  1.5084
 3521TIP3   OH232053   3.856   6.451  10.867 -0.2823 -0.2231  0.2108
 3521TIP3    H132054   3.833   6.519  10.803  0.7549  0.7380  0.8290
 3521TIP3    H232055   3.920   6.396  10.822  0.6508  0.6115  0.4832
 3522TIP3   OH232056   3.209   2.654  11.626  0.2593  0.0588  0.4808
 3522TIP3    H132057   3.134   2.658  11.685 -0.3129  1.0153 -0.2815
 3522TIP3    H232058   3.171   2.663  11.538  0.9858 -2.1858 -0.1446
 3523TIP3   OH232059   5.780   1.316  14.676  0.2851  0.8791 -0.0578
 3523TIP3    H132060   5.721   1.284  14.608 -1.3433  1.0626  1.2124
 3523TIP3    H232061   5.786   1.410  14.662  0.1006  0.8878 -0.0855
 3524TIP3   OH232062   3.067   1.943   0.160 -0.0729 -0.3160 -0.1839
 3524TIP3    H132063   2.982   1.968   0.124 -0.0015  1.8447  0.9419
 3524TIP3    H232064   3.093   2.018   0.214  0.4689 -2.6750  3.1826
 3525TIP3   OH232065   4.235   1.118  15.395 -0.4389  0.1498 -0.4519
 3525TIP3    H132066   4.318   1.107  15.441 -0.1192  2.5306 -0.3464
 3525TIP3    H232067   4.261   1.139  15.305 -0.9531 -0.2809 -0.7019
 3526TIP3   OH232068   0.214   2.330  14.796 -0.4031 -0.6939  0.0145
 3526TIP3    H132069   0.133   2.352  14.749 -0.6851 -0.7072  0.4947
 3526TIP3    H232070   0.267   2.409  14.790 -0.8726 -0.3306  0.5859
 3527TIP3   OH232071   6.262   6.597   5.889 -0.3271 -0.5489  0.5002
 3527TIP3    H132072   6.203   6.669   5.908 -1.7773 -1.1346 -1.5091
 3527TIP3    H232073   6.266   6.547   5.971  1.0756  1.9369  2.0954
 3528TIP3   OH232074   6.461   0.749  12.886 -0.0182 -0.6024  0.1261
 3528TIP3    H132075   6.548   0.722  12.914  0.1633 -0.1037  0.0481
 3528TIP3    H232076   6.410   0.752  12.967  0.3460  0.2437  0.3323
 3529TIP3   OH232077   3.259   0.863   6.223  0.2547 -0.2686  0.2814
 3529TIP3    H132078   3.220   0.937   6.175  0.9874 -0.3950 -0.5368
 3529TIP3    H232079   3.229   0.875   6.313 -0.5172  0.4220 -0.0503
 3530TIP3   OH232080   0.358   6.623  11.892 -0.0174 -0.3171  0.2262
 3530TIP3    H132081   0.374   6.690  11.826  1.0725 -0.4571  0.3307
 3530TIP3    H232082   0.304   6.557  11.848  2.8483 -1.7294 -1.4075
 3531TIP3   OH232083   0.139   5.044   6.054  0.2968  0.2290  0.1193
 3531TIP3    H132084   0.114   4.952   6.039  1.2598 -0.1736  0.8900
 3531TIP3    H232085   0.120   5.088   5.971  0.5078 -0.8200 -0.5007
 3532TIP3   OH232086   1.050   4.140  12.230  0.7591  0.2086 -0.3317
 3532TIP3    H132087   1.093   4.056  12.216 -0.3634 -0.4387 -0.0207
 3532TIP3    H232088   1.037   4.145  12.325 -1.2738 -0.3667 -0.5427
 3533TIP3   OH232089   2.516   1.068   0.978  0.3363  0.1181 -0.1344
 3533TIP3    H132090   2.600   1.033   1.009  0.1364  0.7483  1.1851
 3533TIP3    H232091   2.454   0.996   0.994  0.3099  0.2914  0.5968
 3534TIP3   OH232092   0.012   2.373   4.813  0.3283 -0.4009  0.0744
 3534TIP3    H132093  -0.058   2.333   4.762  0.5944 -0.5012 -0.2160
 3534TIP3    H232094   0.088   2.316   4.798  0.7398  0.2667 -0.4301
 3535TIP3   OH232095   2.260   5.524  15.084  0.4775 -0.0179 -0.2421
 3535TIP3    H132096   2.183   5.558  15.129 -0.4060 -2.3862  0.1549
 3535TIP3    H232097   2.242   5.537  14.991  0.4316  1.0345 -0.1030
 3536TIP3   OH232098   2.090   6.765  11.774 -0.0862  0.3737  0.0242
 3536TIP3    H132099   2.115   6.677  11.801  0.0519 -0.0697 -1.4985
 3536TIP3    H232100   2.076   6.812  11.857 -2.9875 -1.8178  0.9424
 3537TIP3   OH232101   0.712   5.439   5.451  0.6021  0.2192  0.3289
 3537TIP3    H132102   0.739   5.356   5.412 -1.5659  0.3394 -1.6471
 3537TIP3    H232103   0.636   5.416   5.505  0.0979  0.8741 -0.0919
 3538TIP3   OH232104   5.616   6.539   4.074 -0.8740  0.0577  0.4426
 3538TIP3    H132105   5.622   6.490   4.156 -1.3500 -0.6052  0.0923
 3538TIP3    H232106   5.523   6.555   4.061 -1.0015 -1.4991 -0.8943
 3539TIP3   OH232107   5.669   6.064  12.215  0.1447  0.1209  0.3022
 3539TIP3    H132108   5.635   6.126  12.151 -0.5853  0.5480  1.0697
 3539TIP3    H232109   5.590   6.027  12.257  0.5975  0.0561  1.1274
 3540TIP3   OH232110   0.547   6.220   3.783 -0.3669  0.4342 -0.0682
 3540TIP3    H132111   0.540   6.160   3.708 -1.6725  1.6968 -1.0021
 3540TIP3    H232112   0.560   6.306   3.744  1.6905  0.7998  1.2550
 3541TIP3   OH232113   2.330   1.792  14.672 -0.6702  0.4329  0.0465
 3541TIP3    H132114   2.398   1.804  14.738 -0.8252 -1.9530  0.7387
 3541TIP3    H232115   2.248   1.790  14.722 -0.9050 -0.1715 -0.3494
 3542TIP3   OH232116   5.377   3.854   0.541  0.2415  0.4135  0.0582
 3542TIP3    H132117   5.462   3.868   0.499  0.2772 -1.9776 -0.7981
 3542TIP3    H232118   5.325   3.930   0.515  1.7156  1.3075 -0.4278
 3543TIP3   OH232119   1.565   0.554  14.071  0.7348  0.3049  0.0846
 3543TIP3    H132120   1.639   0.570  14.129  0.6258 -1.0318  0.6356
 3543TIP3    H232121   1.584   0.468  14.031 -0.2372  0.2056 -0.1876
 3544TIP3   OH232122   6.566   4.707   2.457  0.7324  0.0561 -0.9512
 3544TIP3    H132123   6.548   4.624   2.413 -0.4381 -0.3481  0.2192
 3544TIP3    H232124   6.547   4.774   2.392  0.4496 -0.5654 -1.5174
 3545TIP3   OH232125   1.939   0.702   0.701  0.0950  0.4932 -0.3350
 3545TIP3    H132126   1.941   0.620   0.750  4.3931  0.8077  0.3891
 3545TIP3    H232127   1.907   0.766   0.763  1.8378  0.2125  0.9234
 3546TIP3   OH232128   0.277   2.310  11.038 -0.1569  0.1900  0.0507
 3546TIP3    H132129   0.261   2.393  10.993  2.1178  0.3845 -0.5239
 3546TIP3    H232130   0.216   2.248  10.997  0.0112  0.9735 -1.4533
 3547TIP3   OH232131   1.833   3.680  11.566 -0.0275 -0.4696  0.2170
 3547TIP3    H132132   1.749   3.712  11.601 -0.5045 -0.4005 -0.9379
 3547TIP3    H232133   1.812   3.594  11.529 -0.2409  0.5820 -2.3753
 3548TIP3   OH232134   5.163   1.549  14.049 -0.3497 -0.3782 -0.1328
 3548TIP3    H132135   5.116   1.482  14.100 -1.1977 -0.5549 -1.1080
 3548TIP3    H232136   5.109   1.562  13.971  0.8068  0.0353 -0.8936
 3549TIP3   OH232137   6.167   0.265  15.286  0.0646 -0.3065 -0.3326
 3549TIP3    H132138   6.169   0.198  15.217  1.8450 -0.2709 -0.3514
 3549TIP3    H232139   6.248   0.314  15.275 -0.0494  0.2999  1.2233
 3550TIP3   OH232140   6.458   6.518  13.673 -0.1997  0.6767 -0.8227
 3550TIP3    H132141   6.419   6.535  13.588  0.5952  2.3897 -0.8798
 3550TIP3    H232142   6.387   6.482  13.726 -1.0247  0.8160 -1.8160
 3551TIP3   OH232143   3.331   3.403   1.499  0.1054  0.0849  0.3952
 3551TIP3    H132144   3.367   3.464   1.434 -0.9340  2.9482  2.2960
 3551TIP3    H232145   3.352   3.317   1.465  1.1598  1.4489 -2.8202
 3552TIP3   OH232146   0.717   1.500   3.929 -0.6000  0.2643  0.5652
 3552TIP3    H132147   0.696   1.487   4.021  0.1210  0.7885  0.8164
 3552TIP3    H232148   0.725   1.595   3.919 -1.8681  0.3088 -0.3225
 3553TIP3   OH232149   5.969   4.539  15.238 -0.0204 -0.6929  0.3230
 3553TIP3    H132150   6.059   4.528  15.269 -0.7240 -1.6643  2.2272
 3553TIP3    H232151   5.975   4.532  15.143  2.1151  1.0258  0.2391
 3554TIP3   OH232152   5.881   6.047  10.429  0.8125  0.1040  0.2778
 3554TIP3    H132153   5.914   5.957  10.418  0.9549  0.0646  0.9834
 3554TIP3    H232154   5.934   6.083  10.499  1.2046  0.9749 -0.4490
 3555TIP3   OH232155   2.919   6.306  11.401  0.9442  0.0439 -0.4096
 3555TIP3    H132156   2.892   6.330  11.312  0.4109  2.2296  0.2747
 3555TIP3    H232157   3.015   6.302  11.396  0.9334  0.3923 -1.0311
 3556TIP3   OH232158   3.019   6.065   5.541 -0.5909 -0.0654 -0.3689
 3556TIP3    H132159   3.004   6.107   5.456 -0.2578 -0.6065 -0.6998
 3556TIP3    H232160   2.950   6.100   5.598 -0.2674  0.9933 -0.6070
 3557TIP3   OH232161   5.137   0.355   3.569  0.2400 -0.4805 -1.2232
 3557TIP3    H132162   5.171   0.443   3.578 -0.4894 -0.0012 -2.8020
 3557TIP3    H232163   5.058   0.365   3.516  0.6845 -2.1866 -2.2939
 3558TIP3   OH232164   2.752   4.290  11.300 -0.0432  0.2725 -0.1902
 3558TIP3    H132165   2.715   4.211  11.261  0.4980  0.4041 -0.9895
 3558TIP3    H232166   2.702   4.362  11.259 -0.5698  0.3541  0.5705
 3559TIP3   OH232167   6.673   1.417  16.498 -0.1644 -0.1508  0.3227
 3559TIP3    H132168   6.694   1.419  16.405  1.3125  0.3598  0.6404
 3559TIP3    H232169   6.617   1.339  16.508 -0.7966  0.0917 -1.0562
 3560TIP3   OH232170   5.415   3.910   2.412  0.2893  0.1687  0.2953
 3560TIP3    H132171   5.441   3.900   2.320  0.5923 -2.8093  0.6112
 3560TIP3    H232172   5.334   3.961   2.409  0.7331  0.8347 -1.5335
 3561TIP3   OH232173   5.534   6.000   5.190 -0.2030 -0.8649 -0.3014
 3561TIP3    H132174   5.525   6.052   5.271  0.4698  0.0357 -0.7798
 3561TIP3    H232175   5.555   5.912   5.220  0.4763 -0.4383  0.5009
 3562TIP3   OH232176   4.549   2.511   0.715 -0.3531  0.9181  0.1247
 3562TIP3    H132177   4.474   2.504   0.774 -0.6089  0.8648 -0.2058
 3562TIP3    H232178   4.555   2.425   0.673 -1.1399  1.4296 -1.0879
 3563TIP3   OH232179   1.473   5.243  10.786  0.5282  0.0589 -0.3258
 3563TIP3    H132180   1.547   5.295  10.818 -0.1743  0.9972 -0.2014
 3563TIP3    H232181   1.499   5.217  10.697  0.9595  0.4594 -0.3180
 3564TIP3   OH232182   3.808   0.984   0.603 -1.0734 -0.8945 -0.7927
 3564TIP3    H132183   3.807   1.028   0.518  0.9619 -0.5305 -0.6702
 3564TIP3    H232184   3.811   0.891   0.583  0.7222 -0.7877 -1.1948
 3565TIP3   OH232185   2.529   5.376  13.250  0.1389  0.3007  0.3410
 3565TIP3    H132186   2.614   5.331  13.247 -0.2535 -0.4194 -0.5864
 3565TIP3    H232187   2.548   5.466  13.224  0.5893  0.0818 -0.1067
 3566TIP3   OH232188   4.604   1.107   6.267 -0.0270 -0.0176 -0.3341
 3566TIP3    H132189   4.565   1.019   6.271  1.7997 -0.8582  0.0851
 3566TIP3    H232190   4.608   1.136   6.358  3.5059 -1.4977  0.1322
 3567TIP3   OH232191   4.761   6.455   2.878 -0.3698 -0.2211 -0.4058
 3567TIP3    H132192   4.741   6.479   2.787  1.3971  0.5352 -0.6364
 3567TIP3    H232193   4.810   6.530   2.912 -0.9446 -0.5233  1.1827
 3568TIP3   OH232194   3.586   2.861  12.262  0.4820  0.4549 -0.1845
 3568TIP3    H132195   3.643   2.935  12.281 -0.9366  1.1738  1.5756
 3568TIP3    H232196   3.502   2.900  12.241 -0.1747 -0.6284  0.3138
 3569TIP3   OH232197   0.920   4.942  11.115  0.1695  0.2589  0.4563
 3569TIP3    H132198   0.911   4.847  11.126  0.8114  0.0921 -0.3436
 3569TIP3    H232199   1.014   4.956  11.101  0.2272  1.1298  1.5495
 3570TIP3   OH232200   2.471   6.074   4.130  0.2217  0.3332 -0.3163
 3570TIP3    H132201   2.492   5.983   4.150 -2.1519 -0.1956  0.0383
 3570TIP3    H232202   2.444   6.111   4.214 -3.4047 -0.0444 -1.1633
 3571TIP3   OH232203   2.846   6.432   5.148  0.3257 -0.0215  1.1798
 3571TIP3    H132204   2.881   6.521   5.148  0.6282 -0.1249  0.4249
 3571TIP3    H232205   2.890   6.390   5.074 -0.5537 -0.5050  0.9160
 3572TIP3   OH232206   0.395   1.088   0.586 -0.7310  0.1445  0.0332
 3572TIP3    H132207   0.457   1.040   0.641 -0.2742  0.9007  0.1755
 3572TIP3    H232208   0.426   1.178   0.586 -0.9659  0.2439 -1.1253
 3573TIP3   OH232209   1.002   5.688  12.239  0.4265  0.0523  0.5409
 3573TIP3    H132210   1.019   5.674  12.145 -0.3644 -1.1250  0.5488
 3573TIP3    H232211   0.913   5.723  12.242  0.3165 -0.2450  0.8600
 3574TIP3   OH232212   1.656   3.567  14.087  0.0662 -0.7972  0.4219
 3574TIP3    H132213   1.637   3.623  14.163  2.0331 -1.3819  1.3995
 3574TIP3    H232214   1.707   3.622  14.028 -0.7932 -0.5883 -0.1503
 3575TIP3   OH232215   2.937   2.489  13.502 -0.4768  0.0378  0.3661
 3575TIP3    H132216   2.984   2.416  13.460 -0.0620  0.0101  0.8729
 3575TIP3    H232217   2.917   2.548  13.430 -0.7671 -0.5503 -0.0473
 3576TIP3   OH232218   4.460   1.610   1.495 -0.5298  0.7456 -0.1005
 3576TIP3    H132219   4.417   1.689   1.462  1.8047  1.6198 -1.2876
 3576TIP3    H232220   4.431   1.540   1.437  0.4461  1.5251 -1.5930
 3577TIP3   OH232221   0.487   0.220   0.062 -0.2938 -0.3795  0.8756
 3577TIP3    H132222   0.576   0.239   0.090 -0.7546  1.2604  1.2991
 3577TIP3    H232223   0.468   0.284  -0.006  0.0851 -2.9955 -1.9100
 3578TIP3   OH232224   1.840   1.314   3.964  0.5286 -0.5645  0.3432
 3578TIP3    H132225   1.889   1.234   3.945 -1.1946 -1.6973  0.4542
 3578TIP3    H232226   1.849   1.326   4.058  0.7119 -0.6774  0.3412
 3579TIP3   OH232227   6.256   1.983  11.442  0.4747  0.0519  0.2703
 3579TIP3    H132228   6.337   1.937  11.418  0.8849  0.4254  0.9054
 3579TIP3    H232229   6.232   1.947  11.528 -0.7912 -1.0345 -0.4991
 3580TIP3   OH232230   1.165   5.348  12.656  0.2662  0.0404  0.2662
 3580TIP3    H132231   1.238   5.390  12.611 -0.5313 -0.8563 -1.9731
 3580TIP3    H232232   1.100   5.418  12.666  0.5572  0.3104  0.2978
 3581TIP3   OH232233   1.096   1.038   0.004  0.2551 -0.3203  0.2960
 3581TIP3    H132234   1.143   0.972   0.055  1.0917  0.3167  0.3755
 3581TIP3    H232235   1.097   1.116   0.059 -0.1493 -0.0549 -0.0695
 3582TIP3   OH232236   5.609   4.894   1.326  0.1145 -0.3393 -0.2091
 3582TIP3    H132237   5.681   4.880   1.264  1.3269 -1.7593  1.4171
 3582TIP3    H232238   5.535   4.921   1.271  1.2636 -1.0032 -2.1987
 3583TIP3   OH232239   4.013   0.337   2.893  0.5850  0.1849  0.3177
 3583TIP3    H132240   4.106   0.314   2.882  0.0154 -1.3201 -2.4858
 3583TIP3    H232241   4.003   0.418   2.843  0.0054 -0.9581 -1.5315
 3584TIP3   OH232242   0.389   1.541   4.703 -0.2942 -0.6015 -0.5470
 3584TIP3    H132243   0.342   1.607   4.652 -0.1244 -0.1129 -0.0875
 3584TIP3    H232244   0.330   1.521   4.776  0.9114  1.3898  1.0858
 3585TIP3   OH232245   5.056   1.561  12.085 -0.0776 -0.3216  0.1497
 3585TIP3    H132246   5.140   1.605  12.075  0.0280 -0.2537  1.2826
 3585TIP3    H232247   4.995   1.613  12.033  0.6367 -0.5890 -1.0017
 3586TIP3   OH232248   4.551   4.909  16.148  0.1873 -0.2664 -0.2739
 3586TIP3    H132249   4.576   4.823  16.115  1.0870 -0.2796  0.4081
 3586TIP3    H232250   4.508   4.952  16.074  0.6018 -0.9433 -0.9176
 3587TIP3   OH232251   3.170   6.121   5.112 -0.1510 -0.4819  0.2290
 3587TIP3    H132252   3.263   6.123   5.088 -0.1145  1.0388  0.3805
 3587TIP3    H232253   3.154   6.032   5.143  1.3878 -0.6137  0.6993
 3588TIP3   OH232254   1.604   2.860  11.788  0.0124 -0.1800  0.1524
 3588TIP3    H132255   1.697   2.846  11.768 -0.0885  0.8144 -1.1780
 3588TIP3    H232256   1.561   2.781  11.755  0.3673 -0.6470  0.7776
 3589TIP3   OH232257   0.680   1.334  11.834 -0.2207  0.3526 -0.0033
 3589TIP3    H132258   0.592   1.309  11.806 -0.3882  1.3886 -0.4381
 3589TIP3    H232259   0.718   1.254  11.870 -0.2218 -0.8971 -2.5940
 3590TIP3   OH232260   2.385   6.795  12.341  0.8720  1.0115 -0.3519
 3590TIP3    H132261   2.462   6.803  12.397  1.6018 -0.5423 -1.0662
 3590TIP3    H232262   2.416   6.821  12.254 -0.0198  2.5311 -0.2620
 3591TIP3   OH232263   6.170   0.507   3.641 -0.0943 -0.3134 -0.3194
 3591TIP3    H132264   6.239   0.455   3.682  0.5256  1.7972  1.5512
 3591TIP3    H232265   6.145   0.457   3.564  1.1816 -2.7929  0.7445
 3592TIP3   OH232266   4.530   5.182   2.524 -0.8027 -0.0226 -0.0015
 3592TIP3    H132267   4.624   5.179   2.546 -0.2715  1.1128 -1.9241
 3592TIP3    H232268   4.493   5.243   2.587 -0.0625  0.2815  0.1511
 3593TIP3   OH232269   2.211   5.978   0.148 -0.3353 -0.1189 -0.0966
 3593TIP3    H132270   2.224   6.073   0.156  0.0578  0.0872 -2.4837
 3593TIP3    H232271   2.139   5.970   0.085  0.9734 -1.3834 -1.4939
 3594TIP3   OH232272   2.304   6.614  15.151 -0.1927 -0.1294 -0.0157
 3594TIP3    H132273   2.390   6.580  15.125 -0.3487 -1.1728  0.7654
 3594TIP3    H232274   2.284   6.682  15.086  1.5449  0.6632  0.2221
 3595TIP3   OH232275   6.799   5.875   5.755  0.1900 -0.2394  0.0522
 3595TIP3    H132276   6.862   5.945   5.771  1.0564 -0.6256 -1.5114
 3595TIP3    H232277   6.715   5.920   5.746  0.4105  0.3914  0.9605
 3596TIP3   OH232278   0.635   2.565   1.993 -0.1440 -0.1274 -0.1122
 3596TIP3    H132279   0.610   2.528   1.908 -1.5197  0.8024 -0.1412
 3596TIP3    H232280   0.646   2.489   2.050 -0.7591 -0.6840 -0.7247
 3597TIP3   OH232281   2.750   4.493   4.299  0.7589 -0.0490  0.0645
 3597TIP3    H132282   2.744   4.491   4.204  0.4575 -1.5142  0.0854
 3597TIP3    H232283   2.844   4.482   4.317  0.7490 -0.3913 -0.0714
 3598TIP3   OH232284   6.209   3.369   2.466  0.2210 -0.0118  0.1987
 3598TIP3    H132285   6.299   3.400   2.477  0.5984 -0.8909 -0.3915
 3598TIP3    H232286   6.213   3.306   2.395 -1.0606  0.7363 -0.5708
 3599TIP3   OH232287   0.697   4.401  14.751  0.6986 -0.2219 -0.4985
 3599TIP3    H132288   0.761   4.456  14.797  3.0167 -1.5085 -2.0040
 3599TIP3    H232289   0.652   4.462  14.691  1.3382  0.5094 -0.2490
 3600TIP3   OH232290   6.586   0.483   4.036  0.1184 -0.4285  0.2258
 3600TIP3    H132291   6.648   0.540   4.082 -0.1766  0.6176 -0.6187
 3600TIP3    H232292   6.641   0.429   3.979  0.2529  1.6573 -1.7926
 3601TIP3   OH232293   0.524   2.047  14.745 -0.2298 -0.4657 -0.3321
 3601TIP3    H132294   0.564   1.962  14.765  0.7789 -0.0437 -0.4967
 3601TIP3    H232295   0.430   2.031  14.752 -0.1457 -1.9915 -1.9106
 3602TIP3   OH232296   5.248   5.827   3.029  0.2095 -0.1128  0.0653
 3602TIP3    H132297   5.320   5.787   2.980 -0.1261  0.3591 -0.8438
 3602TIP3    H232298   5.272   5.814   3.121  0.3761 -1.9019 -0.1832
 3603TIP3   OH232299   5.350   2.113  13.117 -0.6901  0.5112 -0.1867
 3603TIP3    H132300   5.350   2.155  13.203 -1.8816 -1.4785  0.8564
 3603TIP3    H232301   5.294   2.036  13.128  0.9062 -1.0421 -2.1266
 3604TIP3   OH232302   6.131   4.537  16.647 -0.0460 -0.1283  0.3581
 3604TIP3    H132303   6.117   4.479  16.573 -0.2985 -2.3962  2.0624
 3604TIP3    H232304   6.223   4.563  16.640 -0.1247 -0.1379 -0.8390
 3605TIP3   OH232305   4.826   1.653  12.987  0.6573 -0.2140  0.2774
 3605TIP3    H132306   4.897   1.626  13.044  1.9128 -0.2945 -1.2639
 3605TIP3    H232307   4.868   1.704  12.918 -0.9670  0.9298  0.0786
 3606TIP3   OH232308   4.187   3.280   1.920  0.3638 -0.3581  0.2444
 3606TIP3    H132309   4.242   3.205   1.943  1.9729 -0.3921 -3.1067
 3606TIP3    H232310   4.144   3.254   1.839  0.2984  2.0008 -0.5491
 3607TIP3   OH232311   6.097   3.337  12.346  0.3129 -0.2777  0.4735
 3607TIP3    H132312   6.137   3.250  12.341  0.2693 -0.2653 -0.1425
 3607TIP3    H232313   6.163   3.391  12.389  1.1397 -0.1651 -0.8836
 3608TIP3   OH232314   2.687   3.577  15.147  0.1560 -0.2381  0.3030
 3608TIP3    H132315   2.660   3.533  15.066  0.5375 -1.9067  1.0338
 3608TIP3    H232316   2.668   3.669  15.132 -2.4128 -0.8302 -0.6302
 3609TIP3   OH232317   4.922   0.517   1.673  0.2812 -0.0151 -0.3157
 3609TIP3    H132318   4.883   0.549   1.755  1.7920  0.0197  0.4380
 3609TIP3    H232319   4.969   0.592   1.638  2.7307 -0.9082  0.7659
 3610TIP3   OH232320   6.205   2.543   1.988  0.1926 -0.3441  0.1275
 3610TIP3    H132321   6.245   2.546   1.901  0.6248 -0.0998  0.3341
 3610TIP3    H232322   6.240   2.463   2.028  0.7699  0.0682  0.4496
 3611TIP3   OH232323   0.243   2.589   1.598 -0.0524 -0.1760 -0.0769
 3611TIP3    H132324   0.214   2.658   1.539  0.8587  0.9334  0.7124
 3611TIP3    H232325   0.322   2.554   1.557 -0.6814 -0.9815 -0.6277
 3612TIP3   OH232326   0.370   0.806   2.415  0.0500 -0.4672  0.1221
 3612TIP3    H132327   0.429   0.860   2.362  0.7030 -0.3065  1.0055
 3612TIP3    H232328   0.304   0.867   2.446 -0.6968 -0.6738 -0.9878
 3613TIP3   OH232329   0.184   4.307  15.070  0.3846  0.3275 -0.1668
 3613TIP3    H132330   0.103   4.318  15.120 -0.3840  0.3335 -1.3764
 3613TIP3    H232331   0.217   4.221  15.097  1.9247  1.7257  2.9980
 3614TIP3   OH232332   5.018   5.994   1.250  0.0800 -0.3532 -0.1512
 3614TIP3    H132333   4.928   5.966   1.234  0.4790 -0.4850 -2.5402
 3614TIP3    H232334   5.067   5.958   1.177  2.2050 -0.7290  1.3714
 3615TIP3   OH232335   6.742   1.838   1.591 -0.3998  0.1992  0.0003
 3615TIP3    H132336   6.823   1.855   1.639 -1.3952  0.2665  1.7172
 3615TIP3    H232337   6.751   1.891   1.511  1.1444  0.3531  0.2297
 3616TIP3   OH232338   3.084   5.818  16.569 -0.0008 -0.1637 -0.2744
 3616TIP3    H132339   3.123   5.731  16.569  0.0093 -0.1733  0.9061
 3616TIP3    H232340   3.154   5.876  16.599  0.8586  0.7150 -3.5215
 3617TIP3   OH232341   4.513   0.077   3.960  0.3845 -0.5196 -0.0212
 3617TIP3    H132342   4.467   0.140   3.904  0.1970  0.6979  1.4104
 3617TIP3    H232343   4.496   0.109   4.049 -1.1959 -3.5954  0.9385
 3618TIP3   OH232344   6.018   5.478   4.702  0.5199  0.0782  0.8663
 3618TIP3    H132345   5.938   5.431   4.727 -1.0990  1.2660 -1.6863
 3618TIP3    H232346   6.072   5.411   4.660  1.7097 -1.1027  3.9685
 3619TIP3   OH232347   3.705   2.836   4.110 -0.0463 -0.2591 -0.4745
 3619TIP3    H132348   3.697   2.922   4.068  2.8069 -0.1435 -1.0225
 3619TIP3    H232349   3.796   2.811   4.093  0.7440 -1.1160  3.9570
 3620TIP3   OH232350   3.991   3.907  17.289 -0.0729  0.3727  0.1859
 3620TIP3    H132351   3.916   3.912  17.230  0.6535 -1.4148 -0.9831
 3620TIP3    H232352   4.025   3.818  17.277  2.0970  1.0521  0.8323
 3621TIP3   OH232353   0.074   1.178  13.505  0.2929 -0.5190  0.4629
 3621TIP3    H132354   0.107   1.099  13.462  1.3983  0.1050  0.1281
 3621TIP3    H232355  -0.019   1.161  13.518  0.4222 -1.6913 -0.0126
 3622TIP3   OH232356   5.850   5.830   4.196  0.5361 -0.8608  0.1840
 3622TIP3    H132357   5.871   5.737   4.188 -1.0749 -1.1410 -1.4182
 3622TIP3    H232358   5.771   5.833   4.250  0.6441 -0.4035  0.3225
 3623TIP3   OH232359   1.867   4.119  16.103  0.0151 -0.1350 -0.1666
 3623TIP3    H132360   1.792   4.065  16.126  0.0605  0.0259  0.3642
 3623TIP3    H232361   1.879   4.177  16.178  0.8333 -0.3340 -0.1354
 3624TIP3   OH232362   0.889   1.994  15.293  0.1881  0.0014 -0.5077
 3624TIP3    H132363   0.794   1.994  15.280  0.0970  1.2233  0.0345
 3624TIP3    H232364   0.907   1.911  15.336 -0.3742 -1.1048 -2.2663
 3625TIP3   OH232365   3.997   3.932   1.907 -0.2170  0.4578  1.1119
 3625TIP3    H132366   3.959   3.922   1.994  2.7983  0.9612  2.5860
 3625TIP3    H232367   3.949   3.868   1.854 -2.7076  0.7039  2.8566
 3626TIP3   OH232368   6.600   2.652   1.012 -0.5264  0.1096 -0.1441
 3626TIP3    H132369   6.551   2.631   0.933 -0.9082 -0.0297  0.1252
 3626TIP3    H232370   6.549   2.612   1.083  0.4016 -0.7442  0.0620
 3627TIP3   OH232371   1.034   1.750   3.359  0.2577 -0.2670 -0.0945
 3627TIP3    H132372   1.002   1.779   3.274  0.2141  0.2385  0.0861
 3627TIP3    H232373   1.037   1.831   3.411 -1.2748 -0.8159  0.8973
 3628TIP3   OH232374   2.304   5.197   4.893  0.1876 -0.3359  0.1235
 3628TIP3    H132375   2.349   5.179   4.976  0.0886 -1.2010  0.0038
 3628TIP3    H232376   2.273   5.287   4.901 -0.2779 -0.5829  1.2460
 3629TIP3   OH232377   2.910   2.153  12.543 -0.3078  0.0994 -0.6414
 3629TIP3    H132378   2.992   2.105  12.532 -0.4996 -0.1947 -0.7980
 3629TIP3    H232379   2.934   2.245  12.534  0.2396  0.1085  0.6623
 3630TIP3   OH232380   4.744   1.459  13.304  0.1486 -0.0241 -0.1266
 3630TIP3    H132381   4.832   1.472  13.270  0.6205 -0.6799  0.7930
 3630TIP3    H232382   4.718   1.546  13.336  0.4686  0.1718 -0.3931
 3631TIP3   OH232383   3.845   1.050  12.130 -0.7447  0.2676 -0.7406
 3631TIP3    H132384   3.808   0.961  12.136 -0.8302  0.4006  1.8889
 3631TIP3    H232385   3.791   1.094  12.065 -2.6657 -0.7576  0.0720
 3632TIP3   OH232386   4.728   3.433  16.768 -0.9854  0.4089 -0.2580
 3632TIP3    H132387   4.684   3.430  16.854 -0.9171 -0.6336 -0.2454
 3632TIP3    H232388   4.802   3.492  16.781 -2.3763  2.2563 -0.2869
 3633TIP3   OH232389   4.105   1.308  13.592  0.6482  0.0486  0.1975
 3633TIP3    H132390   4.124   1.386  13.645 -0.7299  0.4397  0.1566
 3633TIP3    H232391   4.114   1.235  13.653  2.4186  0.1759  0.1218
 3634TIP3   OH232392   1.283   0.036  13.609 -0.4794  0.2652 -0.5834
 3634TIP3    H132393   1.333   0.114  13.633 -0.5656  0.3391 -0.6401
 3634TIP3    H232394   1.238   0.011  13.690 -1.7471  1.2434 -0.9468
 3635TIP3   OH232395   5.122   0.427  11.059  0.4296 -0.1495 -0.0166
 3635TIP3    H132396   5.065   0.352  11.074  0.7803 -0.4468 -0.1466
 3635TIP3    H232397   5.079   0.500  11.104  0.6232 -0.6541  0.9919
 3636TIP3   OH232398   6.409   0.976   0.724  0.3035 -0.8347 -0.4012
 3636TIP3    H132399   6.378   1.038   0.790  1.0652 -0.6292 -0.2323
 3636TIP3    H232400   6.335   0.967   0.663  0.1030  0.0709 -0.3070
 3637TIP3   OH232401   4.768   1.453  17.273  0.0616  0.6024 -0.0528
 3637TIP3    H132402   4.743   1.435  17.364 -0.6948 -0.0258 -0.3827
 3637TIP3    H232403   4.731   1.540  17.254  0.0514  0.6469  0.1692
 3638TIP3   OH232404   0.581   2.996  12.477  0.6735 -0.0760 -0.5502
 3638TIP3    H132405   0.584   3.092  12.484  0.2513  0.2924 -3.9924
 3638TIP3    H232406   0.672   2.969  12.470  0.7551  0.1392 -0.3467
 3639TIP3   OH232407   5.768   6.331  14.779 -0.0468 -0.2703 -0.0252
 3639TIP3    H132408   5.862   6.338  14.796 -0.5538  2.1395  2.7193
 3639TIP3    H232409   5.756   6.242  14.747  3.0453 -0.9259  0.2800
 3640TIP3   OH232410   6.292   4.920  13.837 -0.1930  0.0111 -0.6325
 3640TIP3    H132411   6.362   4.982  13.859 -0.9164  1.1920 -1.4985
 3640TIP3    H232412   6.287   4.862  13.913  0.8371  0.7208  0.0128
 3641TIP3   OH232413   1.029   1.630  13.874 -0.1870  0.5639 -0.7114
 3641TIP3    H132414   1.087   1.706  13.874 -0.3146  0.6832  0.3017
 3641TIP3    H232415   1.021   1.607  13.967 -1.9487  0.7001 -0.7972
 3642TIP3   OH232416   6.086   4.762  13.457  0.7665  0.1322  0.4713
 3642TIP3    H132417   6.171   4.807  13.452  1.4578 -1.1023  0.6993
 3642TIP3    H232418   6.059   4.751  13.366  0.7314  0.7306  0.4041
 3643TIP3   OH232419   5.341   5.122  17.149  0.5720 -0.6655 -0.5846
 3643TIP3    H132420   5.270   5.157  17.202  0.7941 -1.5431  0.3174
 3643TIP3    H232421   5.383   5.199  17.110  1.3713  0.1483  1.7487
 3644TIP3   OH232422   5.574   2.593  15.613  0.0664  0.1700  0.4870
 3644TIP3    H132423   5.627   2.670  15.591 -0.3353 -0.1225 -1.7400
 3644TIP3    H232424   5.631   2.518  15.592  0.6969 -0.2338  3.2421
 3645TIP3   OH232425   5.071   0.005   0.342  0.0860  0.0352 -0.2991
 3645TIP3    H132426   5.077   0.085   0.395  0.9026 -0.8789  1.0453
 3645TIP3    H232427   5.050   0.037   0.254  1.4405  1.8334 -0.0521
 3646TIP3   OH232428   6.675   0.138  12.197 -0.1615  0.4042 -0.0888
 3646TIP3    H132429   6.649   0.066  12.255 -1.9540  0.8568 -0.2822
 3646TIP3    H232430   6.660   0.217  12.250  0.9363  0.6946 -0.1903
 3647TIP3   OH232431   2.949   1.135   0.422  0.6164 -0.1970  0.1555
 3647TIP3    H132432   3.019   1.088   0.378  1.6593 -0.0604  1.6141
 3647TIP3    H232433   2.892   1.165   0.351  3.3717  1.8862 -1.3679
 3648TIP3   OH232434   4.380   5.405   5.956  0.3416  0.3106 -0.1703
 3648TIP3    H132435   4.419   5.335   6.009  2.2676  0.2805 -1.5260
 3648TIP3    H232436   4.333   5.359   5.887 -1.4167  0.3722  0.8921
 3649TIP3   OH232437   3.967   3.929  14.821 -0.0079  0.3359  0.1696
 3649TIP3    H132438   3.950   3.880  14.902  1.7542  0.2731  0.5531
 3649TIP3    H232439   3.881   3.943  14.782 -0.7634 -0.9225  1.3086
 3650TIP3   OH232440   5.416   4.018  15.493  0.2539  0.1468 -0.3132
 3650TIP3    H132441   5.506   4.030  15.523  0.8401  1.5308 -2.3775
 3650TIP3    H232442   5.410   3.926  15.469  1.6496  0.3461 -1.5877
 3651TIP3   OH232443   2.770   2.193   3.376 -0.7472 -0.8894  0.2622
 3651TIP3    H132444   2.743   2.284   3.366 -2.5862 -0.9907  3.1096
 3651TIP3    H232445   2.788   2.184   3.470 -1.0336 -3.5572  0.1293
 3652TIP3   OH232446   1.901   5.816   1.705 -0.0786  0.2824 -0.6280
 3652TIP3    H132447   1.856   5.900   1.695 -2.0203 -0.2155  2.5333
 3652TIP3    H232448   1.858   5.758   1.643 -1.8275  0.5866  0.2478
 3653TIP3   OH232449   2.057   1.695  15.971 -0.2470  0.1728  0.0511
 3653TIP3    H132450   2.077   1.788  15.963 -0.9035  0.1738 -2.3235
 3653TIP3    H232451   1.962   1.691  15.975 -0.2998 -0.4069 -1.1202
 3654TIP3   OH232452   3.859   6.317   1.522 -0.2208 -0.7719 -0.2061
 3654TIP3    H132453   3.861   6.281   1.611  1.3451 -1.4526 -0.4783
 3654TIP3    H232454   3.771   6.354   1.513 -0.0700  0.2587  1.9779
 3655TIP3   OH232455   5.678   5.078   5.359 -0.8351  0.2494  0.0836
 3655TIP3    H132456   5.703   5.141   5.427  1.4016  0.1244 -0.5304
 3655TIP3    H232457   5.675   5.129   5.278 -0.3822 -0.1438 -0.1921
 3656TIP3   OH232458   3.668   0.844   1.131 -0.5759  0.1255  0.2836
 3656TIP3    H132459   3.752   0.843   1.085 -0.3100 -1.6671  0.7356
 3656TIP3    H232460   3.606   0.874   1.064  0.2738  0.6961 -0.2867
 3657TIP3   OH232461   1.258   1.351   1.493 -0.0254 -0.4004 -0.2694
 3657TIP3    H132462   1.185   1.412   1.484  0.3198  0.0047 -0.3578
 3657TIP3    H232463   1.217   1.269   1.521 -0.5228 -0.2048 -0.4044
 3658TIP3   OH232464   2.003   5.298   0.756  0.3122  0.6074 -0.3138
 3658TIP3    H132465   2.072   5.260   0.810  0.1124 -0.2531 -0.6372
 3658TIP3    H232466   2.045   5.314   0.671 -0.0330 -0.5223 -0.7126
 3659TIP3   OH232467   3.285   5.003   3.377 -0.3148  0.4057  0.1036
 3659TIP3    H132468   3.344   4.944   3.330 -0.8871  0.6761 -1.0112
 3659TIP3    H232469   3.318   5.005   3.467  0.5498 -0.4956 -0.1792
 3660TIP3   OH232470   6.402   3.221   2.976  0.0629 -0.3416  0.2314
 3660TIP3    H132471   6.491   3.213   3.011  0.8626  0.5702 -1.4357
 3660TIP3    H232472   6.358   3.283   3.035 -0.0474 -2.0687  2.0396
 3661TIP3   OH232473   1.895   0.824  14.899  0.1821  0.2117 -0.0840
 3661TIP3    H132474   1.823   0.806  14.959  1.3581 -1.2114  0.9678
 3661TIP3    H232475   1.869   0.905  14.854 -1.5981  0.2716  0.9510
 3662TIP3   OH232476   2.725   4.001   0.093 -0.2591 -0.2161  0.8549
 3662TIP3    H132477   2.702   3.909   0.080 -1.0726  0.2419 -1.3851
 3662TIP3    H232478   2.729   4.037   0.004  0.3522  1.8472  1.6734
 3663TIP3   OH232479   6.462   2.497   4.668  0.3550 -0.5081  0.1791
 3663TIP3    H132480   6.487   2.536   4.752  0.1307 -0.1373  0.0783
 3663TIP3    H232481   6.427   2.411   4.692  1.2735 -0.8368  0.3594
 3664TIP3   OH232482   1.109   0.564  16.280 -0.2349  1.0302 -0.1481
 3664TIP3    H132483   1.047   0.600  16.216 -0.9143  0.7374  0.3433
 3664TIP3    H232484   1.140   0.641  16.329 -0.4568  1.1370 -0.1743
 3665TIP3   OH232485   0.895   5.194   4.431  0.2674 -0.1700  0.0776
 3665TIP3    H132486   0.905   5.205   4.525 -0.4539  2.2416 -0.0465
 3665TIP3    H232487   0.829   5.126   4.421 -0.0443 -0.0681  1.3167
 3666TIP3   OH232488   5.107   4.155   3.712  0.1080 -0.4473 -0.3360
 3666TIP3    H132489   5.035   4.160   3.774 -0.6821 -0.5924 -1.2243
 3666TIP3    H232490   5.138   4.065   3.719  1.0094 -0.0759  0.9036
 3667TIP3   OH232491   5.031   5.831   4.158 -0.2164  0.2690 -0.0311
 3667TIP3    H132492   4.941   5.821   4.189 -0.6010  0.2749 -1.0961
 3667TIP3    H232493   5.037   5.772   4.083  1.0266 -0.5982  0.7323
 3668TIP3   OH232494   0.542   4.268  14.531  0.3772  0.0930  0.0162
 3668TIP3    H132495   0.569   4.284  14.622  0.9571  1.2683 -0.3531
 3668TIP3    H232496   0.537   4.355  14.492  1.4227 -0.4873 -1.4556
 3669TIP3   OH232497   3.916   6.414  15.032  0.2421 -0.1839  0.2910
 3669TIP3    H132498   3.984   6.480  15.019 -0.0534 -0.0325 -0.5306
 3669TIP3    H232499   3.962   6.330  15.025  0.3977 -0.0767 -0.0083
 3670TIP3   OH232500   3.332   4.952  13.914  0.4120  0.2088 -0.1726
 3670TIP3    H132501   3.243   4.950  13.949  0.5878 -1.3221  0.2743
 3670TIP3    H232502   3.320   4.975  13.822 -0.5244 -0.5460 -0.2640
 3671TIP3   OH232503   0.403   1.511   2.332  0.2493  0.0527 -0.1606
 3671TIP3    H132504   0.473   1.449   2.349  0.3515  0.0630 -0.5372
 3671TIP3    H232505   0.328   1.477   2.380  0.5601  0.1389  0.3914
 3672TIP3   OH232506   6.711   6.134  10.788 -0.0369 -0.3189  0.2189
 3672TIP3    H132507   6.741   6.044  10.772  0.2253 -0.2610  0.3842
 3672TIP3    H232508   6.788   6.180  10.821 -0.1404 -0.0001  0.0164
 3673TIP3   OH232509   2.137   6.340   4.414  0.2449  0.1892  0.9454
 3673TIP3    H132510   2.042   6.337   4.410  0.3033 -1.4586 -0.1994
 3673TIP3    H232511   2.166   6.276   4.349  2.1349 -0.0733  1.9711
 3674TIP3   OH232512   3.411   3.242   0.270  0.0539 -0.1789  0.4036
 3674TIP3    H132513   3.470   3.292   0.213  0.6349 -0.4366  0.7798
 3674TIP3    H232514   3.447   3.153   0.269 -0.2217 -0.2927  0.7859
 3675TIP3   OH232515   3.822   2.428  14.883  0.1137  0.1311  0.1228
 3675TIP3    H132516   3.872   2.403  14.806 -0.2388  1.3427 -0.5342
 3675TIP3    H232517   3.876   2.494  14.927  1.0363 -1.6516  1.8205
 3676TIP3   OH232518   0.542   0.228   1.569  0.4012  0.1321 -0.1401
 3676TIP3    H132519   0.620   0.217   1.515 -0.6853  0.1341 -1.7911
 3676TIP3    H232520   0.492   0.147   1.556  0.0782  0.1502  0.8576
 3677TIP3   OH232521   4.893   4.043   4.955 -0.2102  0.6119 -0.1375
 3677TIP3    H132522   4.870   4.034   5.048  0.6705  1.0433  0.1282
 3677TIP3    H232523   4.887   4.137   4.938 -0.6799  0.4994 -0.6054
 3678TIP3   OH232524   2.758   4.605  12.145 -0.0958 -0.6784 -0.0130
 3678TIP3    H132525   2.706   4.675  12.106 -0.4156 -1.3583 -0.8375
 3678TIP3    H232526   2.709   4.525  12.125 -0.0064 -1.0981  1.3656
 3679TIP3   OH232527   4.321   4.848  17.197 -0.0061 -0.8846 -0.4341
 3679TIP3    H132528   4.374   4.927  17.191 -2.0573  0.7296  1.0652
 3679TIP3    H232529   4.327   4.808  17.110  1.0681  0.9382 -1.2602
 3680TIP3   OH232530   2.863   5.031  12.131  0.1300 -0.8156  0.3222
 3680TIP3    H132531   2.820   5.057  12.212  3.3531  2.0873  1.3186
 3680TIP3    H232532   2.914   4.954  12.154  0.5799 -0.3419  0.9614
 3681TIP3   OH232533   6.804   5.988  16.812  0.5921  0.0198 -0.1409
 3681TIP3    H132534   6.832   5.921  16.749  0.1464 -0.8906  0.6065
 3681TIP3    H232535   6.819   5.948  16.898 -1.6691 -0.0099  0.3139
 3682TIP3   OH232536   2.652   5.963   3.266  0.3240  0.2126 -0.0416
 3682TIP3    H132537   2.614   5.960   3.178  0.6550 -0.3155 -0.1656
 3682TIP3    H232538   2.605   5.896   3.315  1.7007 -1.1050 -0.4451
 3683TIP3   OH232539   1.624   0.703  12.000 -0.4170  0.5542 -0.3177
 3683TIP3    H132540   1.595   0.614  12.019 -1.4774 -0.1792 -4.4607
 3683TIP3    H232541   1.543   0.754  11.994  0.1601  1.8235  1.5782
 3684TIP3   OH232542   6.041   1.383   5.903  0.1851 -0.0906  0.1109
 3684TIP3    H132543   6.016   1.463   5.951  0.9552  0.9279 -1.1374
 3684TIP3    H232544   6.064   1.321   5.972  0.1188  0.9394  1.1034
 3685TIP3   OH232545   0.069   1.496   2.022 -0.5835  0.2596 -0.6197
 3685TIP3    H132546   0.109   1.561   1.964  0.9200  0.9468  1.1072
 3685TIP3    H232547   0.134   1.425   2.028 -0.5278  0.3860  0.5078
 3686TIP3   OH232548   6.218   4.575   5.831 -0.2459 -0.0198 -0.2691
 3686TIP3    H132549   6.206   4.481   5.848  1.9961 -0.5128 -0.9936
 3686TIP3    H232550   6.175   4.590   5.747 -1.3403 -0.2020  0.2516
 3687TIP3   OH232551   3.326   0.582   3.532  0.3625  0.2208  0.4640
 3687TIP3    H132552   3.400   0.589   3.472  0.3888  1.0406  0.5773
 3687TIP3    H232553   3.358   0.617   3.615 -0.0678  0.3379  0.5875
 3688TIP3   OH232554   5.257   6.231  16.113 -0.1346 -0.4624 -0.3181
 3688TIP3    H132555   5.294   6.237  16.025 -0.6470 -1.0674 -0.5787
 3688TIP3    H232556   5.232   6.139  16.123  2.0289 -0.9738  1.3150
 3689TIP3   OH232557   3.730   3.940   6.287  0.5327  0.5043 -0.2778
 3689TIP3    H132558   3.796   3.975   6.346 -0.6139  0.8891  0.8039
 3689TIP3    H232559   3.647   3.963   6.327 -0.3118  1.6073 -2.5239
 3690TIP3   OH232560   3.032   3.660  12.809  0.3754  0.2883 -0.4893
 3690TIP3    H132561   2.972   3.647  12.736 -0.0550  1.9846 -0.4802
 3690TIP3    H232562   2.977   3.689  12.882  0.9619 -0.0434  0.1005
 3691TIP3   OH232563   5.002   0.869   2.338  0.0079  0.1260 -0.0853
 3691TIP3    H132564   4.919   0.866   2.387  0.8783 -0.5784  1.4049
 3691TIP3    H232565   4.975   0.887   2.248 -1.8453 -0.8927  0.2068
 3692TIP3   OH232566   6.288   1.365  11.300 -0.2494  0.0758  0.0366
 3692TIP3    H132567   6.194   1.384  11.311 -0.2505  2.5494 -2.8038
 3692TIP3    H232568   6.332   1.435  11.349  0.0749 -0.2533  0.2132
 3693TIP3   OH232569   3.836   6.396  16.491  0.2211 -0.0293  0.4387
 3693TIP3    H132570   3.879   6.453  16.426 -2.0886  2.4679  0.9158
 3693TIP3    H232571   3.857   6.436  16.575 -0.3339 -0.7042  0.9071
 3694TIP3   OH232572   1.483   6.310   4.243  0.6151 -0.1994  0.2472
 3694TIP3    H132573   1.507   6.313   4.336  1.3802 -1.7704  0.1401
 3694TIP3    H232574   1.511   6.223   4.214  1.1707  0.5712 -1.6867
 3695TIP3   OH232575   3.654   4.130   4.421  0.3540 -0.2549  0.0081
 3695TIP3    H132576   3.748   4.114   4.437  0.4316 -0.5934 -0.7547
 3695TIP3    H232577   3.613   4.046   4.439  0.5941 -1.0322 -2.6738
 3696TIP3   OH232578   0.863   6.728  14.287 -0.3613  0.0154  0.4886
 3696TIP3    H132579   0.933   6.663  14.291  2.1980  2.5855  0.9949
 3696TIP3    H232580   0.872   6.766  14.200  0.4312  1.8829  1.3360
 3697TIP3   OH232581   4.491   4.494   6.139 -0.0406  0.3016 -0.2273
 3697TIP3    H132582   4.549   4.421   6.115 -1.2637 -1.3481  1.4963
 3697TIP3    H232583   4.505   4.505   6.233 -1.8330  0.4832  0.0470
 3698TIP3   OH232584   2.804   5.811  13.124 -0.3811 -0.3855 -0.0337
 3698TIP3    H132585   2.811   5.887  13.066  0.4830 -0.5504 -0.1650
 3698TIP3    H232586   2.716   5.816  13.160 -0.2397  0.8463  0.1835
 3699TIP3   OH232587   0.005   0.559   4.540 -0.2717 -0.2751  0.3340
 3699TIP3    H132588  -0.060   0.494   4.514  2.2955 -2.0247 -2.2997
 3699TIP3    H232589   0.007   0.621   4.467  1.1423 -0.4126  0.2287
 3700TIP3   OH232590   3.564   1.601  12.723 -0.1939  0.4548  0.1930
 3700TIP3    H132591   3.470   1.581  12.714  0.0652 -1.5553  1.2426
 3700TIP3    H232592   3.607   1.542  12.661  0.3327  3.3639 -2.4511
 3701TIP3   OH232593   3.556   3.759   0.640  0.0047 -0.4112 -0.3363
 3701TIP3    H132594   3.490   3.794   0.700  0.5457 -1.2493  0.7800
 3701TIP3    H232595   3.506   3.711   0.574 -0.4942 -1.8061  1.0025
 3702TIP3   OH232596   4.068   1.964  10.446  0.0071  0.6134 -0.6138
 3702TIP3    H132597   4.002   2.033  10.451 -1.3682 -0.7301  2.7821
 3702TIP3    H232598   4.137   2.000  10.391 -2.8893  2.6366 -3.2089
 3703TIP3   OH232599   6.231   6.696  10.852 -0.2879  0.0106 -0.6642
 3703TIP3    H132600   6.269   6.620  10.809  1.5168 -0.6141  1.8142
 3703TIP3    H232601   6.137   6.681  10.849  0.0372 -3.1467  1.0620
 3704TIP3   OH232602   2.234   0.347   5.394 -0.4611  0.9362  0.0666
 3704TIP3    H132603   2.302   0.386   5.339 -0.4246 -0.0743 -0.6220
 3704TIP3    H232604   2.185   0.289   5.335 -0.2913 -0.3335  1.1304
 3705TIP3   OH232605   2.112   5.059  12.586  0.5842  0.0016 -0.2310
 3705TIP3    H132606   2.045   5.099  12.530  0.5485  1.5631  0.8571
 3705TIP3    H232607   2.170   5.013  12.525 -0.2089  0.5004 -1.4121
 3706TIP3   OH232608   2.487   5.066   3.054  0.5091 -0.2442 -0.0003
 3706TIP3    H132609   2.419   5.107   3.001  1.3260  0.5719 -0.4494
 3706TIP3    H232610   2.569   5.102   3.020  1.3279 -2.5877 -0.7417
 3707TIP3   OH232611   2.552   1.383  11.428  0.4846  0.6145  0.7639
 3707TIP3    H132612   2.491   1.310  11.423  0.8838  0.2627  0.9745
 3707TIP3    H232613   2.623   1.358  11.368  0.0752  1.3583 -0.0625
 3708TIP3   OH232614   0.656   2.614   3.061 -0.3414  0.7534 -0.1169
 3708TIP3    H132615   0.586   2.587   3.002  0.1893  1.1085 -0.9296
 3708TIP3    H232616   0.731   2.632   3.004  0.4133  0.4135  0.7237
 3709TIP3   OH232617   4.107   4.179  16.231  0.0736  0.3077  0.2154
 3709TIP3    H132618   4.090   4.088  16.207  1.1350 -0.1653  1.1744
 3709TIP3    H232619   4.035   4.228  16.192  0.1220 -0.7805 -1.3385
 3710TIP3   OH232620   2.624   1.665   5.244  0.2633  0.3450 -0.0303
 3710TIP3    H132621   2.531   1.657   5.225  0.1313  1.1258  0.2496
 3710TIP3    H232622   2.628   1.713   5.328  0.8896 -0.6107  0.5049
 3711TIP3   OH232623   3.127   5.863  11.787 -0.0763  0.3863 -0.1430
 3711TIP3    H132624   3.154   5.877  11.697  1.7414  1.1567  0.4845
 3711TIP3    H232625   3.189   5.913  11.839 -1.3646  0.3396  1.5299
 3712TIP3   OH232626   2.327   1.284   4.554 -0.0745  0.4556  0.4241
 3712TIP3    H132627   2.302   1.376   4.570  1.7716  1.1474 -0.4264
 3712TIP3    H232628   2.308   1.240   4.636 -0.4652  1.7232  1.0498
 3713TIP3   OH232629   1.508   4.648   6.100 -0.5156 -0.8860  0.2871
 3713TIP3    H132630   1.490   4.730   6.147 -2.0140 -0.8153 -0.3270
 3713TIP3    H232631   1.543   4.589   6.167 -1.9194 -0.5676  1.3569
 3714TIP3   OH232632   4.496   3.271  11.972  0.4227  0.3073 -0.2958
 3714TIP3    H132633   4.510   3.327  11.896  0.6715  0.9369  0.2092
 3714TIP3    H232634   4.546   3.313  12.043 -0.1042 -0.0677  0.3066
 3715TIP3   OH232635   1.279   3.625  15.293 -0.2089  0.8093  0.1928
 3715TIP3    H132636   1.244   3.549  15.340 -0.4986  1.5626  1.2375
 3715TIP3    H232637   1.246   3.615  15.203  0.3092 -0.6299  0.1461
 3716TIP3   OH232638   2.993   5.753   0.866  0.5386  0.2774 -0.2920
 3716TIP3    H132639   2.981   5.844   0.840 -0.1447  0.2159 -0.2123
 3716TIP3    H232640   2.936   5.703   0.807 -0.3153  0.0487  0.7060
 3717TIP3   OH232641   4.023   1.658  14.628 -0.0243  0.4105 -0.5551
 3717TIP3    H132642   3.961   1.675  14.699  0.5502  0.5661 -0.0901
 3717TIP3    H232643   4.044   1.565  14.635  1.3039  0.7736  0.5168
 3718TIP3   OH232644   3.809   3.409  12.700  0.1308 -0.1075  0.2864
 3718TIP3    H132645   3.758   3.343  12.747 -0.0224  0.4787  0.9621
 3718TIP3    H232646   3.862   3.359  12.638 -1.7388 -0.6952 -0.9125
 3719TIP3   OH232647   5.961   3.273  11.670  0.3832 -0.0507 -0.0087
 3719TIP3    H132648   5.951   3.359  11.631  0.0148  0.3117  0.8658
 3719TIP3    H232649   5.987   3.290  11.761  0.7599 -0.8653  0.0500
 3720TIP3   OH232650   4.809   5.108   2.619  0.1019  0.3973  0.2340
 3720TIP3    H132651   4.826   5.035   2.679  0.9280  0.5128  0.1525
 3720TIP3    H232652   4.892   5.156   2.616 -0.1090  0.7280 -0.5374
 3721TIP3   OH232653   6.430   6.735   3.726 -0.1077  0.2932  0.4456
 3721TIP3    H132654   6.379   6.793   3.782 -2.4014  0.2588 -1.4992
 3721TIP3    H232655   6.399   6.647   3.748 -0.0182  0.1730  0.0983
 3722TIP3   OH232656   5.427   3.516   2.187  0.1184  0.0731 -0.5891
 3722TIP3    H132657   5.472   3.561   2.259 -1.4524 -1.9599  1.8022
 3722TIP3    H232658   5.497   3.489   2.128  1.4968  1.5264  0.3015
 3723TIP3   OH232659   5.219   6.318   0.462 -0.0757 -0.5986  0.7563
 3723TIP3    H132660   5.166   6.371   0.521 -2.2010 -0.8981 -0.7565
 3723TIP3    H232661   5.229   6.372   0.384 -0.9703 -1.7880 -0.2167
 3724TIP3   OH232662   5.716   1.102   1.717 -0.8445  0.8974  0.3571
 3724TIP3    H132663   5.711   1.032   1.782 -1.2255 -0.4211 -1.0269
 3724TIP3    H232664   5.784   1.074   1.657 -0.8949  1.8088 -0.1390
 3725TIP3   OH232665   4.638   5.533   2.624 -0.0035  0.1345 -0.5532
 3725TIP3    H132666   4.601   5.611   2.665  1.7409  0.8245 -0.2082
 3725TIP3    H232667   4.654   5.473   2.697 -0.1267 -0.0317 -0.6619
 3726TIP3   OH232668   3.452   6.591  16.237 -0.5391  0.4178 -0.2992
 3726TIP3    H132669   3.493   6.642  16.308  0.6766  0.3830 -0.9687
 3726TIP3    H232670   3.508   6.515  16.226 -1.5404 -0.3305 -0.3201
 3727TIP3   OH232671   4.507   1.438   1.823 -0.4007 -0.1830  0.3375
 3727TIP3    H132672   4.474   1.350   1.841 -0.5885 -0.1085  0.3600
 3727TIP3    H232673   4.549   1.431   1.737  0.3484 -0.5006  0.7209
 3728TIP3   OH232674   3.995   0.725  10.642 -0.2222 -0.4757 -0.0029
 3728TIP3    H132675   4.028   0.814  10.630  0.2024 -0.6827 -0.4194
 3728TIP3    H232676   3.915   0.736  10.694  0.5846  0.0260  1.1759
 3729TIP3   OH232677   6.111   5.373  13.213 -0.5130  0.1744 -0.1503
 3729TIP3    H132678   6.045   5.311  13.184 -2.1899  1.8818 -0.2145
 3729TIP3    H232679   6.171   5.382  13.139 -0.5765 -0.9048 -0.3426
 3730TIP3   OH232680   6.419   3.485   0.670  0.1057  0.6730  0.0710
 3730TIP3    H132681   6.365   3.414   0.634  1.5399  0.0596 -0.9742
 3730TIP3    H232682   6.457   3.448   0.749 -0.4303  0.8569  0.4188
 3731TIP3   OH232683   3.264   6.470  14.208  0.0789 -0.2254 -0.2090
 3731TIP3    H132684   3.304   6.436  14.288  0.0558 -0.5849 -0.3504
 3731TIP3    H232685   3.170   6.474  14.227  0.1885  0.7901  0.1876
 3732TIP3   OH232686   6.040   2.996   2.434 -0.2452 -0.1885 -0.1715
 3732TIP3    H132687   5.969   3.061   2.433 -0.0480  0.0280  0.0681
 3732TIP3    H232688   5.999   2.917   2.471 -0.0685  0.2663  1.0268
 3733TIP3   OH232689   5.145   5.324  13.142  0.8300 -0.2036  0.1260
 3733TIP3    H132690   5.221   5.354  13.193 -0.2685  1.5985  0.7977
 3733TIP3    H232691   5.153   5.370  13.059 -0.7924  2.0351  1.1110
 3734TIP3   OH232692   1.818   2.165  17.291 -0.3741 -0.0728  0.0051
 3734TIP3    H132693   1.724   2.183  17.302 -0.0887  1.4461  0.1601
 3734TIP3    H232694   1.844   2.123  17.373 -0.1180  3.1884  1.7827
 3735TIP3   OH232695   3.743   2.002  10.370  0.2836 -0.3713  0.0074
 3735TIP3    H132696   3.683   2.001  10.296  0.6100  0.6531 -0.2854
 3735TIP3    H232697   3.736   1.914  10.408 -0.6140 -0.5928 -0.6429
 3736TIP3   OH232698   0.882   5.712  16.762 -0.7211 -0.4442  0.3388
 3736TIP3    H132699   0.859   5.772  16.832 -0.8594 -0.6006  0.4290
 3736TIP3    H232700   0.951   5.656  16.800  0.1826  0.3575 -0.0934
 3737TIP3   OH232701   3.938   5.898   2.143  0.3829 -0.0706 -0.0192
 3737TIP3    H132702   3.887   5.834   2.193  0.1748  1.3590  1.7333
 3737TIP3    H232703   4.028   5.864   2.145 -0.2661 -2.0829 -2.2431
 3738TIP3   OH232704   0.958   2.891   1.066 -0.6350 -1.0364  0.2955
 3738TIP3    H132705   1.012   2.830   1.116 -0.6483 -1.0397  0.3052
 3738TIP3    H232706   0.873   2.849   1.059 -0.7997 -0.7770  0.7583
 3739TIP3   OH232707   3.292   5.663   4.751 -0.1482  0.1012  0.6231
 3739TIP3    H132708   3.261   5.699   4.668  2.2215 -0.1985 -0.4765
 3739TIP3    H232709   3.327   5.739   4.798 -0.3673  0.0810  0.8226
 3740TIP3   OH232710   6.458   0.522  11.820  0.1670 -0.1504  0.0833
 3740TIP3    H132711   6.523   0.467  11.776  0.4809  0.7753 -0.6329
 3740TIP3    H232712   6.439   0.476  11.902  1.0739 -0.8703 -0.0998
 3741TIP3   OH232713   6.525   3.461  16.690  0.1692 -0.1521  0.3535
 3741TIP3    H132714   6.534   3.443  16.784 -3.0290  0.6377  0.9401
 3741TIP3    H232715   6.477   3.544  16.687 -1.3873 -1.0559 -1.9329
 3742TIP3   OH232716   2.451   3.932  12.493  0.3774 -0.2846 -0.1128
 3742TIP3    H132717   2.470   3.841  12.512 -0.4668 -0.4492 -0.0213
 3742TIP3    H232718   2.444   3.974  12.580 -0.2363 -0.3498 -0.1272
 3743TIP3   OH232719   2.604   2.809  12.884  0.5980 -0.7919  0.2413
 3743TIP3    H132720   2.508   2.813  12.885  0.6145 -0.2012  1.6602
 3743TIP3    H232721   2.626   2.742  12.949  1.1491 -0.9527 -0.1051
 3744TIP3   OH232722   0.138   2.356   3.830  0.5683 -0.6998 -0.3349
 3744TIP3    H132723   0.145   2.347   3.925 -0.0360 -0.8340 -0.2999
 3744TIP3    H232724   0.169   2.445   3.812  0.7711 -0.7052 -0.0222
 3745TIP3   OH232725   3.510   5.883   4.562  0.6307  0.1173 -0.4034
 3745TIP3    H132726   3.417   5.870   4.546  0.8827 -0.5377 -1.4227
 3745TIP3    H232727   3.553   5.855   4.481  1.8634 -1.6106  0.7673
 3746TIP3   OH232728   4.277   0.433  14.399  0.1149 -0.0117 -0.1142
 3746TIP3    H132729   4.214   0.445  14.471  0.8219  0.0777  0.4989
 3746TIP3    H232730   4.304   0.521  14.376 -0.0960 -0.0421 -0.4863
 3747TIP3   OH232731   4.191   0.718  11.315  0.4873 -0.1120  0.1047
 3747TIP3    H132732   4.101   0.751  11.315  1.3062  2.3271  0.8201
 3747TIP3    H232733   4.183   0.625  11.294 -2.1654  0.1013 -0.0828
 3748TIP3   OH232734   6.571   5.282  17.192  0.7959  0.0788 -0.1125
 3748TIP3    H132735   6.578   5.363  17.142  1.9674 -0.7902 -1.4525
 3748TIP3    H232736   6.545   5.309  17.279 -1.3681  1.6703 -1.1644
 3749TIP3   OH232737   2.710   4.639  11.300  0.5728  0.2506  0.3255
 3749TIP3    H132738   2.686   4.601  11.216  4.3040 -2.9305  0.4255
 3749TIP3    H232739   2.756   4.720  11.279 -1.1005  1.0648 -0.3896
 3750TIP3   OH232740   2.394   2.203   1.267 -0.2791 -0.1837 -0.5219
 3750TIP3    H132741   2.320   2.254   1.233  0.4251  0.6955 -0.7792
 3750TIP3    H232742   2.393   2.219   1.361 -0.0979  0.2745 -0.5940
 3751TIP3   OH232743   0.095   4.735   4.675  0.6093 -0.0633 -0.1622
 3751TIP3    H132744   0.039   4.685   4.735  0.7842  0.8915  0.8257
 3751TIP3    H232745   0.183   4.724   4.710  0.8534 -0.2891 -0.8261
 3752TIP3   OH232746   2.884   6.459   0.965 -0.5754  0.4093  0.3576
 3752TIP3    H132747   2.976   6.486   0.973 -0.1172 -0.5644 -1.1421
 3752TIP3    H232748   2.836   6.540   0.951  0.4308  0.7197 -1.5629
 3753TIP3   OH232749   5.153   3.577   0.351  0.5506 -0.2321 -0.1834
 3753TIP3    H132750   5.128   3.664   0.382  0.1825 -1.3238  2.9166
 3753TIP3    H232751   5.072   3.539   0.317  0.7672  0.6764 -1.7813
 3754TIP3   OH232752   3.410   2.228   0.358 -0.1111  0.3166 -0.0600
 3754TIP3    H132753   3.421   2.170   0.433  0.5915  0.5642  0.0346
 3754TIP3    H232754   3.468   2.302   0.376 -0.5878  0.7939 -0.4355
 3755TIP3   OH232755   4.101   3.052   4.391  0.0297  0.8532  0.6722
 3755TIP3    H132756   4.024   3.109   4.386 -2.3058 -1.8770  2.4507
 3755TIP3    H232757   4.134   3.049   4.301 -2.3403  1.6387 -0.3151
 3756TIP3   OH232758   2.710   1.020   4.365 -0.0517  0.1893 -0.1007
 3756TIP3    H132759   2.633   1.059   4.405 -0.7973  0.4095 -1.6905
 3756TIP3    H232760   2.776   1.089   4.367 -0.1788  0.2978  0.4367
 3757TIP3   OH232761   4.536   2.970   1.725 -0.0585 -0.4120  0.1478
 3757TIP3    H132762   4.463   2.998   1.780 -1.9302 -1.6117 -1.6080
 3757TIP3    H232763   4.611   2.970   1.784 -1.7533 -0.6730  2.4456
 3758TIP3   OH232764   0.341   2.854   0.206  0.1283 -0.2238 -0.2288
 3758TIP3    H132765   0.263   2.804   0.183  0.5197 -1.2973  0.7086
 3758TIP3    H232766   0.310   2.944   0.213 -1.1883 -0.7313  0.8099
 3759TIP3   OH232767   1.771   6.100   2.855 -0.6944 -0.4297  0.6338
 3759TIP3    H132768   1.714   6.108   2.779  1.7376  2.0195 -1.1508
 3759TIP3    H232769   1.796   6.191   2.876  2.3999 -1.3082  1.3229
 3760TIP3   OH232770   4.004   0.245  12.624  0.8277 -0.3770 -0.0750
 3760TIP3    H132771   4.084   0.253  12.574  0.3819  0.4888 -0.6911
 3760TIP3    H232772   4.014   0.310  12.695  0.4368  0.1699 -0.5076
 3761TIP3   OH232773   2.744   4.510  15.881  0.2280 -0.3842  0.4818
 3761TIP3    H132774   2.775   4.456  15.953 -0.5684 -0.7080  0.5822
 3761TIP3    H232775   2.665   4.467  15.850  0.2131  0.0968 -0.1807
 3762TIP3   OH232776   1.933   4.688  11.793 -0.1720  0.5767  0.2380
 3762TIP3    H132777   2.004   4.652  11.847  0.2836 -0.8848 -1.2680
 3762TIP3    H232778   1.918   4.775  11.830  0.5942 -0.0760  2.2581
 3763TIP3   OH232779   1.171   2.008  14.634  0.3986  0.4554  0.3731
 3763TIP3    H132780   1.191   1.925  14.592  1.5769  0.4533  0.8800
 3763TIP3    H232781   1.177   2.073  14.564  3.4128  0.5975  0.6472
 3764TIP3   OH232782   3.677   0.528  14.794 -0.2359  0.3312 -0.8096
 3764TIP3    H132783   3.625   0.530  14.713 -0.1302  1.0745 -0.8698
 3764TIP3    H232784   3.644   0.603  14.844 -0.1283  0.0198 -0.2729
 3765TIP3   OH232785   0.592   6.039  11.548 -0.4723  0.0522 -0.1449
 3765TIP3    H132786   0.629   6.058  11.462 -0.1180  2.3200  0.4544
 3765TIP3    H232787   0.508   6.085  11.549 -1.3418 -1.4745  0.0919
 3766TIP3   OH232788   4.187   3.342   3.823  0.2649 -0.6441 -0.4236
 3766TIP3    H132789   4.228   3.323   3.907 -0.4293  0.6683  0.2452
 3766TIP3    H232790   4.220   3.274   3.765  2.4858 -0.3091  0.3394
 3767TIP3   OH232791   6.331   1.712  14.552 -0.0689  0.3955  0.4622
 3767TIP3    H132792   6.249   1.663  14.553  0.2790 -0.2402 -0.7918
 3767TIP3    H232793   6.317   1.782  14.489  0.1432  0.6445  0.6911
 3768TIP3   OH232794   1.899   4.493   0.530  0.9217 -0.5494  0.0660
 3768TIP3    H132795   1.936   4.495   0.619  0.1990  0.5457  0.3530
 3768TIP3    H232796   1.813   4.451   0.541  1.2178 -1.2700 -0.2814
 3769TIP3   OH232797   0.639   4.031  16.283 -0.3696 -0.9658  0.3510
 3769TIP3    H132798   0.575   3.985  16.337 -0.9188  1.0172  1.4783
 3769TIP3    H232799   0.663   4.108  16.335  2.8629 -1.5537 -0.0856
 3770TIP3   OH232800   1.343   3.868   4.476  0.2500  0.4745 -0.2438
 3770TIP3    H132801   1.348   3.774   4.459 -0.3629  0.1994  0.9653
 3770TIP3    H232802   1.250   3.889   4.468  0.4362  1.0770 -0.9326
 3771TIP3   OH232803   2.544   3.010   2.747  0.0074  0.0088 -0.2298
 3771TIP3    H132804   2.485   3.021   2.822 -1.4366 -2.6588 -0.8350
 3771TIP3    H232805   2.632   3.014   2.785 -0.6752 -1.0440  1.5918
 3772TIP3   OH232806   2.282   0.261  14.001  0.0807 -0.0109  0.0134
 3772TIP3    H132807   2.219   0.327  14.029  1.4581  0.9439  1.0242
 3772TIP3    H232808   2.232   0.179  13.997 -1.1143  0.6259  1.1766
 3773TIP3   OH232809   0.267   0.202   5.374  0.2037  1.4349 -0.0342
 3773TIP3    H132810   0.333   0.154   5.323 -0.7431  0.1537 -0.1098
 3773TIP3    H232811   0.231   0.136   5.434 -1.1452  2.0593 -0.1297
 3774TIP3   OH232812   0.028   2.564   4.043  0.2875 -1.0560  0.1185
 3774TIP3    H132813   0.123   2.573   4.055  0.5935 -2.6326 -0.8779
 3774TIP3    H232814   0.000   2.505   4.112 -0.3256  0.8158  1.5536
 3775TIP3   OH232815   4.246   3.150   6.431 -0.5667 -0.0376 -0.1258
 3775TIP3    H132816   4.225   3.095   6.505 -3.1120  1.9596  0.7889
 3775TIP3    H232817   4.214   3.102   6.355 -0.6138 -0.8224  0.3858
 3776TIP3   OH232818   0.133   4.683   1.998  0.5567 -0.6606  0.1351
 3776TIP3    H132819   0.194   4.720   2.062  0.7333 -0.7104 -0.0038
 3776TIP3    H232820   0.187   4.661   1.923 -0.0417  2.4668 -1.3851
 3777TIP3   OH232821   4.280   1.197   6.433 -0.0560 -0.0621 -0.1299
 3777TIP3    H132822   4.252   1.177   6.344  1.9620  0.1102 -0.8462
 3777TIP3    H232823   4.250   1.287   6.448 -3.1413 -1.0927  0.5890
 3778TIP3   OH232824   3.557   1.166   0.674  0.3125  0.4903 -0.6461
 3778TIP3    H132825   3.497   1.193   0.743  0.7482  0.4940 -0.2574
 3778TIP3    H232826   3.506   1.171   0.594 -1.0473 -2.1344 -0.0438
 3779TIP3   OH232827   1.332   2.938   5.529 -0.1849 -0.2230  0.0819
 3779TIP3    H132828   1.313   2.894   5.611 -0.1266  0.5949  0.5498
 3779TIP3    H232829   1.303   3.029   5.543  1.7384  0.4562 -0.0477
 3780TIP3   OH232830   3.542   1.926  15.464 -0.1176 -0.4570 -0.6633
 3780TIP3    H132831   3.587   1.976  15.397 -0.3609  2.7506  1.3372
 3780TIP3    H232832   3.456   1.968  15.472 -0.4566 -1.3630  0.9671
 3781TIP3   OH232833   4.794   4.861   2.774  0.2396  0.0812  0.0821
 3781TIP3    H132834   4.788   4.778   2.727  2.4057  0.5117 -1.1299
 3781TIP3    H232835   4.713   4.868   2.823 -0.9839 -1.6738 -1.5609
 3782TIP3   OH232836   6.611   6.401   0.872  0.0938  0.1531 -0.0251
 3782TIP3    H132837   6.687   6.426   0.819 -0.2996  1.0334 -0.1717
 3782TIP3    H232838   6.588   6.313   0.840  1.0358 -0.1269  0.0160
 3783TIP3   OH232839   6.662   0.246   3.193  0.1346 -0.6145  0.1166
 3783TIP3    H132840   6.597   0.216   3.257 -0.4815 -2.1599 -1.1670
 3783TIP3    H232841   6.649   0.341   3.188 -0.5033 -0.6072  1.4946
 3784TIP3   OH232842   2.385   1.492   2.079 -0.7008  0.2112 -0.0942
 3784TIP3    H132843   2.335   1.429   2.027 -0.0347  0.3782 -0.9497
 3784TIP3    H232844   2.392   1.569   2.023  1.9641 -0.3885 -0.7413
 3785TIP3   OH232845   0.516   1.804  15.535  0.2166  0.3597 -0.3535
 3785TIP3    H132846   0.429   1.821  15.573  0.6082  1.8420 -0.0584
 3785TIP3    H232847   0.564   1.759  15.604 -0.3944 -0.7340 -0.6210
 3786TIP3   OH232848   5.952   0.839  11.027 -0.5160  0.8541  0.1709
 3786TIP3    H132849   5.886   0.861  10.962  0.4960  0.1750 -1.1254
 3786TIP3    H232850   6.031   0.884  10.998  0.0309  0.3219  0.7860
 3787TIP3   OH232851   0.744   0.124  12.022  0.7879 -0.5700 -0.3024
 3787TIP3    H132852   0.819   0.095  12.075 -0.6405 -2.9771  0.5562
 3787TIP3    H232853   0.701   0.043  11.995 -1.6934  0.7294 -0.4991
 3788TIP3   OH232854   0.841   5.548  13.949  0.3559  0.3425 -0.2087
 3788TIP3    H132855   0.868   5.467  13.992 -0.9485  0.2617  0.5305
 3788TIP3    H232856   0.745   5.549  13.959  0.3590  2.0617 -0.0319
 3789TIP3   OH232857   1.400   1.933  12.624 -0.4995 -0.0552  0.3713
 3789TIP3    H132858   1.313   1.919  12.587 -0.0504  0.6920 -1.0595
 3789TIP3    H232859   1.409   2.029  12.627  0.4342 -0.1312  0.1106
 3790TIP3   OH232860   4.439   6.194   4.531  0.0197  0.3456 -0.4811
 3790TIP3    H132861   4.445   6.284   4.565  0.0129 -0.1422  0.8823
 3790TIP3    H232862   4.495   6.143   4.589 -2.1184 -1.0095  0.5263
 3791TIP3   OH232863   5.167   4.440   5.935  0.0479 -0.3826  0.1569
 3791TIP3    H132864   5.198   4.415   6.022  0.2446 -2.3486 -0.4311
 3791TIP3    H232865   5.071   4.435   5.942  0.0345  0.2588  0.4715
 3792TIP3   OH232866   5.719   3.041   0.353 -0.1695  0.5764  0.0865
 3792TIP3    H132867   5.796   3.090   0.325  2.3704 -2.1040  1.7502
 3792TIP3    H232868   5.680   3.095   0.422 -0.4964  2.4455 -1.4668
 3793TIP3   OH232869   2.401   5.564  16.600  0.2730  0.0268  0.1991
 3793TIP3    H132870   2.421   5.480  16.642 -1.2461 -0.1405  0.6469
 3793TIP3    H232871   2.486   5.598  16.573  1.2490 -0.2445  2.6759
 3794TIP3   OH232872   0.407   4.283  13.170  0.3625  0.1613  0.1651
 3794TIP3    H132873   0.312   4.283  13.179  0.4567 -0.0422  1.4462
 3794TIP3    H232874   0.439   4.293  13.260  1.5501  0.7533 -0.3022
 3795TIP3   OH232875   6.259   4.696  12.839  0.4688 -0.5449 -0.0185
 3795TIP3    H132876   6.228   4.648  12.762  0.7472 -0.6080 -0.0915
 3795TIP3    H232877   6.195   4.767  12.850  1.2362  0.3852 -1.2203
 3796TIP3   OH232878   6.595   5.701   0.990  0.3884  0.4672 -0.1646
 3796TIP3    H132879   6.534   5.761   0.946 -1.2092  0.5575  2.0355
 3796TIP3    H232880   6.623   5.641   0.922 -1.4721  0.9796 -1.4460
 3797TIP3   OH232881   4.326   4.880  13.336 -0.6015  0.3374  0.2309
 3797TIP3    H132882   4.408   4.929  13.341 -0.9409  1.0957 -1.1912
 3797TIP3    H232883   4.259   4.942  13.368 -0.5378 -0.6316  2.4364
 3798TIP3   OH232884   1.922   5.704   0.663  0.1312 -0.2539 -0.0244
 3798TIP3    H132885   1.970   5.648   0.603 -1.6852  0.8684 -2.7235
 3798TIP3    H232886   1.951   5.793   0.642 -1.0530  0.2181  0.2195
 3799TIP3   OH232887   5.770   5.581  15.055 -0.1164 -0.0437  0.2762
 3799TIP3    H132888   5.739   5.566  14.965 -0.5669  4.5331 -0.5619
 3799TIP3    H232889   5.865   5.592  15.046 -0.4335  3.3720 -0.3888
 3800TIP3   OH232890   5.883   3.080  12.324 -0.0770 -0.0904  0.3369
 3800TIP3    H132891   5.851   2.990  12.334  1.2704 -0.6098  0.2037
 3800TIP3    H232892   5.910   3.086  12.232 -0.4275  0.5429  0.2714
 3801TIP3   OH232893   5.512   6.606  13.003  0.3681  0.3225 -0.4076
 3801TIP3    H132894   5.535   6.593  13.095 -2.4922 -1.8243  0.1664
 3801TIP3    H232895   5.436   6.664  13.004 -0.1874 -0.3398 -1.2914
 3802TIP3   OH232896   3.851   3.857   3.984  0.2646 -0.2680  0.3042
 3802TIP3    H132897   3.885   3.943   3.959 -1.3274  0.0754 -0.8640
 3802TIP3    H232898   3.929   3.801   3.990  1.0862  0.4124 -2.4068
 3803TIP3   OH232899   4.520   1.571  15.764 -0.3776  0.5147 -0.1540
 3803TIP3    H132900   4.452   1.532  15.819  0.8487  0.4270  1.3696
 3803TIP3    H232901   4.472   1.620  15.698 -1.9236 -0.6741  0.0257
 3804TIP3   OH232902   4.431   3.749   3.457  0.5642 -0.2292 -0.1150
 3804TIP3    H132903   4.401   3.804   3.529 -0.1251  0.5734 -0.9884
 3804TIP3    H232904   4.466   3.811   3.392  1.4686 -0.9540 -0.3481
 3805TIP3   OH232905   6.254   5.682   3.704  0.4677 -0.1798 -0.3821
 3805TIP3    H132906   6.215   5.745   3.764  0.4071 -1.7391  1.2978
 3805TIP3    H232907   6.347   5.705   3.703  0.3370  0.3704 -0.3635
 3806TIP3   OH232908   5.270   4.633  14.949 -0.3361 -0.0628  0.0078
 3806TIP3    H132909   5.222   4.564  14.904 -1.4942  0.8125 -0.1640
 3806TIP3    H232910   5.235   4.632  15.038  1.7464 -1.6030  0.8754
 3807TIP3   OH232911   2.755   0.939  10.660 -0.0883 -0.1283 -0.5331
 3807TIP3    H132912   2.726   0.980  10.742 -1.0932 -0.5525 -0.6580
 3807TIP3    H232913   2.827   0.993  10.630  1.6204 -1.0581  1.6238
 3808TIP3   OH232914   3.339   1.201   0.407 -0.4787 -0.5791 -0.2036
 3808TIP3    H132915   3.373   1.289   0.394 -0.1062 -0.6486  0.2614
 3808TIP3    H232916   3.294   1.205   0.492 -0.0830 -0.9427  0.0277
 3809TIP3   OH232917   2.858   1.322  12.446  0.6185 -0.0231 -0.0061
 3809TIP3    H132918   2.865   1.301  12.353 -1.1763  0.7799 -0.3687
 3809TIP3    H232919   2.780   1.275  12.476  1.6311 -0.9364  1.3271
 3810TIP3   OH232920   3.497   6.759   6.888 -0.9049 -1.0038 -0.1198
 3810TIP3    H132921   3.536   6.800   6.811 -3.2013 -0.5337 -1.1348
 3810TIP3    H232922   3.516   6.818   6.960  0.5532 -1.0108 -0.4788
 3811TIP3   OH232923   2.468   5.106   5.970  0.0726 -0.1490  0.8166
 3811TIP3    H132924   2.494   5.168   5.902 -1.4263  1.3539  1.5354
 3811TIP3    H232925   2.503   5.022   5.940 -0.7899  0.3682 -1.9751
 3812TIP3   OH232926   2.879   0.215  11.213  0.1695 -0.4759  0.1797
 3812TIP3    H132927   2.845   0.126  11.200 -0.8441 -0.5284  2.6121
 3812TIP3    H232928   2.824   0.251  11.283  3.3440  0.4707  2.4005
 3813TIP3   OH232929   4.442   2.837   3.295  0.5540 -0.2365  0.0414
 3813TIP3    H132930   4.372   2.845   3.360  0.6590 -1.4104  0.3190
 3813TIP3    H232931   4.509   2.784   3.339  0.2463 -1.8104 -1.3091
 3814TIP3   OH232932   3.293   2.172  11.327 -0.1221  0.8625  0.0110
 3814TIP3    H132933   3.317   2.260  11.301 -0.6989  0.5177 -1.7785
 3814TIP3    H232934   3.374   2.121  11.317  0.0619  1.0570  0.4787
 3815TIP3   OH232935   4.244   2.734  15.237  0.1899 -0.5263  0.4606
 3815TIP3    H132936   4.326   2.685  15.227 -0.1696 -0.9609 -0.4769
 3815TIP3    H232937   4.271   2.825  15.252  0.8362 -0.6955  0.3193
 3816TIP3   OH232938   0.017   0.060   3.460 -0.8521 -0.2326 -0.0377
 3816TIP3    H132939   0.021   0.088   3.551 -0.1704  1.5621 -0.5813
 3816TIP3    H232940   0.043   0.137   3.409 -1.9020 -0.9726 -1.7957
 3817TIP3   OH232941   2.338   5.961  12.236  0.1599  0.3713 -0.4161
 3817TIP3    H132942   2.337   6.022  12.309 -1.5897  1.9545 -1.6852
 3817TIP3    H232943   2.306   5.879  12.274  1.2947  0.5364  1.0175
 3818TIP3   OH232944   2.519   1.352  14.410 -0.4189 -0.1188 -0.1044
 3818TIP3    H132945   2.581   1.363  14.482 -1.0904  0.5873  0.3824
 3818TIP3    H232946   2.472   1.436  14.406 -1.0562 -0.4973 -0.7234
 3819TIP3   OH232947   4.974   5.843   3.101 -0.2922  1.0738 -0.2211
 3819TIP3    H132948   4.954   5.928   3.139 -1.2744  0.7908 -0.0649
 3819TIP3    H232949   5.066   5.848   3.076 -0.5818  2.5231 -1.1290
 3820TIP3   OH232950   2.744   0.939   2.883 -0.4864 -0.4538  0.9831
 3820TIP3    H132951   2.828   0.947   2.838 -0.9019 -0.1407  0.2586
 3820TIP3    H232952   2.678   0.954   2.815 -1.1548 -1.6827  1.3333
 3821TIP3   OH232953   3.241   2.974  11.467  0.0662  0.5082  0.1968
 3821TIP3    H132954   3.224   2.980  11.373  1.7033 -1.5946 -0.3045
 3821TIP3    H232955   3.336   2.985  11.476  0.1640 -0.9551  1.3938
 3822TIP3   OH232956   1.404   4.475  16.893 -0.5510  0.0229  0.1360
 3822TIP3    H132957   1.421   4.540  16.824 -0.8425  0.0212  0.0603
 3822TIP3    H232958   1.311   4.454  16.884 -0.4019 -0.6032 -0.0115
 3823TIP3   OH232959   6.196   3.330  15.779  0.4226 -1.2472  0.0060
 3823TIP3    H132960   6.109   3.300  15.805 -0.3766 -0.7034 -1.8598
 3823TIP3    H232961   6.214   3.284  15.698  0.5535  0.8349 -1.2190
 3824TIP3   OH232962   0.595   5.732  16.351  0.1127  0.1477 -0.0043
 3824TIP3    H132963   0.634   5.792  16.288  1.9178 -0.3366  0.5982
 3824TIP3    H232964   0.657   5.659  16.357 -0.7800 -0.5610  1.1701
 3825TIP3   OH232965   4.724   5.388  16.423 -0.4114  0.4030  0.2135
 3825TIP3    H132966   4.655   5.350  16.368 -1.8147  2.4326  0.4526
 3825TIP3    H232967   4.732   5.328  16.496 -0.2855 -1.0390 -0.9365
 3826TIP3   OH232968   5.241   1.519   0.097 -0.0576 -0.2459  0.0609
 3826TIP3    H132969   5.309   1.559   0.043 -1.8946  2.3404 -0.5022
 3826TIP3    H232970   5.257   1.552   0.185 -0.0981 -0.3186  0.0962
 3827TIP3   OH232971   0.444   4.318   0.990  0.2315 -0.4795  0.0485
 3827TIP3    H132972   0.495   4.317   0.909  0.5315  1.4118  0.1750
 3827TIP3    H232973   0.433   4.410   1.010 -0.6259 -0.9050  1.6899
 3828TIP3   OH232974   3.686   0.143  15.195  0.3889  0.3401 -0.2756
 3828TIP3    H132975   3.704   0.172  15.105  0.6230 -0.4151 -0.4750
 3828TIP3    H232976   3.745   0.196  15.249  1.4631 -0.3778 -0.7194
 3829TIP3   OH232977   2.882   4.226   5.421  0.5299 -0.2044 -0.1482
 3829TIP3    H132978   2.922   4.244   5.506  1.7758 -0.4904 -0.6566
 3829TIP3    H232979   2.844   4.310   5.394  0.1491 -0.1024  0.6553
 3830TIP3   OH232980   3.428   1.458   0.388 -0.3292 -0.0010 -0.3239
 3830TIP3    H132981   3.410   1.533   0.330  0.0717  1.4805  1.3683
 3830TIP3    H232982   3.523   1.446   0.381 -0.5063 -1.0142 -1.3081
 3831TIP3   OH232983   3.367   3.132  15.187 -0.4403  0.2724 -0.0108
 3831TIP3    H132984   3.274   3.130  15.165 -0.9503 -1.4585  1.9269
 3831TIP3    H232985   3.377   3.205  15.249 -0.6550  0.0659  0.2700
 3832TIP3   OH232986   2.410   4.074   2.768  0.1313 -0.1970  0.2870
 3832TIP3    H132987   2.415   4.099   2.861  1.1644  1.3787 -0.1486
 3832TIP3    H232988   2.491   4.026   2.753  0.1215 -0.1608  0.1252
 3833TIP3   OH232989   6.318   2.396   6.610  0.0983  0.1653 -0.3051
 3833TIP3    H132990   6.369   2.457   6.663 -1.4533  1.2663 -0.0339
 3833TIP3    H232991   6.244   2.447   6.579 -0.1865 -1.0563 -1.7496
 3834TIP3   OH232992   1.814   2.904   5.875  0.2706  0.5477  0.1153
 3834TIP3    H132993   1.879   2.940   5.935 -0.7420  1.1503  0.8868
 3834TIP3    H232994   1.805   2.970   5.807 -0.5214  1.1073  0.7480
 3835TIP3   OH232995   2.904   1.115   3.569  0.0184 -0.1661  0.0720
 3835TIP3    H132996   2.911   1.155   3.482  0.8922  1.6052  0.8979
 3835TIP3    H232997   2.991   1.080   3.586 -0.1767 -0.5902  0.2186
 3836TIP3   OH232998   0.564   0.655  15.833 -0.1802  0.1180  0.1515
 3836TIP3    H132999   0.637   0.615  15.786 -0.4264 -1.1018  0.7771
 3836TIP3    H233000   0.499   0.586  15.841 -0.4925  0.5309  1.5253
 3837TIP3   OH233001   1.869   2.054   0.503 -0.3053  0.7338  0.9749
 3837TIP3    H133002   1.908   2.037   0.588 -1.6319 -1.3896  1.2287
 3837TIP3    H233003   1.803   2.121   0.520 -0.9719 -0.0965  1.7756
 3838TIP3   OH233004   5.757   4.137  15.940  0.6007 -0.1779 -0.4682
 3838TIP3    H133005   5.767   4.069  15.874 -0.3528 -0.5196 -0.2872
 3838TIP3    H233006   5.813   4.110  16.012  0.9529 -0.2719 -0.7748
 3839TIP3   OH233007   4.471   6.564  10.844 -0.5336  0.4115 -0.0109
 3839TIP3    H133008   4.480   6.562  10.749 -2.2598 -1.0134 -0.1968
 3839TIP3    H233009   4.552   6.604  10.875 -0.0116  1.0863 -2.0763
 3840TIP3   OH233010   0.277   4.776   0.647  0.1724  0.2246 -0.2531
 3840TIP3    H133011   0.322   4.709   0.699 -2.0673 -0.0909  1.4775
 3840TIP3    H233012   0.335   4.853   0.651  0.8967 -0.3620  1.2519
 3841TIP3   OH233013   2.046   6.708   4.152  0.0420 -0.1062  0.4337
 3841TIP3    H133014   2.112   6.698   4.220  1.1309 -0.8218 -0.6950
 3841TIP3    H233015   1.963   6.712   4.200  0.7066 -1.3660  1.7636
 3842TIP3   OH233016   3.585   1.166   3.707  0.2947  0.0203 -0.4197
 3842TIP3    H133017   3.649   1.180   3.776  0.0845 -0.5478 -0.1049
 3842TIP3    H233018   3.626   1.101   3.649  0.6156  0.7417 -1.0290
 3843TIP3   OH233019   1.231   0.586  14.351  0.2771 -0.3512  0.1231
 3843TIP3    H133020   1.277   0.623  14.276 -2.7100  2.3759 -0.5964
 3843TIP3    H233021   1.297   0.582  14.420  2.8382 -1.8610 -2.2127
 3844TIP3   OH233022   3.721   3.224  16.252 -0.3495 -0.0583 -0.2209
 3844TIP3    H133023   3.782   3.159  16.218 -0.0469 -0.5499  1.2030
 3844TIP3    H233024   3.636   3.180  16.253 -0.4943  0.1928 -0.9801
 3845TIP3   OH233025   4.917   4.198   4.321 -0.1256 -0.0970  0.1008
 3845TIP3    H133026   4.856   4.135   4.283 -1.0133 -0.1232  1.5073
 3845TIP3    H233027   4.888   4.283   4.288  1.4787 -0.3700 -2.3525
 3846TIP3   OH233028   5.440   0.311   1.945 -0.6843  0.3518 -0.7758
 3846TIP3    H133029   5.442   0.406   1.936  0.9025  0.4921  0.6001
 3846TIP3    H233030   5.405   0.296   2.033  3.6455 -0.0376  1.1210
 3847TIP3   OH233031   2.805   3.584  10.690 -0.1603 -0.1711 -0.2921
 3847TIP3    H133032   2.851   3.544  10.763 -1.2481 -0.6067  0.1735
 3847TIP3    H233033   2.763   3.510  10.645 -1.5498  0.3209  0.1285
 3848TIP3   OH233034   4.410   5.267  12.144  0.2711 -0.5408  0.1114
 3848TIP3    H133035   4.344   5.201  12.126  0.6084 -0.3480 -2.2630
 3848TIP3    H233036   4.364   5.350  12.133  0.7860 -0.4092 -1.3158
 3849TIP3   OH233037   3.181   4.161   4.443 -0.2232  0.6839 -0.2851
 3849TIP3    H133038   3.250   4.197   4.388  1.2942 -1.4038  0.1433
 3849TIP3    H233039   3.225   4.101   4.502 -2.3117 -0.2005  0.4935
 3850TIP3   OH233040   6.626   5.067  15.267 -0.4226  0.1930  0.3934
 3850TIP3    H133041   6.598   5.156  15.246 -0.6803  0.5929  2.1868
 3850TIP3    H233042   6.694   5.047  15.203 -0.4485  1.6337 -0.1241
 3851TIP3   OH233043   5.230   4.128  17.273  0.0909  0.0935  0.1608
 3851TIP3    H133044   5.171   4.189  17.318  1.9800  2.1436  0.0014
 3851TIP3    H233045   5.231   4.051  17.329 -2.4966  0.0481  0.2971
 3852TIP3   OH233046   2.301   2.691   4.485  0.0209  0.3642  0.3148
 3852TIP3    H133047   2.266   2.727   4.566 -0.1455 -1.1917  0.9824
 3852TIP3    H233048   2.383   2.649   4.510 -0.0307 -0.1388 -0.2985
 3853TIP3   OH233049   2.434   5.198  14.477 -0.5630  0.1721 -0.4812
 3853TIP3    H133050   2.494   5.143  14.427  2.0268  1.0275  1.4154
 3853TIP3    H233051   2.391   5.253  14.412  0.9237 -0.3321 -1.9547
 3854TIP3   OH233052   2.231   0.377  14.467  0.3128  0.7332  0.1303
 3854TIP3    H133053   2.269   0.341  14.547  0.7462  3.3050  1.1823
 3854TIP3    H233054   2.300   0.431  14.429 -0.0453 -0.0455 -1.7569
 3855TIP3   OH233055   4.950   1.795   3.507 -0.4247  0.5596  0.1258
 3855TIP3    H133056   4.869   1.787   3.556 -0.0399  0.8440  0.8152
 3855TIP3    H233057   5.009   1.729   3.545 -0.9417 -1.0338 -1.6662
 3856TIP3   OH233058   1.551   1.317  16.670 -0.2204  0.0587 -0.3565
 3856TIP3    H133059   1.498   1.360  16.603 -1.8377 -0.5009  0.5114
 3856TIP3    H233060   1.610   1.385  16.702 -0.4273  0.7111 -1.3276
 3857TIP3   OH233061   6.290   5.827   1.707 -0.2474 -0.5370 -0.4222
 3857TIP3    H133062   6.251   5.896   1.653  1.0547 -0.4057 -1.2481
 3857TIP3    H233063   6.242   5.748   1.683 -1.1985 -0.0673 -0.0853
 3858TIP3   OH233064   1.558   4.121  15.939  0.2554  0.5687  0.5167
 3858TIP3    H133065   1.504   4.177  15.883 -0.3801  1.5601  2.0738
 3858TIP3    H233066   1.634   4.099  15.884 -1.1067  0.1309 -1.2893
 3859TIP3   OH233067   4.979   4.383  11.947 -0.6857 -0.5536 -0.0368
 3859TIP3    H133068   4.960   4.417  11.859 -2.7009  0.2285  0.6294
 3859TIP3    H233069   4.906   4.415  12.000  0.2292 -1.4398  1.8201
 3860TIP3   OH233070   0.593   2.904  11.460  0.6110  0.5677  0.5849
 3860TIP3    H133071   0.624   2.992  11.437 -0.6930  0.8955 -0.0140
 3860TIP3    H233072   0.532   2.881  11.390  0.3434 -0.4997  1.1498
 3861TIP3   OH233073   1.357   4.461  13.533  0.5777  0.5118  0.6047
 3861TIP3    H133074   1.287   4.523  13.550 -0.0004  0.0829 -0.1551
 3861TIP3    H233075   1.426   4.514  13.493 -0.7560  0.3648 -2.1279
 3862TIP3   OH233076   6.174   6.733   1.838  0.3175  0.3309 -0.3060
 3862TIP3    H133077   6.136   6.673   1.902 -1.1458  0.0090 -1.4177
 3862TIP3    H233078   6.240   6.681   1.791  0.5751  0.2384  0.1535
 3863TIP3   OH233079   5.154   0.688  16.284 -0.3951 -0.0937 -0.0037
 3863TIP3    H133080   5.218   0.753  16.257 -0.8243  0.3883  0.1235
 3863TIP3    H233081   5.115   0.657  16.202 -0.0770 -0.3032 -0.0740
 3864TIP3   OH233082   5.261   5.010   6.539 -0.1239 -0.1224  0.7474
 3864TIP3    H133083   5.258   5.073   6.467  0.1714 -0.0098  0.8305
 3864TIP3    H233084   5.338   5.036   6.590  0.7111 -1.2613  0.1189
 3865TIP3   OH233085   5.526   0.248   5.919 -0.0093  0.2998  0.1913
 3865TIP3    H133086   5.612   0.281   5.947  0.0309  0.4415 -0.0927
 3865TIP3    H233087   5.475   0.327   5.903 -0.0277  0.2201 -0.1447
 3866TIP3   OH233088   5.526   2.981   1.073 -0.3019  0.2925  0.2682
 3866TIP3    H133089   5.555   2.890   1.070 -1.5398 -0.2253  2.1388
 3866TIP3    H233090   5.577   3.025   1.004  2.0893 -1.2822  0.9066
 3867TIP3   OH233091   4.179   3.981   4.210  0.1796 -0.4182  0.5933
 3867TIP3    H133092   4.184   3.926   4.132  1.2890  1.3728 -0.6679
 3867TIP3    H233093   4.257   3.958   4.260 -0.7460 -1.8690  1.4408
 3868TIP3   OH233094   5.156   0.670  12.686 -0.1234  0.1900 -0.8765
 3868TIP3    H133095   5.098   0.593  12.685  1.8325 -1.5070  1.7526
 3868TIP3    H233096   5.119   0.726  12.754 -0.4007  0.6204 -1.3766
 3869TIP3   OH233097   5.922   6.816   2.487 -0.1629  0.1238 -0.0587
 3869TIP3    H133098   6.010   6.814   2.522 -0.1264 -1.3789 -0.1590
 3869TIP3    H233099   5.867   6.846   2.560  0.3902  0.9263  0.0414
 3870TIP3   OH233100   6.567   4.636  13.313  0.3317  0.1225 -0.4022
 3870TIP3    H133101   6.558   4.541  13.314  1.4998 -0.0217 -1.4112
 3870TIP3    H233102   6.619   4.657  13.391 -1.7113  0.1836  1.0137
 3871TIP3   OH233103   4.516   2.337  16.699 -0.0428  0.8722 -0.0608
 3871TIP3    H133104   4.470   2.402  16.645 -0.6462  0.2951 -0.2649
 3871TIP3    H233105   4.596   2.380  16.726  0.3280  1.1427 -1.5154
 3872TIP3   OH233106   4.464   5.387   1.776 -0.0587  0.1804 -0.8200
 3872TIP3    H133107   4.438   5.458   1.834 -0.5914 -1.4071  0.9930
 3872TIP3    H233108   4.531   5.424   1.720  0.5279  1.7755  0.8640
 3873TIP3   OH233109   6.235   5.413   2.943  0.3160  0.1236  0.2396
 3873TIP3    H133110   6.177   5.338   2.942  1.5265 -0.8563 -0.4865
 3873TIP3    H233111   6.259   5.426   2.851  0.1958  1.3583  0.3581
 3874TIP3   OH233112   1.252   1.551  12.587 -0.1638 -0.6272  0.3903
 3874TIP3    H133113   1.158   1.547  12.600 -0.2659 -0.0999 -0.1498
 3874TIP3    H233114   1.284   1.606  12.659 -0.2777 -0.7234  0.5149
 3875TIP3   OH233115   0.240   6.639  11.311 -0.0468 -0.4180  0.7003
 3875TIP3    H133116   0.164   6.653  11.368  0.7016  3.4812  0.9569
 3875TIP3    H233117   0.210   6.663  11.224  0.0463 -2.1583  0.1417
 3876TIP3   OH233118   6.044   0.856   4.759 -0.8160 -0.3487 -0.6186
 3876TIP3    H133119   6.087   0.770   4.753 -0.6750 -0.5314  1.9078
 3876TIP3    H233120   5.980   0.845   4.829 -1.4948  1.3616 -0.9347
 3877TIP3   OH233121   6.381   5.417   1.213  0.3127  0.2083 -0.9036
 3877TIP3    H133122   6.472   5.419   1.242 -0.0984  1.0351  0.3829
 3877TIP3    H233123   6.366   5.503   1.174  0.5564 -0.5247 -2.7440
 3878TIP3   OH233124   0.275   4.840   5.208  0.1724  0.3247  0.3354
 3878TIP3    H133125   0.324   4.788   5.145 -0.1163  1.6261 -1.0312
 3878TIP3    H233126   0.196   4.867   5.160 -0.7045  0.2516  1.6963
 3879TIP3   OH233127   4.242   0.963   0.417 -0.2255  0.0265  0.3868
 3879TIP3    H133128   4.250   0.956   0.321 -2.6914  1.0910  0.0363
 3879TIP3    H233129   4.320   1.012   0.443  0.1147  0.4068 -1.1864
 3880TIP3   OH233130   3.647   2.739   4.379 -0.2677 -0.1571  0.0786
 3880TIP3    H133131   3.732   2.763   4.415 -0.5348  0.4149  0.3405
 3880TIP3    H233132   3.661   2.735   4.284 -0.7143  3.4296 -0.2828
 3881TIP3   OH233133   6.352   4.816  13.200  0.2595  0.0086 -0.1492
 3881TIP3    H133134   6.416   4.759  13.243 -1.0812  0.5220  2.7310
 3881TIP3    H233135   6.392   4.902  13.202  0.3943 -0.0481 -0.3719
 3882TIP3   OH233136   1.032   6.200   1.255  0.0987  0.3002  0.2354
 3882TIP3    H133137   1.063   6.159   1.175  0.5618  0.6245  0.2425
 3882TIP3    H233138   1.103   6.186   1.319 -0.3667 -0.1643  0.6584
 3883TIP3   OH233139   0.165   6.603   5.115 -0.2195  0.3561  0.0253
 3883TIP3    H133140   0.111   6.594   5.037  1.4356  0.5154 -1.1880
 3883TIP3    H233141   0.120   6.670   5.167 -1.1558  0.5259 -0.9565
 3884TIP3   OH233142   4.333   2.824  11.540 -0.0323 -0.7884  1.1763
 3884TIP3    H133143   4.274   2.898  11.555 -0.0806 -0.3955 -0.7041
 3884TIP3    H233144   4.417   2.864  11.520  0.4339 -1.3041  2.0818
 3885TIP3   OH233145   4.345   2.224  17.114  0.0974  0.1257 -0.1282
 3885TIP3    H133146   4.423   2.275  17.133 -0.4799  1.3665 -0.9414
 3885TIP3    H233147   4.282   2.249  17.182 -0.7775  1.8993 -1.5026
 3886TIP3   OH233148   6.032   1.334   1.074 -0.8060  0.1839  0.3199
 3886TIP3    H133149   6.115   1.382   1.087 -1.6070  1.6906  0.1304
 3886TIP3    H233150   5.973   1.372   1.139 -1.5249 -0.4786  0.0623
 3887TIP3   OH233151   4.776   2.291  11.662 -0.0234 -0.3744  0.4401
 3887TIP3    H133152   4.810   2.254  11.580  2.8478 -2.7219  2.4871
 3887TIP3    H233153   4.686   2.260  11.666 -0.6301  0.7086 -2.2421
 3888TIP3   OH233154   1.221   5.607  14.212  0.2709 -0.1157  0.5606
 3888TIP3    H133155   1.147   5.615  14.272 -0.7245 -1.8040 -0.3600
 3888TIP3    H233156   1.194   5.655  14.134  1.2220  1.3753  1.1086
 3889TIP3   OH233157   3.595   5.626  15.851  0.0225  0.3644 -0.0489
 3889TIP3    H133158   3.541   5.619  15.772 -1.5607  3.3874  0.6227
 3889TIP3    H233159   3.675   5.578  15.829 -2.2322 -3.0439 -1.6487
 3890TIP3   OH233160   4.436   0.561  16.273  0.6221 -0.1573  0.8487
 3890TIP3    H133161   4.497   0.621  16.231  0.2258 -0.7744 -0.6643
 3890TIP3    H233162   4.455   0.475  16.234 -0.2306 -0.6210  1.4154
 3891TIP3   OH233163   0.945   0.930  12.357  0.0417 -0.5801 -0.1285
 3891TIP3    H133164   0.949   0.958  12.265 -0.3535 -3.3210 -1.0844
 3891TIP3    H233165   1.006   0.987  12.403 -0.0774  1.1555 -2.0063
 3892TIP3   OH233166   6.161   1.427  14.596  0.3825 -0.5778 -0.1689
 3892TIP3    H133167   6.190   1.343  14.631 -0.0664 -0.5154  0.3710
 3892TIP3    H233168   6.128   1.474  14.672  0.1061 -0.1339 -0.5599
 3893TIP3   OH233169   0.367   6.429  11.175 -0.1142 -0.4596  0.1232
 3893TIP3    H133170   0.321   6.500  11.220 -0.0322  0.2793 -0.9051
 3893TIP3    H233171   0.412   6.473  11.102  1.1833 -1.3426  0.3594
 3894TIP3   OH233172   3.998   6.789  12.110  0.0224  0.0579 -0.2579
 3894TIP3    H133173   4.076   6.764  12.160 -0.5894  0.0479  0.7099
 3894TIP3    H233174   4.027   6.787  12.019  0.6830 -1.6950 -0.0509
 3895TIP3   OH233175   1.812   1.703  15.602  0.1424  0.1479 -0.5243
 3895TIP3    H133176   1.789   1.661  15.685 -3.3266  3.0802  0.2691
 3895TIP3    H233177   1.896   1.745  15.619 -0.0684 -0.0565  1.2375
 3896TIP3   OH233178   2.727   0.099  16.267  0.1905  0.0296 -0.0514
 3896TIP3    H133179   2.671   0.074  16.193 -0.8633 -0.6584  0.9580
 3896TIP3    H233180   2.751   0.190  16.249  0.5438 -0.3292 -1.5907
 3897TIP3   OH233181   0.414   0.530  12.817 -0.1505  0.1314 -0.7363
 3897TIP3    H133182   0.509   0.546  12.819  0.0217 -0.7868  1.3694
 3897TIP3    H233183   0.398   0.493  12.731  1.5212 -0.2077 -0.9385
 3898TIP3   OH233184   0.248   3.331  12.568  0.0706 -0.0416  0.1963
 3898TIP3    H133185   0.214   3.361  12.484  0.9453 -1.7372 -0.8196
 3898TIP3    H233186   0.171   3.307  12.619 -0.4219 -0.3695 -0.6843
 3899TIP3   OH233187   2.475   2.022   4.286  0.3686  0.2032 -0.0109
 3899TIP3    H133188   2.421   1.960   4.334  0.5241  1.1691  1.4791
 3899TIP3    H233189   2.564   1.988   4.296  0.1682 -0.9577 -1.7974
 3900TIP3   OH233190   2.318   3.850   3.604 -0.2339 -0.0433  0.1910
 3900TIP3    H133191   2.392   3.799   3.570  1.2302  1.3949  1.0486
 3900TIP3    H233192   2.260   3.785   3.644  0.6218 -1.2006 -0.3855
 3901TIP3   OH233193   0.385   5.773  16.862 -0.6143  0.0238  0.4032
 3901TIP3    H133194   0.324   5.792  16.791 -0.9241  3.4205  1.4147
 3901TIP3    H233195   0.329   5.739  16.932 -1.4932  2.9783  1.2741
 3902TIP3   OH233196   2.311   1.572  14.439  0.4839 -0.3167  0.0980
 3902TIP3    H133197   2.328   1.638  14.505 -0.3125 -0.7680  0.7677
 3902TIP3    H233198   2.265   1.502  14.485 -1.2928 -0.0654 -1.1905
 3903TIP3   OH233199   3.174   4.404   5.398 -0.1681  0.0794  0.0117
 3903TIP3    H133200   3.130   4.463   5.459  0.1879 -0.6380  0.9975
 3903TIP3    H233201   3.111   4.332   5.385  0.1416 -0.2462  0.3006
 3904TIP3   OH233202   0.226   3.591  16.975 -0.4322 -0.2925  0.1271
 3904TIP3    H133203   0.213   3.593  17.069 -1.6765 -0.8560 -0.0208
 3904TIP3    H233204   0.279   3.669  16.956  1.8587 -1.3825  1.5555
 3905TIP3   OH233205   3.318   1.930  13.773  0.0482  0.7473  0.6425
 3905TIP3    H133206   3.381   1.907  13.704 -0.8476  0.2302 -0.0269
 3905TIP3    H233207   3.366   1.918  13.854  0.9103  0.6724  0.1316
 3906TIP3   OH233208   1.896   2.388   3.248 -0.3847  0.6508  0.8868
 3906TIP3    H133209   1.919   2.374   3.340  0.5675  0.4061  0.6236
 3906TIP3    H233210   1.972   2.431   3.210 -0.7409  0.6945  0.1941
 3907TIP3   OH233211   2.702   5.034  15.249  0.2914 -0.7585 -0.2130
 3907TIP3    H133212   2.649   5.044  15.328  1.6784 -0.9671  0.7785
 3907TIP3    H233213   2.650   4.977  15.192 -0.9843 -0.1409  0.2933
 3908TIP3   OH233214   5.419   4.851   3.658  0.2541  0.2565 -0.4183
 3908TIP3    H133215   5.406   4.928   3.603  0.7031  1.1403  0.6780
 3908TIP3    H233216   5.505   4.865   3.698  0.9510 -1.4715 -1.2308
 3909TIP3   OH233217   3.905   2.890   4.475  0.0495  0.0800  0.4858
 3909TIP3    H133218   3.932   2.800   4.455  0.7220  0.6270 -1.2841
 3909TIP3    H233219   3.987   2.940   4.473 -0.4623  0.9315  0.1711
 3910TIP3   OH233220   2.916   6.054  16.664 -0.4209  0.5589 -0.1421
 3910TIP3    H133221   2.964   5.986  16.617 -0.5918  0.8944 -0.8135
 3910TIP3    H233222   2.897   6.015  16.749  0.2286  0.0843 -0.2042
 3911TIP3   OH233223   3.873   4.663  14.012 -0.2316 -0.5452  0.6860
 3911TIP3    H133224   3.942   4.598  14.027 -0.3236 -0.6688  0.5726
 3911TIP3    H233225   3.905   4.714  13.938 -0.7591 -1.2944 -0.0759
 3912TIP3   OH233226   6.772   0.853  14.965  0.0922 -0.0574  0.4722
 3912TIP3    H133227   6.705   0.888  15.024  1.2806  1.0575  1.1994
 3912TIP3    H233228   6.805   0.776  15.011  0.0987  0.0483  0.6477
 3913TIP3   OH233229   5.377   2.015   4.206 -0.1784 -0.1168  0.0599
 3913TIP3    H133230   5.403   2.083   4.269 -1.7061 -0.6448  1.3488
 3913TIP3    H233231   5.411   1.934   4.243 -0.1469 -0.3008 -0.3720
 3914TIP3   OH233232   1.850   5.627  16.240 -0.2195  0.2726 -0.4883
 3914TIP3    H133233   1.768   5.677  16.246  0.6020  1.6319 -0.1753
 3914TIP3    H233234   1.860   5.587  16.327  0.4840  1.8361  0.1868
 3915TIP3   OH233235   3.159   4.659  14.894  0.5365  0.0331 -0.0988
 3915TIP3    H133236   3.138   4.739  14.942  0.3382  1.8117 -2.9105
 3915TIP3    H233237   3.191   4.689  14.809 -1.6895 -2.8225 -2.1980
 3916TIP3   OH233238   6.585   5.018   5.847  0.5716  0.4318 -0.5006
 3916TIP3    H133239   6.512   5.041   5.791 -0.0704 -1.8217 -0.6593
 3916TIP3    H233240   6.580   5.080   5.920 -1.4174  0.4150 -0.5803
 3917TIP3   OH233241   4.402   1.805  15.586  0.1685  0.0562 -0.0181
 3917TIP3    H133242   4.384   1.898  15.569  1.2617  0.3017  0.0898
 3917TIP3    H233243   4.491   1.792  15.553  0.3832 -0.7176  0.8457
 3918TIP3   OH233244   4.557   5.497   1.177  0.3939 -0.1942 -0.6910
 3918TIP3    H133245   4.536   5.567   1.239  1.9737  0.2127 -0.5836
 3918TIP3    H233246   4.609   5.435   1.228 -0.0966 -0.9312 -1.0716
 3919TIP3   OH233247   5.436   2.126   1.415 -0.2564 -0.0655 -0.0925
 3919TIP3    H133248   5.387   2.049   1.385 -0.4392  0.5180 -1.3724
 3919TIP3    H233249   5.425   2.126   1.510  0.3904 -2.0318  0.0265
 3920TIP3   OH233250   1.603   5.189  14.833  0.2792 -0.1995 -0.1118
 3920TIP3    H133251   1.550   5.255  14.788 -0.3062 -1.6862 -1.6828
 3920TIP3    H233252   1.681   5.238  14.862 -1.6296  1.9147  1.8434
 3921TIP3   OH233253   6.230   6.078  12.817  0.3822  0.1247  0.0245
 3921TIP3    H133254   6.172   6.018  12.865  0.3251  0.9417  1.0220
 3921TIP3    H233255   6.187   6.163  12.823  1.5181  0.6944  0.5430
 3922TIP3   OH233256   2.258   0.857  12.732  0.0885 -0.3548  0.0552
 3922TIP3    H133257   2.274   0.939  12.778  0.6508  1.1518 -2.6450
 3922TIP3    H233258   2.190   0.813  12.784 -1.0832  2.3265  0.9575
 3923TIP3   OH233259   6.807   2.858  14.831 -0.3503  0.0027 -0.1520
 3923TIP3    H133260   6.773   2.770  14.845 -0.8546  0.1749 -0.2902
 3923TIP3    H233261   6.760   2.890  14.754  0.8438 -0.1382 -0.9634
 3924TIP3   OH233262   5.853   3.288  12.909 -0.7217 -0.3995 -0.5859
 3924TIP3    H133263   5.814   3.360  12.959 -1.7081 -0.8241 -0.7225
 3924TIP3    H233264   5.938   3.274  12.950 -1.2425 -0.3061  0.5664
 3925TIP3   OH233265   1.895   3.135  15.232  0.3087 -0.1574 -0.5790
 3925TIP3    H133266   1.852   3.062  15.188 -1.7796  1.1953 -0.9286
 3925TIP3    H233267   1.837   3.158  15.304  2.1337 -0.3164  1.0547
 3926TIP3   OH233268   3.383   3.533   6.315 -0.1432 -0.2988 -0.1156
 3926TIP3    H133269   3.404   3.607   6.258 -0.8000 -2.1080 -2.8563
 3926TIP3    H233270   3.374   3.573   6.402  1.4520  2.5125 -1.0982
 3927TIP3   OH233271   5.842   1.551  13.753  0.1295 -0.6475  0.7656
 3927TIP3    H133272   5.818   1.484  13.690  0.1461 -0.6981  0.8131
 3927TIP3    H233273   5.836   1.633  13.704  1.3197 -0.7826  0.3533
 3928TIP3   OH233274   1.747   1.976  12.002 -0.1333  0.6496  0.1333
 3928TIP3    H133275   1.718   1.885  12.009  1.3183  0.2664  2.1981
 3928TIP3    H233276   1.827   1.980  12.056  0.5863  2.8438 -0.9622
 3929TIP3   OH233277   0.070   3.729   4.393 -0.1307 -0.6262  0.7378
 3929TIP3    H133278  -0.010   3.770   4.362 -0.1171 -1.0624  0.1009
 3929TIP3    H233279   0.041   3.646   4.432  0.2581 -2.5191 -2.6258
 3930TIP3   OH233280   1.928   4.967  12.903 -0.3502  0.0911 -0.2868
 3930TIP3    H133281   1.898   4.877  12.888  1.2357 -0.7590  1.1955
 3930TIP3    H233282   1.914   5.011  12.820  0.9821 -2.1945 -1.8540
 3931TIP3   OH233283   1.089   2.692  11.114  0.3054  0.2670  0.0671
 3931TIP3    H133284   1.099   2.603  11.079  1.8540  0.1400  0.7656
 3931TIP3    H233285   1.027   2.734  11.054 -0.3090 -1.2169 -0.3829
 3932TIP3   OH233286   2.998   6.722  14.845  0.0852 -0.8579  0.4801
 3932TIP3    H133287   2.904   6.726  14.831  0.1801  0.9169  0.1110
 3932TIP3    H233288   3.008   6.689  14.935 -0.9249 -0.0483  0.9027
 3933TIP3   OH233289   0.435   1.778   3.850 -0.1084 -0.6877  0.5311
 3933TIP3    H133290   0.397   1.847   3.795  2.0098  1.0235  1.0751
 3933TIP3    H233291   0.364   1.715   3.861 -1.4326  0.2258 -1.9221
 3934TIP3   OH233292   6.368   4.765  14.059 -0.0541  0.0529 -0.2257
 3934TIP3    H133293   6.310   4.798  14.128  0.8347  1.1583  0.0195
 3934TIP3    H233294   6.440   4.724  14.106  0.3299  0.4116 -0.4983
 3935TIP3   OH233295   5.549   2.895   1.501 -0.4224 -0.0687 -0.0146
 3935TIP3    H133296   5.477   2.861   1.447  0.3748 -1.2242 -0.3908
 3935TIP3    H233297   5.598   2.952   1.441 -0.1471 -0.5045 -0.2057
 3936TIP3   OH233298   6.573   6.457  14.384  0.4095  0.1679 -0.7568
 3936TIP3    H133299   6.508   6.516  14.347  0.3362  0.6024  0.0257
 3936TIP3    H233300   6.651   6.470  14.330 -0.8139 -2.1923 -3.2886
 3937TIP3   OH233301   2.880   2.233   0.101  0.0350  0.2608  0.2353
 3937TIP3    H133302   2.811   2.278   0.053 -0.3654 -0.8540 -0.2534
 3937TIP3    H233303   2.958   2.285   0.085 -0.3411  0.5728 -0.6345
 3938TIP3   OH233304   4.920   0.332   3.033 -0.0627  0.4463 -0.4509
 3938TIP3    H133305   4.988   0.383   2.989  0.0921  1.1426  0.5417
 3938TIP3    H233306   4.934   0.242   3.004  0.0244  0.8634 -1.8029
 3939TIP3   OH233307   4.893   5.803   1.074 -0.6240  0.4608  0.2677
 3939TIP3    H133308   4.914   5.833   0.985 -0.6621 -1.7037 -0.5283
 3939TIP3    H233309   4.814   5.749   1.063  1.2332 -2.6564  0.9821
 3940TIP3   OH233310   6.395   3.619   2.956  0.1724 -0.1093  0.3242
 3940TIP3    H133311   6.345   3.598   2.877  0.3919  0.2157  0.1000
 3940TIP3    H233312   6.417   3.533   2.993  2.3761 -0.3752 -1.4139
 3941TIP3   OH233313   5.057   3.339  15.069 -0.7100  0.1656 -0.5521
 3941TIP3    H133314   4.980   3.316  15.017 -1.6881 -0.0033  0.9215
 3941TIP3    H233315   5.025   3.400  15.135  0.4114  0.0772  0.1053
 3942TIP3   OH233316   4.443   3.929   4.076  0.3774 -0.5004 -0.1657
 3942TIP3    H133317   4.436   3.950   4.169  0.4206 -2.6484  0.3762
 3942TIP3    H233318   4.471   3.837   4.074  0.3796 -0.5081 -2.3044
 3943TIP3   OH233319   2.095   2.780   0.586  0.1714  0.6830 -0.6313
 3943TIP3    H133320   2.044   2.860   0.581 -0.3355  0.3718 -0.5630
 3943TIP3    H233321   2.154   2.783   0.510 -0.6104  0.6044 -1.2589
 3944TIP3   OH233322   5.121   0.909  16.030 -0.5485  0.2888 -0.2829
 3944TIP3    H133323   5.120   0.901  15.935  1.3578  1.7168 -0.4748
 3944TIP3    H233324   5.199   0.859  16.057 -0.4220  0.8491  0.4034
 3945TIP3   OH233325   6.655   4.727   1.797 -0.8430  0.2520  0.2196
 3945TIP3    H133326   6.617   4.665   1.860 -0.5179 -1.3149 -1.0369
 3945TIP3    H233327   6.736   4.757   1.838 -0.2141 -1.3701  0.2568
 3946TIP3   OH233328   0.755   4.969  10.708  0.6424 -0.1001  0.2009
 3946TIP3    H133329   0.660   4.957  10.695  0.5590  1.1940 -0.5977
 3946TIP3    H233330   0.762   5.053  10.752  1.4710  0.6372 -1.2595
 3947TIP3   OH233331   4.207   1.278   5.119 -0.2235  0.0704  0.1991
 3947TIP3    H133332   4.113   1.261   5.117 -0.4053  0.5967  2.1649
 3947TIP3    H233333   4.214   1.373   5.114  0.0748  0.1565  1.7883
 3948TIP3   OH233334   1.928   2.616   4.196  0.0953  0.5569 -0.9703
 3948TIP3    H133335   2.000   2.555   4.182  0.1853  0.3155  0.4080
 3948TIP3    H233336   1.968   2.693   4.236 -0.5940 -0.2805  1.5015
 3949TIP3   OH233337   0.807   0.135   4.233  0.0223  0.4790 -0.0973
 3949TIP3    H133338   0.803   0.080   4.155 -1.0010 -0.6131  0.6815
 3949TIP3    H233339   0.722   0.123   4.275  0.6633  0.7672  1.3498
 3950TIP3   OH233340   3.020   6.686  12.282  0.0813  0.6825 -0.4508
 3950TIP3    H133341   2.999   6.643  12.200 -0.5985  0.9040 -0.3932
 3950TIP3    H233342   2.973   6.769  12.280  0.6470  1.0175 -0.1583
 3951TIP3   OH233343   1.535   5.086   5.385  0.3384  0.1691 -0.3594
 3951TIP3    H133344   1.492   5.046   5.461  0.9992  0.6968  0.3120
 3951TIP3    H233345   1.474   5.072   5.313 -0.8250  0.6311  0.4999
 3952TIP3   OH233346   5.023   3.593  11.397  0.0144 -0.2740 -0.2078
 3952TIP3    H133347   5.078   3.645  11.339 -2.1429  0.0884 -2.0752
 3952TIP3    H233348   4.963   3.547  11.338 -1.9540 -0.2956  1.6927
 3953TIP3   OH233349   2.321   6.584   5.553  0.1511  0.2978 -0.2717
 3953TIP3    H133350   2.327   6.604   5.460  0.3820  2.0930  0.0931
 3953TIP3    H233351   2.378   6.508   5.565 -1.1766 -1.0448 -1.8490
 3954TIP3   OH233352   0.983   2.210   5.726  0.3065 -0.4485  0.4377
 3954TIP3    H133353   0.920   2.169   5.667 -0.5926  0.3508  0.7965
 3954TIP3    H233354   0.960   2.303   5.724  1.5838 -0.1096  0.4701
 3955TIP3   OH233355   1.796   3.589   0.795 -0.3307 -0.4144  0.0290
 3955TIP3    H133356   1.884   3.584   0.833 -0.7329  0.6957  1.1772
 3955TIP3    H233357   1.766   3.678   0.815 -0.9872 -0.1216 -2.0437
 3956TIP3   OH233358   1.253   4.428   3.205  0.0886  0.0376  0.0927
 3956TIP3    H133359   1.255   4.369   3.280 -1.1918 -1.3730 -0.9243
 3956TIP3    H233360   1.166   4.467   3.207  0.2386  0.4123 -0.3684
 3957TIP3   OH233361   1.754   6.814  16.585 -0.5912 -0.0012  0.4501
 3957TIP3    H133362   1.668   6.805  16.545 -0.2168  0.7269 -0.5559
 3957TIP3    H233363   1.809   6.750  16.540  0.0262  1.3619 -0.8445
 3958TIP3   OH233364   2.011   4.716   1.335  0.5419  0.6272  0.6682
 3958TIP3    H133365   2.037   4.773   1.262 -3.1245 -0.9248 -2.2164
 3958TIP3    H233366   1.921   4.742   1.354 -0.2659 -2.2114  1.1938
 3959TIP3   OH233367   5.384   0.221  11.458  0.9133  0.4867  0.5739
 3959TIP3    H133368   5.423   0.277  11.525  0.9881  1.1521 -0.0088
 3959TIP3    H233369   5.302   0.191  11.496 -0.1310  2.6365  0.1567
 3960TIP3   OH233370   3.054   5.866  17.065 -0.2822 -0.0820 -0.0802
 3960TIP3    H133371   3.001   5.837  16.991 -1.0949  1.1388 -0.0050
 3960TIP3    H233372   3.136   5.818  17.056 -0.3311  0.0950 -1.8049
 3961TIP3   OH233373   6.267   5.843  15.949  0.0502 -0.0889  0.3832
 3961TIP3    H133374   6.218   5.816  15.871  0.2916  1.0127 -0.1697
 3961TIP3    H233375   6.289   5.761  15.993 -1.3915 -0.6541  0.1013
 3962TIP3   OH233376   0.421   6.812   1.530  0.4216  0.4383  0.1171
 3962TIP3    H133377   0.484   6.766   1.475 -1.2279 -0.5743 -1.0042
 3962TIP3    H233378   0.355   6.746   1.551  0.2451  1.1962  2.1207
 3963TIP3   OH233379   2.402   0.081   3.739 -0.4812 -0.4391 -0.4073
 3963TIP3    H133380   2.375  -0.006   3.768  0.3862 -0.2522  1.0727
 3963TIP3    H233381   2.346   0.141   3.789  0.3816 -0.1290  0.2249
 3964TIP3   OH233382   2.765   1.693   3.702  0.1192  0.2064  0.1103
 3964TIP3    H133383   2.811   1.610   3.716  0.3494  0.5733  1.7837
 3964TIP3    H233384   2.689   1.687   3.761 -1.0320  0.3343 -1.3192
 3965TIP3   OH233385   2.122   2.014   5.585  0.1393 -0.2963  0.0623
 3965TIP3    H133386   2.139   2.107   5.567 -0.6886  0.0047  0.7658
 3965TIP3    H233387   2.198   1.986   5.637  0.4147 -0.0254 -0.1921
 3966TIP3   OH233388   1.418   0.608  12.980 -0.7874 -0.7295 -0.1850
 3966TIP3    H133389   1.402   0.654  12.898 -1.4048  0.8752  0.8036
 3966TIP3    H233390   1.493   0.551  12.961 -0.1166  0.5391 -1.5003
 3967TIP3   OH233391   0.618   1.076  14.749  0.1580 -0.2973 -0.3124
 3967TIP3    H133392   0.619   0.999  14.692 -1.3403  0.1285 -0.9820
 3967TIP3    H233393   0.702   1.118  14.735  0.3885 -0.9974 -1.1031
 3968TIP3   OH233394   3.091   1.348   4.871  0.4192 -0.0724 -0.6399
 3968TIP3    H133395   3.021   1.289   4.899  0.8344 -0.2589  0.0215
 3968TIP3    H233396   3.076   1.428   4.921  2.0305 -0.9053  1.3444
 3969TIP3   OH233397   1.779   2.550  12.776 -0.0058  0.7867  0.0340
 3969TIP3    H133398   1.857   2.512  12.817 -0.9330 -0.5547  0.6085
 3969TIP3    H233399   1.749   2.483  12.714 -2.3677 -0.0671  1.9310
 3970TIP3   OH233400   0.449   0.798   5.877 -0.2931 -0.4702 -0.0054
 3970TIP3    H133401   0.472   0.716   5.922  0.7624  0.7012  1.6904
 3970TIP3    H233402   0.497   0.794   5.795  1.6269 -0.5849  1.0593
 3971TIP3   OH233403   2.223   4.891   0.402 -0.8152  0.2103  0.6365
 3971TIP3    H133404   2.154   4.955   0.385 -1.0469 -0.1381  0.2317
 3971TIP3    H233405   2.182   4.825   0.459 -0.6837  0.2422  0.7671
 3972TIP3   OH233406   5.469   4.647   3.268  0.2413  0.2815  0.3685
 3972TIP3    H133407   5.492   4.735   3.238  0.0146  0.1588 -0.1774
 3972TIP3    H233408   5.508   4.641   3.355  1.9541  0.2217 -0.3592
 3973TIP3   OH233409   0.435   0.970  10.427 -0.2074 -0.6473 -0.2060
 3973TIP3    H133410   0.430   0.880  10.459 -0.6760 -1.0379 -1.3440
 3973TIP3    H233411   0.356   0.982  10.375 -0.8410  0.8828  1.0192
 3974TIP3   OH233412   6.700   1.850  11.703 -0.5371  0.1123 -0.1802
 3974TIP3    H133413   6.672   1.920  11.762 -0.3126  0.7158 -0.7804
 3974TIP3    H233414   6.779   1.815  11.743 -0.1760  0.7693 -0.3158
 3975TIP3   OH233415   6.332   3.108  16.851  0.1925 -0.2405 -0.5714
 3975TIP3    H133416   6.423   3.130  16.833  0.5043 -0.9181  0.0947
 3975TIP3    H233417   6.314   3.148  16.936 -0.3198  0.3879 -0.9691
 3976TIP3   OH233418   0.819   5.399   0.405 -0.4304 -0.1668 -0.6455
 3976TIP3    H133419   0.725   5.382   0.403 -0.3991 -1.2525  2.2468
 3976TIP3    H233420   0.828   5.487   0.368 -2.6228  0.0845 -0.7194
 3977TIP3   OH233421   6.246   2.074  14.686  0.2642  0.9780 -0.2862
 3977TIP3    H133422   6.219   2.149  14.738  0.0179  0.5526  0.2080
 3977TIP3    H233423   6.165   2.037  14.652  0.0856 -0.6146  1.6284
 3978TIP3   OH233424   5.024   3.523   3.730 -0.1516 -0.4299 -0.4419
 3978TIP3    H133425   5.072   3.451   3.690  1.9391  0.9334 -0.5359
 3978TIP3    H233426   5.029   3.594   3.666  1.5204  1.1298  1.2853
 3979TIP3   OH233427   1.337   3.052  14.021 -0.2751 -0.0215 -0.3838
 3979TIP3    H133428   1.343   2.988  13.950  0.3101  0.3951 -0.7127
 3979TIP3    H233429   1.424   3.054  14.060 -0.0383  1.2074 -0.9386
 3980TIP3   OH233430   4.236   1.591   4.365 -0.5936 -0.0704  0.6570
 3980TIP3    H133431   4.258   1.596   4.272 -2.7876 -1.4137 -0.0196
 3980TIP3    H233432   4.243   1.498   4.386 -1.4360  0.0315  1.4568
 3981TIP3   OH233433   3.604   1.892   1.963  0.3490 -0.2063 -0.0716
 3981TIP3    H133434   3.643   1.974   1.932  2.3079 -0.8883  0.4563
 3981TIP3    H233435   3.556   1.917   2.043  1.0141  0.4170  0.1387
 3982TIP3   OH233436   4.992   1.440  13.149  0.5376  0.5820 -0.3819
 3982TIP3    H133437   5.040   1.403  13.075  1.6519 -0.6650  0.8902
 3982TIP3    H233438   5.059   1.482  13.203 -0.3057  1.7974 -0.2496
 3983TIP3   OH233439   6.016   5.989   1.871 -0.0021 -0.6122 -0.3292
 3983TIP3    H133440   5.946   6.053   1.858  1.5265  1.0651 -0.7702
 3983TIP3    H233441   6.026   5.946   1.786 -0.3593 -0.7261 -0.3148
 3984TIP3   OH233442   6.336   6.774  11.805  0.2287 -0.3780  0.1211
 3984TIP3    H133443   6.341   6.830  11.728 -1.6429 -0.1378  0.1233
 3984TIP3    H233444   6.352   6.833  11.879  0.8927 -0.3859 -0.0102
 3985TIP3   OH233445   3.055   4.436  13.519 -0.1451 -0.0701 -0.2502
 3985TIP3    H133446   3.125   4.371  13.516  0.6885  0.7981  0.0124
 3985TIP3    H233447   3.097   4.518  13.493 -1.3881  0.2010 -1.5407
 3986TIP3   OH233448   3.897   3.565  15.524 -0.1200  0.0780 -0.3749
 3986TIP3    H133449   3.820   3.607  15.486 -0.8225 -0.0162  0.8866
 3986TIP3    H233450   3.862   3.502  15.587  0.9815  0.3750  0.5743
 3987TIP3   OH233451   1.799   4.821  12.381  0.1856  0.2561 -0.0437
 3987TIP3    H133452   1.777   4.908  12.350 -1.0921 -0.7163 -2.0971
 3987TIP3    H233453   1.880   4.799  12.335  0.3999  0.2915  0.3190
 3988TIP3   OH233454   2.871   4.224  15.494  0.2902  0.0790  0.2268
 3988TIP3    H133455   2.860   4.292  15.560 -0.8615 -1.9955  2.3250
 3988TIP3    H233456   2.924   4.157  15.537 -1.1957 -1.7213 -0.6189
 3989TIP3   OH233457   3.766   6.614  12.105  0.0872  0.0022  0.0841
 3989TIP3    H133458   3.776   6.611  12.201  0.2352 -2.0971  0.0424
 3989TIP3    H233459   3.842   6.666  12.075 -1.1805  2.7052  1.1813
 3990TIP3   OH233460   3.563   6.090  12.828  0.3540  0.5970 -0.0222
 3990TIP3    H133461   3.596   6.145  12.758 -1.7942  0.1213 -1.4925
 3990TIP3    H233462   3.477   6.062  12.799 -0.4603  0.0242  2.6335
 3991TIP3   OH233463   3.507   2.948  11.520 -0.0579 -0.2767  0.2051
 3991TIP3    H133464   3.551   2.896  11.453  1.0742  0.3271  0.4558
 3991TIP3    H233465   3.504   2.891  11.597  0.2033 -0.3518  0.1598
 3992TIP3   OH233466   1.845   4.787   4.700  0.0482  0.8394  0.4720
 3992TIP3    H133467   1.821   4.769   4.791 -1.7743 -0.9313 -0.2652
 3992TIP3    H233468   1.781   4.852   4.671 -1.2379 -0.6412 -0.2425
 3993TIP3   OH233469   5.237   5.850   2.749 -0.3342  0.6989  0.0054
 3993TIP3    H133470   5.217   5.849   2.843 -0.3125 -0.1741  0.0112
 3993TIP3    H233471   5.152   5.837   2.708 -0.4650  1.8595 -0.1376
 3994TIP3   OH233472   6.598   6.122   1.645 -0.4570 -0.1136  0.5593
 3994TIP3    H133473   6.510   6.085   1.653 -0.0005 -1.4401 -0.2370
 3994TIP3    H233474   6.620   6.112   1.552  1.5741 -2.3241  1.2021
 3995TIP3   OH233475   0.059   1.935   6.250 -0.1467  0.3694  0.0505
 3995TIP3    H133476   0.136   1.961   6.300  0.6282 -0.3319 -0.7292
 3995TIP3    H233477   0.036   1.849   6.285 -0.1621  0.2884 -0.1549
 3996TIP3   OH233478   6.230   4.233   3.290 -0.0930  0.7173  0.1524
 3996TIP3    H133479   6.206   4.311   3.240  1.0533  0.0903 -1.4609
 3996TIP3    H233480   6.323   4.245   3.310  0.9152 -1.4253 -2.5954
 3997TIP3   OH233481   4.234   3.190   5.955 -0.3723 -0.1731 -0.2078
 3997TIP3    H133482   4.281   3.212   6.036  0.1656  0.1910 -0.6159
 3997TIP3    H233483   4.142   3.210   5.975 -0.2086  0.1588  0.2336
 3998TIP3   OH233484   1.139   6.077  13.126  0.4782  0.0820 -0.3453
 3998TIP3    H133485   1.222   6.029  13.128 -0.3792 -1.4953 -0.8828
 3998TIP3    H233486   1.120   6.088  13.033 -0.3068 -0.2717 -0.2324
 3999TIP3   OH233487   1.997   5.345   3.409  0.1788  0.0829  0.0015
 3999TIP3    H133488   1.959   5.276   3.355  1.8501 -0.9690  0.0980
 3999TIP3    H233489   1.940   5.420   3.395 -0.4552 -0.6767 -1.8267
 4000TIP3   OH233490   2.880   1.247  11.877  0.5209 -0.0455 -0.4167
 4000TIP3    H133491   2.969   1.212  11.882  0.7065  0.4817  0.1767
 4000TIP3    H233492   2.887   1.325  11.822  0.0266 -1.1338 -2.1019
 4001TIP3   OH233493   5.493   2.764  12.136 -0.3941 -0.3794  0.1089
 4001TIP3    H133494   5.448   2.713  12.203 -0.5017  0.1444  0.4388
 4001TIP3    H233495   5.521   2.844  12.181  0.9511 -0.7304 -0.0595
 4002TIP3   OH233496   1.433   4.032  14.046 -0.4811  0.0660  0.3547
 4002TIP3    H133497   1.480   4.115  14.057  0.9543 -0.9640  2.9100
 4002TIP3    H233498   1.351   4.044  14.093 -0.0127 -0.1151  1.2419
 4003TIP3   OH233499   0.893   5.734   5.866  0.1109 -0.7550  0.4500
 4003TIP3    H133500   0.847   5.657   5.896 -0.4839 -0.9427 -0.8502
 4003TIP3    H233501   0.878   5.736   5.771 -0.0146  1.0262  0.4626
 4004TIP3   OH233502   0.108   0.267   0.772 -0.4278 -0.0250 -0.6090
 4004TIP3    H133503   0.128   0.355   0.806 -1.5904  0.0230  0.0222
 4004TIP3    H233504   0.175   0.211   0.811 -0.2213  0.4354 -0.2823
 4005TIP3   OH233505   5.020   2.685  12.214 -0.1270 -0.4706 -0.4452
 4005TIP3    H133506   4.978   2.660  12.297 -0.9589  2.1921  0.0476
 4005TIP3    H233507   4.955   2.664  12.147 -0.8876  0.4393 -0.0307
 4006TIP3   OH233508   1.214   4.361   4.397 -0.0669 -0.0565  0.1547
 4006TIP3    H133509   1.205   4.266   4.391  0.6015 -0.2615  1.7845
 4006TIP3    H233510   1.308   4.376   4.409 -0.3243  0.6695  1.5427
 4007TIP3   OH233511   3.837   3.785  16.677 -0.1249  0.4421  0.0881
 4007TIP3    H133512   3.761   3.812  16.730  0.4314  0.9048  0.6664
 4007TIP3    H233513   3.913   3.806  16.731  0.4831  1.2796 -1.0456
 4008TIP3   OH233514   5.119   0.726  12.410 -0.8893 -0.1444  0.2678
 4008TIP3    H133515   5.146   0.706  12.499 -1.2552 -2.7089 -0.1093
 4008TIP3    H233516   5.045   0.786  12.421 -0.3101  0.3653  1.6252
 4009TIP3   OH233517   1.137   5.875   3.530 -0.0112 -0.1672  0.7192
 4009TIP3    H133518   1.116   5.952   3.582 -1.0130  0.8200 -1.0632
 4009TIP3    H233519   1.189   5.909   3.457 -2.3777 -0.7270 -1.3507
 4010TIP3   OH233520   4.742   3.838  15.447  0.1575  0.1822  0.2223
 4010TIP3    H133521   4.835   3.834  15.425  0.4308  0.1408  1.3286
 4010TIP3    H233522   4.725   3.930  15.467  0.1717  0.0446  0.8786
 4011TIP3   OH233523   3.990   1.228   1.725  0.8474  0.2557  0.5300
 4011TIP3    H133524   4.011   1.135   1.730  1.6469  0.1843 -2.3460
 4011TIP3    H233525   4.075   1.272   1.735  0.8963  0.5033 -0.8061
 4012TIP3   OH233526   3.281   0.641  16.906 -0.3013  0.4426  0.3530
 4012TIP3    H133527   3.351   0.613  16.966  0.5332  0.2576 -0.6763
 4012TIP3    H233528   3.207   0.584  16.926  0.6547 -1.0469 -0.2025
 4013TIP3   OH233529   3.548   4.767  16.421  0.2045 -0.0996  0.3004
 4013TIP3    H133530   3.557   4.689  16.365 -0.4285  0.8288 -1.1580
 4013TIP3    H233531   3.605   4.832  16.380  0.8165  0.1791  1.5750
 4014TIP3   OH233532   6.736   4.510   1.309 -0.3181 -0.5502 -0.0018
 4014TIP3    H133533   6.794   4.580   1.279 -1.7368  0.8332  0.3749
 4014TIP3    H233534   6.717   4.531   1.400  0.4313 -2.2948  0.6117
 4015TIP3   OH233535   4.947   0.517  13.266  0.4159  0.3042  0.1851
 4015TIP3    H133536   4.856   0.540  13.248  0.2498 -0.0712  0.5094
 4015TIP3    H233537   4.959   0.432  13.223  0.9817  0.9067 -0.8977
 4016TIP3   OH233538   5.233   5.031   1.851 -0.1890  0.1210 -0.4972
 4016TIP3    H133539   5.237   5.114   1.899  0.3890 -0.7901  1.1237
 4016TIP3    H233540   5.320   5.020   1.815 -0.3567  0.3536 -0.9848
 4017TIP3   OH233541   1.633   1.432  16.035  0.2182 -0.5186 -0.1988
 4017TIP3    H133542   1.543   1.438  16.068 -0.1655 -0.1665 -1.2781
 4017TIP3    H233543   1.674   1.367  16.092 -0.9302 -1.2317 -0.1419
 4018TIP3   OH233544   3.828   6.175  16.226 -0.5613  0.4648 -0.4534
 4018TIP3    H133545   3.757   6.119  16.197 -0.5617  0.3775 -0.2826
 4018TIP3    H233546   3.881   6.189  16.147  0.0588 -0.6796 -0.2617
 4019TIP3   OH233547   1.323   1.451  14.734  0.1642  0.0223  0.2084
 4019TIP3    H133548   1.327   1.504  14.655  1.1577 -1.8139 -1.0713
 4019TIP3    H233549   1.369   1.502  14.801 -0.6629  1.5831 -0.3776
 4020TIP3   OH233550   1.772   5.880  15.573 -0.3132 -0.2096  0.0891
 4020TIP3    H133551   1.762   5.970  15.541 -0.3785 -0.8222 -1.6835
 4020TIP3    H233552   1.723   5.826  15.512 -0.3109 -1.4792  1.1476
 4021TIP3   OH233553   6.114   5.865  12.261 -0.7293 -0.3613  0.1299
 4021TIP3    H133554   6.192   5.866  12.205 -1.6016  0.0058 -1.1063
 4021TIP3    H233555   6.147   5.888  12.348  0.4884  0.1210 -0.4421
 4022TIP3   OH233556   6.110   5.238  14.319 -0.1873  0.0743 -0.0618
 4022TIP3    H133557   6.200   5.263  14.297 -0.2491 -2.2722 -3.9199
 4022TIP3    H233558   6.055   5.298  14.269 -0.6909  0.1037  0.5166
 4023TIP3   OH233559   2.687   6.620  15.284  0.7444 -0.0477 -0.3625
 4023TIP3    H133560   2.774   6.594  15.313  1.6913  0.8605 -2.1732
 4023TIP3    H233561   2.676   6.575  15.200 -0.5357 -0.1211 -0.1721
 4024TIP3   OH233562   2.325   6.299   3.081 -0.5555  0.0036 -0.1090
 4024TIP3    H133563   2.309   6.392   3.066 -0.6098 -0.2115 -1.5233
 4024TIP3    H233564   2.420   6.293   3.097 -0.8519  0.5368  2.2545
 4025TIP3   OH233565   5.399   4.906  11.172  0.8717 -0.6682 -0.1683
 4025TIP3    H133566   5.331   4.879  11.111  0.5859  0.4484 -0.3635
 4025TIP3    H233567   5.384   4.852  11.250 -2.2874  1.6767  1.0427
 4026TIP3   OH233568   2.196   5.468   5.940 -0.1990  0.2215 -0.0338
 4026TIP3    H133569   2.191   5.549   5.990 -2.6918  0.4168 -0.4743
 4026TIP3    H233570   2.271   5.480   5.882 -0.2723  2.0377  0.1910
 4027TIP3   OH233571   5.684   2.687  14.348 -0.2422 -0.4691 -0.1384
 4027TIP3    H133572   5.665   2.743  14.424  0.5345 -0.9359  0.4218
 4027TIP3    H233573   5.675   2.598  14.381  1.2298 -0.6990 -0.2543
 4028TIP3   OH233574   2.456   0.152   6.039  0.3717 -0.0603  0.0840
 4028TIP3    H133575   2.397   0.167   6.113  0.7978 -0.5854  0.5440
 4028TIP3    H233576   2.543   0.153   6.077  0.5033 -3.7506  0.2846
 4029TIP3   OH233577   4.197   5.978   5.166  0.1217 -0.3168 -0.3684
 4029TIP3    H133578   4.252   5.982   5.087 -2.0460  1.3484 -1.9234
 4029TIP3    H233579   4.127   5.917   5.143 -0.2028 -0.2826  0.4966
 4030TIP3   OH233580   3.876   0.674   0.558 -0.1293 -0.3929 -0.2755
 4030TIP3    H133581   3.793   0.694   0.515 -0.1239  0.8370  0.2355
 4030TIP3    H233582   3.879   0.579   0.562 -0.6317 -0.5071 -2.0074
 4031TIP3   OH233583   0.219   2.747  10.689 -0.2681 -0.1051 -0.2667
 4031TIP3    H133584   0.290   2.793  10.735  0.8049 -0.6783 -1.2993
 4031TIP3    H233585   0.141   2.799  10.708  0.1775 -0.1328  1.9119
 4032TIP3   OH233586   2.653   1.985   1.260  0.8243  0.4412  0.1402
 4032TIP3    H133587   2.716   2.054   1.279  0.2637  0.7165  1.0995
 4032TIP3    H233588   2.569   2.032   1.251  0.4611 -0.0942  0.6842
 4033TIP3   OH233589   5.562   4.162   0.267 -0.4603 -0.7055 -0.3140
 4033TIP3    H133590   5.538   4.233   0.327  1.7287  0.2041 -0.4114
 4033TIP3    H233591   5.560   4.202   0.180 -0.3993 -1.0888 -0.4934
 4034TIP3   OH233592   2.899   3.976  12.038 -0.0999 -0.3788  0.2366
 4034TIP3    H133593   2.905   4.040  11.968 -0.1611 -1.6955 -1.0067
 4034TIP3    H233594   2.963   4.006  12.103  0.0351  0.8050 -0.4086
 4035TIP3   OH233595   5.155   5.739  14.633 -0.0575 -0.2377  0.1891
 4035TIP3    H133596   5.142   5.644  14.629  0.4791 -0.3549  1.0382
 4035TIP3    H233597   5.080   5.771  14.683 -0.8942 -0.0593 -1.1456
 4036TIP3   OH233598   5.397   2.814  12.386 -0.0552  0.2317  0.2246
 4036TIP3    H133599   5.458   2.871  12.432 -1.5954  0.0521  2.6564
 4036TIP3    H233600   5.342   2.873  12.334  1.3245  0.4860 -1.0252
 4037TIP3   OH233601   5.332   3.696   4.637  0.2958 -0.2580  0.2845
 4037TIP3    H133602   5.313   3.698   4.731  2.5739  0.6803  0.7890
 4037TIP3    H233603   5.417   3.653   4.631  0.0430 -0.5754 -1.4029
 4038TIP3   OH233604   5.917   5.605   5.899  0.2933 -0.3237 -0.2643
 4038TIP3    H133605   5.871   5.627   5.979  1.0010  0.0482  0.0498
 4038TIP3    H233606   5.905   5.681   5.842 -0.9226 -0.9253 -0.8564
 4039TIP3   OH233607   4.182   1.679   5.711  0.3030 -0.0325  0.2359
 4039TIP3    H133608   4.208   1.589   5.691  2.1230  0.7929 -1.3530
 4039TIP3    H233609   4.174   1.680   5.806 -0.8088 -2.1060  0.2402
 4040TIP3   OH233610   5.701   2.400   0.191 -0.0159  0.4542 -0.8587
 4040TIP3    H133611   5.738   2.385   0.278 -0.0089  0.7797 -0.8048
 4040TIP3    H233612   5.707   2.314   0.147  1.6297  0.6843 -1.1552
 4041TIP3   OH233613   3.330   0.475   3.009  0.8509 -0.5811 -0.1586
 4041TIP3    H133614   3.353   0.383   3.016  1.0509 -0.6420 -1.3516
 4041TIP3    H233615   3.266   0.479   2.938  0.3248  0.1171  0.3330
 4042TIP3   OH233616   2.968   6.064  13.785 -0.2346  0.0431  0.5050
 4042TIP3    H133617   2.893   6.027  13.833 -1.1536  1.3459  0.1169
 4042TIP3    H233618   2.938   6.069  13.695  0.9582 -0.9930  0.0262
 4043TIP3   OH233619   6.606   5.954  11.763  0.0918 -0.0568 -0.0937
 4043TIP3    H133620   6.569   5.972  11.676 -0.4186  0.5121  0.2308
 4043TIP3    H233621   6.664   5.880  11.749  1.8840  1.4884 -1.4018
 4044TIP3   OH233622   0.541   5.095   1.611 -0.0102  0.3661  0.6099
 4044TIP3    H133623   0.460   5.113   1.659 -1.1090  0.1048 -1.0567
 4044TIP3    H233624   0.526   5.009   1.571  0.1707  1.2580 -1.4818
 4045TIP3   OH233625   4.498   6.300  15.916 -0.3009  0.5018 -0.0862
 4045TIP3    H133626   4.468   6.212  15.896  0.4064  0.3891 -0.7038
 4045TIP3    H233627   4.485   6.349  15.835 -0.0174  0.7813  0.0336
 4046TIP3   OH233628   2.980   2.097  13.055 -0.1465 -0.1961 -0.1898
 4046TIP3    H133629   2.965   2.111  13.148  0.1629  3.5225 -0.5339
 4046TIP3    H233630   2.906   2.042  13.027 -0.4687 -1.0604  2.1092
 4047TIP3   OH233631   6.315   1.608   0.325 -0.0042  0.1214 -0.4413
 4047TIP3    H133632   6.288   1.527   0.368  2.5933  0.3531  1.8720
 4047TIP3    H233633   6.325   1.583   0.233 -3.4737 -0.9792 -0.6763
 4048TIP3   OH233634   0.835   1.588   3.633 -0.4412  0.1923  0.2313
 4048TIP3    H133635   0.777   1.575   3.707  0.0075 -1.1626  0.3688
 4048TIP3    H233636   0.915   1.625   3.671 -0.9847  1.5517  0.1109
 4049TIP3   OH233637   6.145   0.568  16.637 -0.0548 -0.3886  0.2288
 4049TIP3    H133638   6.057   0.598  16.615 -0.5120  0.2511  2.6431
 4049TIP3    H233639   6.203   0.628  16.592 -0.7317 -1.8279 -2.7905
 4050TIP3   OH233640   4.644   1.233  12.965 -0.0648  0.1865  0.7817
 4050TIP3    H133641   4.705   1.164  12.938  0.0745  0.0905  1.3265
 4050TIP3    H233642   4.677   1.312  12.922  0.4926  0.1504  1.1373
 4051TIP3   OH233643   1.556   5.278   5.085  0.5960 -0.1723  0.1163
 4051TIP3    H133644   1.529   5.215   5.017  1.3030  0.5822 -0.8943
 4051TIP3    H233645   1.637   5.241   5.121  1.9420  0.9109 -1.6311
 4052TIP3   OH233646   3.696   5.982   1.505  0.5324 -0.0692  0.0823
 4052TIP3    H133647   3.743   5.900   1.520  2.4106  0.9285  0.0939
 4052TIP3    H233648   3.741   6.045   1.562 -0.4412  1.1065 -0.4133
 4053TIP3   OH233649   5.453   0.380   0.515 -0.6243  0.1694 -0.1928
 4053TIP3    H133650   5.527   0.350   0.568  0.7902  4.0860  0.4557
 4053TIP3    H233651   5.399   0.429   0.577 -1.6515  0.6557 -1.4339
 4054TIP3   OH233652   6.054   5.222   2.978  0.6931 -0.3486 -0.0602
 4054TIP3    H133653   6.053   5.143   2.925 -0.5530 -0.4605  0.1010
 4054TIP3    H233654   5.966   5.257   2.970  0.3859 -0.4971  2.1092
 4055TIP3   OH233655   2.331   6.323   4.837  0.3901 -0.3820 -0.3074
 4055TIP3    H133656   2.420   6.356   4.842  0.5213 -0.8616  0.7603
 4055TIP3    H233657   2.290   6.349   4.919 -1.1609  1.7202 -1.6532
 4056TIP3   OH233658   3.630   0.736   2.188 -0.2461  0.2573 -0.1702
 4056TIP3    H133659   3.538   0.712   2.201  0.1832 -1.1507  0.5026
 4056TIP3    H233660   3.678   0.654   2.196  1.0017  0.7833 -1.5461
 4057TIP3   OH233661   5.207   0.077   4.595  0.2704  0.2140 -0.2477
 4057TIP3    H133662   5.297   0.044   4.602  0.2174 -0.0148 -0.6260
 4057TIP3    H233663   5.156   0.017   4.651  0.4717  0.8259  0.6083
 4058TIP3   OH233664   5.217   3.868  14.339 -0.1762 -0.3663  0.1944
 4058TIP3    H133665   5.272   3.921  14.281 -1.8003 -0.1627 -1.2633
 4058TIP3    H233666   5.276   3.804  14.377  1.0586 -0.2227 -1.3829
 4059TIP3   OH233667   5.324   1.749  15.877  0.0904 -0.1873 -0.0074
 4059TIP3    H133668   5.412   1.773  15.848  0.8966 -0.9178  1.7260
 4059TIP3    H233669   5.310   1.802  15.956 -0.6203 -0.8251  0.3014
 4060TIP3   OH233670   1.590   1.172   0.157 -0.4027 -0.1748 -0.1610
 4060TIP3    H133671   1.535   1.248   0.140 -1.3077 -0.0734  2.7240
 4060TIP3    H233672   1.531   1.097   0.154  0.0787 -0.5445 -0.8444
 4061TIP3   OH233673   5.812   4.088  14.600  0.6376  1.1275 -0.8777
 4061TIP3    H133674   5.868   4.151  14.646  0.0262 -0.5184  2.4059
 4061TIP3    H233675   5.723   4.119  14.614  0.2387 -0.9115  1.7935
 4062TIP3   OH233676   5.592   3.028   4.952  0.4822 -0.2072  0.1759
 4062TIP3    H133677   5.534   2.959   4.984  0.4523 -0.0835  0.3943
 4062TIP3    H233678   5.536   3.086   4.901  0.1224  0.6527  1.4964
 4063TIP3   OH233679   3.808   4.848  16.347  0.2828 -0.2352  0.3408
 4063TIP3    H133680   3.806   4.887  16.260 -0.7352  0.0794  0.4910
 4063TIP3    H233681   3.820   4.922  16.406 -0.5025 -0.2590  0.5515
 4064TIP3   OH233682   5.061   5.675  12.872  0.1715  0.4283  0.1262
 4064TIP3    H133683   4.979   5.651  12.830 -0.2666  2.6404 -0.3911
 4064TIP3    H233684   5.119   5.600  12.857 -1.4013 -0.7208 -0.4149
 4065TIP3   OH233685   6.074   0.048  16.161 -0.2943 -0.1761 -0.7575
 4065TIP3    H133686   6.109   0.107  16.228  1.2079 -1.6049 -0.1966
 4065TIP3    H233687   6.129   0.064  16.084  0.0806 -0.7629 -0.6208
 4066TIP3   OH233688   2.131   3.534  15.732 -0.2244 -0.2554  0.2186
 4066TIP3    H133689   2.059   3.575  15.685 -1.5275 -1.0286  1.4426
 4066TIP3    H233690   2.088   3.477  15.796  1.4844 -1.2252  0.5725
 4067TIP3   OH233691   1.831   2.731  15.552 -0.0718 -0.1931 -0.1000
 4067TIP3    H133692   1.794   2.808  15.595  2.2849  0.3662  1.1067
 4067TIP3    H233693   1.875   2.766  15.474  0.9801 -0.2879  0.4352
 4068TIP3   OH233694   6.099   5.169   5.904  0.3693 -0.6485 -0.0477
 4068TIP3    H133695   6.050   5.125   5.973 -1.6274 -0.5355 -1.2869
 4068TIP3    H233696   6.128   5.099   5.846 -0.5763 -0.5445 -0.6620
 4069TIP3   OH233697   3.358   2.152   4.819 -0.6061  0.4317 -0.4249
 4069TIP3    H133698   3.275   2.167   4.774 -0.6217 -0.0294 -0.5580
 4069TIP3    H233699   3.395   2.075   4.776  0.4779  1.3413 -1.1903
 4070TIP3   OH233700   2.795   6.803   3.626 -0.0410 -0.4235  0.3009
 4070TIP3    H133701   2.830   6.890   3.648  1.0709 -0.7457 -0.0891
 4070TIP3    H233702   2.701   6.816   3.617 -0.1184  0.3930  1.9101
 4071TIP3   OH233703   4.315   0.071   0.577  1.1836  0.0530 -0.1769
 4071TIP3    H133704   4.250   0.007   0.605  0.5551  1.7158  2.5291
 4071TIP3    H233705   4.265   0.152   0.566  2.0859  0.3549 -2.7435
 4072TIP3   OH233706   1.487   6.435   0.666  0.5731  0.2917  0.1313
 4072TIP3    H133707   1.513   6.374   0.598 -0.8260  0.0225 -0.2076
 4072TIP3    H233708   1.438   6.503   0.620 -0.5086  0.0358  0.8525
 4073TIP3   OH233709   6.660   5.312   5.664  0.5210 -0.2793 -0.3020
 4073TIP3    H133710   6.566   5.332   5.671  0.7482  2.0944 -2.4050
 4073TIP3    H233711   6.670   5.278   5.575  1.5349 -1.5067  0.2580
 4074TIP3   OH233712   0.524   0.730  13.563 -0.2002  0.1648 -0.1597
 4074TIP3    H133713   0.549   0.648  13.520 -1.6521 -0.1968 -0.3670
 4074TIP3    H233714   0.433   0.717  13.589 -0.4972  1.7615 -0.2873
 4075TIP3   OH233715   0.142   2.168   2.251 -0.3503 -0.2473 -0.1923
 4075TIP3    H133716   0.070   2.133   2.198 -1.1723 -0.7327  1.1754
 4075TIP3    H233717   0.102   2.184   2.336  0.8136  0.9578  0.1501
 4076TIP3   OH233718   3.703   4.146   0.337 -0.0417  0.2118  0.1326
 4076TIP3    H133719   3.624   4.094   0.351 -0.2686 -0.2947 -2.5349
 4076TIP3    H233720   3.768   4.106   0.395 -1.1234 -0.8569  0.6548
 4077TIP3   OH233721   6.197   5.615   5.689  0.2796 -0.8698  0.3814
 4077TIP3    H133722   6.133   5.611   5.617  1.3606 -3.5198 -0.5532
 4077TIP3    H233723   6.165   5.550   5.752 -0.7735  1.5605  2.5356
 4078TIP3   OH233724   1.382   4.467  12.931 -0.0714 -0.2584 -0.4012
 4078TIP3    H133725   1.395   4.544  12.986 -1.0935 -0.4692  0.1629
 4078TIP3    H233726   1.386   4.500  12.841  2.5223 -0.0483 -0.2833
 4079TIP3   OH233727   1.397   6.483  11.844 -0.1847 -0.7669  0.3146
 4079TIP3    H133728   1.325   6.471  11.783 -0.0637 -0.1844  0.0584
 4079TIP3    H233729   1.454   6.548  11.803  0.6811 -1.4794  0.3378
 4080TIP3   OH233730   3.296   0.550   0.310  0.7103  0.0692 -0.1963
 4080TIP3    H133731   3.378   0.518   0.346  0.8227  0.7345  0.1507
 4080TIP3    H233732   3.320   0.583   0.223  0.7070 -0.2024 -0.3038
 4081TIP3   OH233733   3.084   2.405  13.223 -0.0136 -0.8663  0.0204
 4081TIP3    H133734   3.071   2.427  13.130 -0.0585 -1.2870 -0.0770
 4081TIP3    H233735   3.126   2.318  13.221  1.5511 -0.1492  0.3570
 4082TIP3   OH233736   4.737   2.578  13.241 -0.7491  0.0363 -0.4159
 4082TIP3    H133737   4.686   2.624  13.175 -1.5163  0.5555  0.5209
 4082TIP3    H233738   4.687   2.498  13.258 -0.0700 -0.5498 -1.1269
 4083TIP3   OH233739   1.020   3.342  11.485 -0.3737 -0.3643 -0.7151
 4083TIP3    H133740   0.939   3.363  11.437  0.1643  0.6712 -1.2229
 4083TIP3    H233741   0.992   3.286  11.557 -1.2789 -1.6157 -1.9834
 4084TIP3   OH233742   6.068   4.649   4.503 -0.0561  0.3176 -0.0068
 4084TIP3    H133743   6.143   4.627   4.559 -1.0682  1.1343  1.7408
 4084TIP3    H233744   6.072   4.745   4.495 -0.7999  0.3433 -0.0761
 4085TIP3   OH233745   5.642   2.515   5.562  0.4396 -0.4348  0.4038
 4085TIP3    H133746   5.598   2.597   5.539 -1.5561 -1.8172 -1.1604
 4085TIP3    H233747   5.589   2.478   5.632  1.0440 -0.6149  0.7706
 4086TIP3   OH233748   0.285   4.708  12.747 -0.1729 -0.2371  0.0915
 4086TIP3    H133749   0.356   4.767  12.721  0.3951 -0.6138  0.7736
 4086TIP3    H233750   0.315   4.622  12.719 -0.3388 -0.4058  0.4398
 4087TIP3   OH233751   0.540   5.723   0.193 -0.3340 -0.1885 -0.0905
 4087TIP3    H133752   0.448   5.712   0.218 -0.6169 -0.7808 -1.3063
 4087TIP3    H233753   0.545   5.812   0.158 -0.0382  0.4742  1.5811
 4088TIP3   OH233754   2.780   3.009  15.826 -0.9230  0.0939  0.1691
 4088TIP3    H133755   2.726   2.930  15.817 -0.5772 -0.0570 -0.5791
 4088TIP3    H233756   2.854   2.995  15.768 -0.7453  0.8791  0.1962
 4089TIP3   OH233757   1.540   0.696  16.951 -0.7536  0.7780 -0.7984
 4089TIP3    H133758   1.558   0.635  16.880 -0.9672 -0.8777  0.4947
 4089TIP3    H233759   1.626   0.712  16.991 -0.7187  1.2013 -1.0446
 4090TIP3   OH233760   5.665   3.427  13.075 -0.1303  0.0615  0.3965
 4090TIP3    H133761   5.594   3.476  13.033 -1.7927 -0.8966  1.9002
 4090TIP3    H233762   5.715   3.492  13.123  2.3108  1.3190 -3.4526
 4091TIP3   OH233763   2.360   5.540  11.887  0.2991 -0.6605 -0.0124
 4091TIP3    H133764   2.416   5.527  11.810 -0.0812  0.2774 -0.4672
 4091TIP3    H233765   2.316   5.456  11.899 -0.0816 -0.6493 -1.1883
 4092TIP3   OH233766   4.751   4.085   0.872  0.2685 -0.0735  0.7008
 4092TIP3    H133767   4.828   4.062   0.820 -0.5144  0.2536 -0.6504
 4092TIP3    H233768   4.733   4.006   0.924  0.2801 -0.9090 -0.5245
 4093TIP3   OH233769   3.859   6.298  17.091 -0.3490  0.1801 -0.0631
 4093TIP3    H133770   3.839   6.385  17.125  0.0111 -0.6586  2.4738
 4093TIP3    H233771   3.826   6.300  17.001  1.3399  3.5358 -0.7963
 4094TIP3   OH233772   5.163   2.568   4.701  0.0090 -0.1128  0.0181
 4094TIP3    H133773   5.183   2.514   4.777  1.2209 -0.3383 -0.4371
 4094TIP3    H233774   5.171   2.508   4.627 -0.8145  0.1819 -0.3164
 4095TIP3   OH233775   1.550   5.959   1.391  0.2455  0.3531 -0.5552
 4095TIP3    H133776   1.604   5.967   1.470 -0.9597  1.4309  0.2099
 4095TIP3    H233777   1.538   6.050   1.361 -0.8886  0.1271 -0.8532
 4096TIP3   OH233778   5.118   1.669   5.995 -0.2192  0.1256  0.7576
 4096TIP3    H133779   5.171   1.612   6.050 -1.0715 -0.7840  0.6640
 4096TIP3    H233780   5.143   1.758   6.021 -0.1949 -0.2871  2.2058
 4097TIP3   OH233781   0.058   1.492  12.361 -0.5089 -0.1706 -0.1553
 4097TIP3    H133782   0.025   1.579  12.380 -2.5455 -1.3224  1.9789
 4097TIP3    H233783   0.028   1.474  12.272  1.9775  2.1003 -1.6098
 4098TIP3   OH233784   2.934   3.033  14.151 -0.2419  0.2460  0.0816
 4098TIP3    H133785   2.884   2.951  14.144 -1.9047  1.0844  1.3318
 4098TIP3    H233786   2.919   3.078  14.068  1.1754 -0.9147 -0.8648
 4099TIP3   OH233787   2.715   0.809   0.601 -0.4466 -0.3032  0.1442
 4099TIP3    H133788   2.801   0.845   0.623  0.5845 -2.9997  0.9517
 4099TIP3    H233789   2.678   0.783   0.685 -0.2123 -2.9088 -0.4904
 4100TIP3   OH233790   2.515   5.311  16.160 -0.3667  0.2675 -0.1791
 4100TIP3    H133791   2.475   5.333  16.076 -1.1861  2.4277  0.6858
 4100TIP3    H233792   2.455   5.349  16.225  0.5959 -0.7410  1.3576
 4101TIP3   OH233793   3.946   0.683   2.121 -0.1944 -0.2500  0.2892
 4101TIP3    H133794   3.894   0.644   2.191 -2.5740  1.2842 -0.5199
 4101TIP3    H233795   3.913   0.641   2.041  0.1299  0.4207 -0.2038
 4102TIP3   OH233796   4.075   3.005   0.556 -0.0868  0.0846 -0.4414
 4102TIP3    H133797   4.137   2.965   0.617 -0.6639 -0.1479  0.0095
 4102TIP3    H233798   4.064   3.094   0.587 -0.6734 -0.1463  0.0398
 4103TIP3   OH233799   5.462   4.366  15.230 -0.0024 -0.1216 -0.1778
 4103TIP3    H133800   5.380   4.341  15.186  0.4753 -1.2945 -0.4354
 4103TIP3    H233801   5.436   4.386  15.320 -0.6171 -0.2210 -0.3292
 4104TIP3   OH233802   5.351   5.752  13.234 -0.4841  0.8777 -0.1996
 4104TIP3    H133803   5.394   5.803  13.303 -0.6207  0.8828 -0.1171
 4104TIP3    H233804   5.392   5.781  13.153  0.3718  0.1595 -0.0306
 4105TIP3   OH233805   2.145   2.708   2.720  0.4591 -0.9648 -0.2292
 4105TIP3    H133806   2.107   2.796   2.718  0.4664 -0.9141  1.0431
 4105TIP3    H233807   2.234   2.720   2.689  0.6463 -0.4075  0.4930
 4106TIP3   OH233808   2.975   2.811   3.549 -0.2267 -0.0309 -0.0241
 4106TIP3    H133809   2.963   2.847   3.461 -1.8144  1.1433  0.6197
 4106TIP3    H233810   2.989   2.718   3.535  1.0313  0.3469 -1.5881
 4107TIP3   OH233811   5.484   3.199  14.266 -0.6632 -0.4557  0.1534
 4107TIP3    H133812   5.415   3.198  14.199 -1.5909  0.7578  1.0570
 4107TIP3    H233813   5.564   3.179  14.217 -1.1527  1.3592 -1.5519
 4108TIP3   OH233814   4.595   4.542   3.011  0.0843 -0.2770 -0.3386
 4108TIP3    H133815   4.683   4.537   2.974  0.0720 -0.1663 -0.3827
 4108TIP3    H233816   4.540   4.495   2.948  0.5585 -2.9898  1.1025
 4109TIP3   OH233817   5.606   4.941   3.211 -0.4972  0.3734 -0.2917
 4109TIP3    H133818   5.660   5.009   3.253  0.0182 -0.3719  0.2865
 4109TIP3    H233819   5.662   4.864   3.210 -1.0102 -0.0008 -1.1189
 4110TIP3   OH233820   6.331   0.686   4.014 -0.2554 -0.0124  0.1907
 4110TIP3    H133821   6.364   0.739   3.942 -0.6042 -0.6508 -0.4495
 4110TIP3    H233822   6.383   0.713   4.090 -0.0235  0.8060 -0.2520
 4111TIP3   OH233823   4.260   4.377   5.463  0.5215  0.2115 -0.1092
 4111TIP3    H133824   4.258   4.461   5.418 -0.2887  0.0822 -0.3124
 4111TIP3    H233825   4.338   4.333   5.429 -0.8499 -0.5145 -2.5447
 4112TIP3   OH233826   2.102   3.605  12.912  0.3128  0.3753 -0.0485
 4112TIP3    H133827   2.138   3.516  12.913 -1.4704 -0.3834  1.6077
 4112TIP3    H233828   2.120   3.636  12.823 -1.3542 -2.6687 -1.6364
 4113TIP3   OH233829   3.158   4.125   3.734  0.3040 -0.0991  0.1627
 4113TIP3    H133830   3.085   4.160   3.683 -0.3789 -0.1562  1.0880
 4113TIP3    H233831   3.209   4.202   3.760 -0.5622  0.1267  1.2301
 4114TIP3   OH233832   1.746   1.714  12.614  0.2147 -0.5349 -0.5291
 4114TIP3    H133833   1.700   1.785  12.658 -1.1084 -2.1427  0.8286
 4114TIP3    H233834   1.817   1.690  12.674  1.8909  0.8524 -1.8702
 4115TIP3   OH233835   4.251   4.246   2.337  0.4269  0.4748 -0.2571
 4115TIP3    H133836   4.172   4.191   2.339  0.0530  0.9492  2.4146
 4115TIP3    H233837   4.239   4.302   2.261 -2.2241  1.0180  0.4450
 4116TIP3   OH233838   4.358   3.291  16.061 -0.4269 -0.1650  0.2157
 4116TIP3    H133839   4.390   3.339  15.984 -0.6234 -0.0201  0.2245
 4116TIP3    H233840   4.437   3.253  16.099 -0.2977 -0.0375  0.0784
 4117TIP3   OH233841   2.706   3.096  14.982 -0.0315  0.4971  0.2855
 4117TIP3    H133842   2.617   3.089  15.017 -1.0366  1.3751 -1.8725
 4117TIP3    H233843   2.755   3.144  15.049 -1.5502  1.1714  0.9586
 4118TIP3   OH233844   3.146   3.221   0.351 -0.6306 -0.0075  0.5463
 4118TIP3    H133845   3.125   3.130   0.372  0.6349 -0.4711 -0.1057
 4118TIP3    H233846   3.241   3.223   0.347 -0.6404  0.2582 -3.9902
 4119TIP3   OH233847   6.015   2.482  17.150  0.3352 -0.6359  0.2740
 4119TIP3    H133848   6.006   2.387  17.153 -1.9329 -0.4803  0.6692
 4119TIP3    H233849   5.989   2.511  17.238 -0.5322  0.4061 -0.2940
 4120TIP3   OH233850   5.485   6.812  12.028 -0.0628 -0.0334 -0.1041
 4120TIP3    H133851   5.568   6.854  12.054 -1.1779  1.4863  1.1837
 4120TIP3    H233852   5.430   6.884  11.998 -1.8230 -0.6189  1.5145
 4121TIP3   OH233853   1.361   0.646  16.135  0.2008  0.3960  0.0760
 4121TIP3    H133854   1.290   0.620  16.194  0.7976 -0.2740  0.5225
 4121TIP3    H233855   1.336   0.611  16.049  1.0333 -1.8850  0.6742
 4122TIP3   OH233856   3.716   0.893   0.850 -0.1475  0.2412  0.3694
 4122TIP3    H133857   3.649   0.843   0.803 -0.7330  1.6961 -0.3908
 4122TIP3    H233858   3.696   0.984   0.830  0.9932  0.7814  1.6020
 4123TIP3   OH233859   0.205   5.103  11.868  0.3329 -0.0427 -0.6629
 4123TIP3    H133860   0.139   5.060  11.814 -0.0963  0.2895 -0.4081
 4123TIP3    H233861   0.162   5.116  11.952  0.9130 -0.3292 -0.3171
 4124TIP3   OH233862   1.210   4.578  10.981  0.4195 -0.1041 -0.1881
 4124TIP3    H133863   1.117   4.588  10.961  0.5641  0.5789 -0.5555
 4124TIP3    H233864   1.225   4.484  10.977 -0.1494 -0.1827 -0.6277
 4125TIP3   OH233865   1.318   2.849   6.373 -0.1114 -0.2586 -0.6456
 4125TIP3    H133866   1.394   2.907   6.382 -0.4558  0.0756  0.2559
 4125TIP3    H233867   1.349   2.764   6.402 -0.7740  0.4632  2.5268
 4126TIP3   OH233868   6.187   5.012  15.198 -0.1016 -0.0396 -0.0502
 4126TIP3    H133869   6.206   4.978  15.286 -0.4736 -1.5632 -0.5309
 4126TIP3    H233870   6.097   4.984  15.181  0.1917 -0.3332 -1.1680
 4127TIP3   OH233871   0.114   5.170   5.235 -0.1007  0.1653 -0.5241
 4127TIP3    H133872   0.151   5.181   5.148 -0.0055 -1.7417 -0.7721
 4127TIP3    H233873   0.189   5.152   5.292 -0.3807 -1.1186 -0.5403
 4128TIP3   OH233874   5.304   2.420   4.485 -0.2334 -0.2968  0.5909
 4128TIP3    H133875   5.307   2.342   4.539  1.5321 -1.4641 -1.0645
 4128TIP3    H233876   5.395   2.438   4.463 -0.6602  1.7718  0.2766
 4129TIP3   OH233877   1.803   5.835  12.036  0.4130 -0.4578 -0.8316
 4129TIP3    H133878   1.878   5.860  11.981 -0.3373  0.3592 -1.5085
 4129TIP3    H233879   1.834   5.846  12.126  2.0645 -2.9517 -0.9929
 4130TIP3   OH233880   6.654   6.738   1.236 -0.3802 -0.2292  0.5784
 4130TIP3    H133881   6.650   6.650   1.199  0.7806 -0.2253  0.4155
 4130TIP3    H233882   6.579   6.742   1.296 -2.2599 -0.2628 -1.6509
 4131TIP3   OH233883   4.102   2.889   4.745 -0.1672 -0.0499 -0.5017
 4131TIP3    H133884   4.163   2.886   4.819  0.4892  1.2229 -0.9706
 4131TIP3    H233885   4.033   2.826   4.769  0.9581 -1.0104  0.3499
 4132TIP3   OH233886   2.699   5.320  11.882 -0.3049 -0.3981 -0.3695
 4132TIP3    H133887   2.627   5.354  11.829  1.7824  2.7325 -1.5604
 4132TIP3    H233888   2.736   5.397  11.925  1.1919 -2.1357  1.7051
 4133TIP3   OH233889   4.499   0.573  11.303  0.0079 -0.1034 -0.9558
 4133TIP3    H133890   4.430   0.509  11.288  0.7964 -1.0551 -0.6122
 4133TIP3    H233891   4.507   0.578  11.398 -0.3343  0.8273 -0.9665
 4134TIP3   OH233892   6.408   3.922  11.541  0.3443  0.7731 -0.0500
 4134TIP3    H133893   6.400   3.855  11.473 -0.0212  1.2573 -0.4898
 4134TIP3    H233894   6.352   3.993  11.511  0.2734  1.0396  0.7074
 4135TIP3   OH233895   1.836   3.493   4.653  0.6291 -1.0016 -0.4750
 4135TIP3    H133896   1.928   3.509   4.637  0.4202 -0.4206 -1.1184
 4135TIP3    H233897   1.835   3.427   4.722  1.5234  0.3841  0.9355
 4136TIP3   OH233898   6.174   5.320   6.729  0.5358  0.1764  0.1318
 4136TIP3    H133899   6.233   5.323   6.805 -0.1861 -0.9292  0.7543
 4136TIP3    H233900   6.232   5.302   6.655  0.9982 -0.8285  0.7214
 4137TIP3   OH233901   2.508   0.951  14.330  0.4414  0.3114 -0.1483
 4137TIP3    H133902   2.584   1.010  14.334 -0.1134  0.9596  1.7024
 4137TIP3    H233903   2.546   0.865  14.309  1.2483  1.2397 -3.0095
 4138TIP3   OH233904   1.984   1.703  17.140 -0.7872 -0.3696  0.1632
 4138TIP3    H133905   2.078   1.725  17.144 -1.0365  0.6337  0.8359
 4138TIP3    H233906   1.983   1.610  17.119  0.4535 -1.1645  3.0231
 4139TIP3   OH233907   1.653   3.848  17.200 -0.4854  0.1090 -0.0084
 4139TIP3    H133908   1.589   3.836  17.130 -0.5640  0.5244 -0.0093
 4139TIP3    H233909   1.705   3.923  17.173 -1.7397  1.5045  1.2593
 4140TIP3   OH233910   4.450   5.540  11.898  0.0728 -0.6822 -0.9308
 4140TIP3    H133911   4.525   5.512  11.846  0.7221 -0.9220  0.1022
 4140TIP3    H233912   4.404   5.603  11.842  0.6190 -1.1045 -1.8692
 4141TIP3   OH233913   2.415   6.691   2.071 -0.4746  0.3517 -0.0524
 4141TIP3    H133914   2.373   6.704   1.986  0.4280 -1.8466 -0.8923
 4141TIP3    H233915   2.431   6.780   2.103 -0.5993  1.2422 -2.2709
 4142TIP3   OH233916   5.746   1.028  14.513 -0.3958  0.1869  0.2978
 4142TIP3    H133917   5.717   1.043  14.423 -0.0339 -1.7516 -0.1957
 4142TIP3    H233918   5.665   1.011  14.562 -0.4952 -0.1412  0.0261
 4143TIP3   OH233919   5.966   6.292  11.970 -0.2170 -0.8511 -0.4107
 4143TIP3    H133920   5.884   6.321  12.009 -1.2592 -1.7913 -1.7847
 4143TIP3    H233921   5.985   6.208  12.012  0.0038 -0.6625 -0.1354
 4144TIP3   OH233922   2.944   3.142  14.513  0.3811  0.0468 -0.3710
 4144TIP3    H133923   3.004   3.115  14.582 -0.4441 -0.8306  0.0187
 4144TIP3    H233924   2.857   3.123  14.548 -0.1657  1.6776 -0.7528
 4145TIP3   OH233925   3.408   5.850   3.277  0.4665  0.2119 -0.1674
 4145TIP3    H133926   3.358   5.839   3.196 -3.0195  1.3313  1.5944
 4145TIP3    H233927   3.385   5.939   3.306 -0.1216 -0.8554  2.9964
 4146TIP3   OH233928   3.100   2.236  12.860 -0.5041 -0.0614  0.1986
 4146TIP3    H133929   3.059   2.191  12.935 -1.0028  0.6012  0.3314
 4146TIP3    H233930   3.111   2.167  12.794 -3.0400 -0.0601 -0.3435
 4147TIP3   OH233931   1.740   5.234   0.828  0.3473  0.6775 -0.5287
 4147TIP3    H133932   1.768   5.209   0.916 -0.5389  2.1153  0.2006
 4147TIP3    H233933   1.821   5.257   0.782  0.9572 -1.3086 -0.5516
 4148TIP3   OH233934   6.044   2.663  12.798  0.2923 -0.5437  0.2748
 4148TIP3    H133935   6.121   2.608  12.814  0.9458  0.2425 -0.0872
 4148TIP3    H233936   6.023   2.700  12.884  0.5626 -0.4566  0.3055
 4149TIP3   OH233937   6.488   6.163   1.124  0.0370  0.3105 -0.3856
 4149TIP3    H133938   6.500   6.170   1.029  0.4100 -1.6351 -0.5314
 4149TIP3    H233939   6.413   6.104   1.135  0.5883 -0.2653  0.5001
 4150TIP3   OH233940   4.963   3.977  16.420  0.4232  1.1355  0.4744
 4150TIP3    H133941   4.890   4.001  16.477  0.4720  0.0782  1.0136
 4150TIP3    H233942   4.946   3.886  16.397  1.0645  1.1767 -0.1885
 4151TIP3   OH233943   3.160   4.333  10.896 -0.2444 -0.0123  0.3335
 4151TIP3    H133944   3.088   4.270  10.903  0.3643 -0.8314 -0.4419
 4151TIP3    H233945   3.227   4.287  10.845  1.1511  0.4423  1.6723
 4152TIP3   OH233946   4.980   6.660  15.048  0.3696  0.2522 -0.3346
 4152TIP3    H133947   4.946   6.688  15.133 -0.8050  1.1913 -1.0890
 4152TIP3    H233948   4.920   6.590  15.020  0.8064 -0.1167 -0.3646
 4153TIP3   OH233949   6.152   5.348  12.086 -0.3110  0.0662  0.2601
 4153TIP3    H133950   6.061   5.371  12.069  0.2089  0.4937 -2.3836
 4153TIP3    H233951   6.202   5.403  12.027  1.7233 -0.0350  1.7763
 4154TIP3   OH233952   4.733   2.083  14.638 -0.0100 -0.8472 -0.3777
 4154TIP3    H133953   4.701   2.048  14.555  3.0982 -2.7454 -0.9374
 4154TIP3    H233954   4.681   2.037  14.704 -0.7245 -1.2757 -1.2050
 4155TIP3   OH233955   4.395   4.874  14.661 -0.2249  0.3380 -0.4722
 4155TIP3    H133956   4.444   4.887  14.743  0.1454 -1.0704 -0.4476
 4155TIP3    H233957   4.452   4.820  14.607 -1.1228 -0.0568 -1.0470
 4156TIP3   OH233958   1.369   1.350   1.848  0.2572  0.5974 -0.2113
 4156TIP3    H133959   1.351   1.439   1.878  0.9974  1.2656 -1.6369
 4156TIP3    H233960   1.289   1.323   1.802  0.7511  1.3764 -1.6076
 4157TIP3   OH233961   4.155   5.387   2.976 -0.0248 -0.0834 -0.7474
 4157TIP3    H133962   4.236   5.346   3.005  0.1212  1.0962  0.6134
 4157TIP3    H233963   4.088   5.319   2.989  0.2198  0.0148  1.3741
 4158TIP3   OH233964   1.858   0.137  11.635 -0.1140  0.0117 -0.0844
 4158TIP3    H133965   1.934   0.142  11.578  0.1978  0.8074  0.3791
 4158TIP3    H233966   1.783   0.132  11.575  0.2433  0.2706 -0.5600
 4159TIP3   OH233967   5.453   5.742  13.710 -0.2314 -0.6489  0.2892
 4159TIP3    H133968   5.456   5.704  13.798  0.8259 -0.2201  0.4485
 4159TIP3    H233969   5.380   5.804  13.713  1.8306  1.9312  1.9794
 4160TIP3   OH233970   5.999   2.112  11.468  0.0932  0.0415 -0.6354
 4160TIP3    H133971   5.999   2.091  11.562  1.0107 -2.2900 -1.0810
 4160TIP3    H233972   6.084   2.080  11.437 -0.3160  0.5140 -2.3211
 4161TIP3   OH233973   5.885   4.874  15.856 -0.3343  0.3078  0.8510
 4161TIP3    H133974   5.854   4.878  15.946  0.2695 -1.4617  1.1770
 4161TIP3    H233975   5.977   4.900  15.861  0.5438 -2.5155  1.2843
 4162TIP3   OH233976   0.985   0.219   1.453  0.2605  0.1676 -0.2220
 4162TIP3    H133977   0.969   0.180   1.539 -0.5156 -0.1682 -0.5055
 4162TIP3    H233978   1.060   0.170   1.418  1.2040  0.9574  0.6482
 4163TIP3   OH233979   4.186   2.951   0.306  0.1280 -0.4092  0.2767
 4163TIP3    H133980   4.132   2.945   0.385 -0.0250 -0.3754  0.1753
 4163TIP3    H233981   4.266   2.902   0.328 -0.1492 -0.8726  0.2582
 4164TIP3   OH233982   2.631   2.566   6.055 -0.5074 -0.6540  0.1362
 4164TIP3    H133983   2.666   2.541   5.970 -2.6657 -2.0736 -0.4238
 4164TIP3    H233984   2.591   2.485   6.089  0.5503 -0.2148  2.6682
 4165TIP3   OH233985   0.400   5.906  14.387 -0.4596  0.3061  0.5315
 4165TIP3    H133986   0.442   5.989  14.406  0.0581 -0.1476  1.4768
 4165TIP3    H233987   0.310   5.916  14.419 -0.3781  0.4831  0.7027
 4166TIP3   OH233988   0.937   2.698  11.371  0.1045 -0.0126  0.2272
 4166TIP3    H133989   0.984   2.683  11.289  1.8688  0.3459  1.1141
 4166TIP3    H233990   0.912   2.790  11.368  3.0997  0.9690  1.4103
 4167TIP3   OH233991   0.468   3.102   1.610  0.2867 -0.0105  0.0529
 4167TIP3    H133992   0.390   3.132   1.564 -1.0708 -2.8122  0.2745
 4167TIP3    H233993   0.537   3.100   1.544 -0.0531  1.5278 -0.3900
 4168TIP3   OH233994   0.436   5.717  14.646 -0.6328 -0.2180  0.2434
 4168TIP3    H133995   0.426   5.680  14.558  0.4972  1.6758 -0.7596
 4168TIP3    H233996   0.390   5.801  14.642  0.2767  0.3450  1.1240
 4169TIP3   OH233997   4.175   0.815   2.530 -0.6183  0.0250  0.3075
 4169TIP3    H133998   4.094   0.866   2.536 -0.4112  0.5640 -1.0046
 4169TIP3    H233999   4.216   0.825   2.615 -2.6977 -1.6188  1.6153
 4170TIP3   OH234000   5.958   5.913  14.639  0.1942 -0.4216  0.0382
 4170TIP3    H134001   6.013   5.953  14.571 -0.0635 -1.9549 -1.1245
 4170TIP3    H234002   5.880   5.883  14.592  0.0337 -1.5657  0.9954
 4171TIP3   OH234003   1.062   2.226   1.451  0.0680 -0.0626 -0.1922
 4171TIP3    H134004   0.987   2.175   1.421  0.1866 -0.4398  0.1380
 4171TIP3    H234005   1.135   2.198   1.396 -0.2473  1.0856 -1.2462
 4172TIP3   OH234006   4.201   6.456   3.497  0.3779  0.2155  0.2763
 4172TIP3    H134007   4.261   6.385   3.476  0.4283  0.5925 -0.9405
 4172TIP3    H234008   4.221   6.524   3.433 -2.4969 -0.3236 -1.3546
 4173TIP3   OH234009   6.361   1.736  15.552  0.6400 -0.0332  0.6697
 4173TIP3    H134010   6.441   1.761  15.507  0.6100  0.0005  0.6339
 4173TIP3    H234011   6.303   1.705  15.482  0.5215  0.2098  0.6595
 4174TIP3   OH234012   0.269   5.207   4.979  0.3698 -0.0844  0.3501
 4174TIP3    H134013   0.306   5.166   4.901 -0.6506  0.2211 -0.3077
 4174TIP3    H234014   0.255   5.298   4.955  0.2864  0.0755  0.9791
 4175TIP3   OH234015   5.406   5.082  16.793 -0.1386 -0.1302  0.0357
 4175TIP3    H134016   5.379   5.078  16.702  1.2240  0.0244 -0.3990
 4175TIP3    H234017   5.477   5.017  16.800 -0.7122 -0.6631  1.1598
 4176TIP3   OH234018   0.618   5.267   3.867 -0.2152  0.1008  0.3576
 4176TIP3    H134019   0.548   5.210   3.834 -0.7878  0.7544  0.4049
 4176TIP3    H234020   0.574   5.323   3.931  0.5166  0.0279  0.9281
 4177TIP3   OH234021   4.604   2.144   3.388 -0.0871  0.2099 -0.7660
 4177TIP3    H134022   4.556   2.083   3.332  1.2171 -0.7690 -0.8673
 4177TIP3    H234023   4.541   2.170   3.455 -1.0258 -0.3166 -1.4199
 4178TIP3   OH234024   3.007   0.665  16.312  0.5387 -0.4629 -0.0488
 4178TIP3    H134025   3.056   0.716  16.377  1.5981 -1.1324 -0.3093
 4178TIP3    H234026   2.944   0.614  16.364  0.0849  0.4149  0.2859
 4179TIP3   OH234027   6.443   4.385   0.705 -0.0635  0.4077  0.4892
 4179TIP3    H134028   6.527   4.421   0.677 -0.0932  1.0369  1.1545
 4179TIP3    H234029   6.465   4.314   0.765  0.0100  1.0644  1.2603
 4180TIP3   OH234030   4.497   1.422   4.968 -0.5220 -0.3185  0.0568
 4180TIP3    H134031   4.559   1.350   4.981 -0.6795 -0.4808 -0.0945
 4180TIP3    H234032   4.547   1.501   4.991 -0.9373 -0.6282  2.2324
 4181TIP3   OH234033   6.585   3.645  11.422 -0.0032 -1.0373  0.2830
 4181TIP3    H134034   6.667   3.652  11.373 -0.2208  1.3314  0.1388
 4181TIP3    H234035   6.518   3.676  11.361 -1.2028 -3.6075  0.1462
 4182TIP3   OH234036   5.529   5.802   5.912 -0.1642 -1.0621 -0.0706
 4182TIP3    H134037   5.552   5.755   5.992  0.6057  1.6227  1.4352
 4182TIP3    H234038   5.467   5.869   5.941  0.9897  0.7091 -1.4693
 4183TIP3   OH234039   0.074   5.236   2.888 -0.1669 -0.0280  0.9371
 4183TIP3    H134040   0.070   5.144   2.864  0.6521 -0.0914  1.0222
 4183TIP3    H234041   0.115   5.279   2.813 -3.6526  0.8740 -0.6937
 4184TIP3   OH234042   6.697   1.758  14.161  0.1244 -0.2625 -0.1511
 4184TIP3    H134043   6.779   1.722  14.127 -0.1579  1.1650 -2.6144
 4184TIP3    H234044   6.631   1.692  14.138  0.3136 -0.4844 -0.0529
 4185TIP3   OH234045   6.667   0.301   6.403  0.6334  0.0251  0.3897
 4185TIP3    H134046   6.603   0.242   6.443  0.2089 -1.4878 -2.2866
 4185TIP3    H234047   6.628   0.388   6.410 -0.2927 -0.4527  1.4606
 4186TIP3   OH234048   4.519   3.821   2.119 -0.3996 -0.4268  0.3419
 4186TIP3    H134049   4.590   3.883   2.100  0.7267 -2.1140 -1.3251
 4186TIP3    H234050   4.452   3.841   2.054  0.0316 -1.0150 -0.3004
 4187TIP3   OH234051   0.666   3.452   0.353 -0.4453 -0.1812 -0.4299
 4187TIP3    H134052   0.721   3.473   0.278  1.0211 -2.5652 -0.1455
 4187TIP3    H234053   0.727   3.426   0.422 -1.8202  0.2591  1.0451
 4188TIP3   OH234054   5.476   4.684  12.182 -0.0153 -0.1996 -0.1911
 4188TIP3    H134055   5.440   4.756  12.235 -0.7854 -0.3072 -0.5572
 4188TIP3    H234056   5.556   4.720  12.144 -0.4744  0.5293 -0.4972
 4189TIP3   OH234057   1.715   2.097  11.640 -0.2923 -0.3510  0.2970
 4189TIP3    H134058   1.782   2.034  11.665 -1.0174 -1.3032 -0.1014
 4189TIP3    H234059   1.761   2.181  11.636  0.5531 -0.7450  1.4207
 4190TIP3   OH234060   0.380   2.115  11.908 -0.3170  0.1445 -0.2510
 4190TIP3    H134061   0.421   2.201  11.904 -0.3807  0.1375 -2.4401
 4190TIP3    H234062   0.453   2.053  11.914 -0.2167  0.3081  0.1907
 4191TIP3   OH234063   0.677   2.360   1.150 -0.3099 -0.2544 -0.1920
 4191TIP3    H134064   0.711   2.271   1.142  2.8285  0.7633  0.2177
 4191TIP3    H234065   0.675   2.377   1.244  1.4118  0.8134 -0.3003
 4192TIP3   OH234066   6.607   0.122  15.998 -0.6294 -0.1759 -0.2139
 4192TIP3    H134067   6.568   0.095  15.915 -0.4049 -0.2765 -0.2874
 4192TIP3    H234068   6.669   0.191  15.975 -3.6443  2.9945  0.3050
 4193TIP3   OH234069   1.379   3.422  14.914  0.0874  0.1998 -0.1978
 4193TIP3    H134070   1.412   3.381  14.834 -0.6234  0.9451 -0.8828
 4193TIP3    H234071   1.285   3.404  14.914 -0.1065  1.1552 -0.1222
 4194TIP3   OH234072   2.207   3.861   3.341 -0.5549  0.7278  0.2671
 4194TIP3    H134073   2.215   3.952   3.313 -0.9917  1.1044  1.3007
 4194TIP3    H234074   2.220   3.864   3.436 -3.0149  0.0840  0.6952
 4195TIP3   OH234075   5.303   3.222   1.290  0.0658 -0.1896  0.1179
 4195TIP3    H134076   5.264   3.157   1.231 -3.5723  2.4933 -0.7629
 4195TIP3    H234077   5.265   3.201   1.376 -2.1038  1.3653 -0.4007
 4196TIP3   OH234078   6.080   2.312  14.798  0.4854  0.0578  0.4051
 4196TIP3    H134079   6.116   2.396  14.826 -0.8551  0.6052  0.5485
 4196TIP3    H234080   6.065   2.264  14.880  1.4844 -0.4438  0.3121
 4197TIP3   OH234081   6.554   4.008  15.485  0.8861  0.2213 -0.9907
 4197TIP3    H134082   6.593   3.921  15.474 -1.4273 -1.1178  0.5848
 4197TIP3    H234083   6.546   4.018  15.580 -1.3475  0.9388 -1.2060
 4198TIP3   OH234084   2.969   2.825   6.250 -0.4495  0.1178  0.3711
 4198TIP3    H134085   2.934   2.914   6.250  0.7812  0.6812  2.5963
 4198TIP3    H234086   2.962   2.797   6.341  2.1496 -0.8170  0.3539
 4199TIP3   OH234087   0.878   5.457  10.922  0.3893  0.2632 -0.0658
 4199TIP3    H134088   0.924   5.378  10.949  0.8493  0.5397 -0.0211
 4199TIP3    H234089   0.796   5.456  10.972  0.2632 -0.3267 -0.2859
 4200TIP3   OH234090   5.137   2.169   4.589  0.5655  0.3021  0.1329
 4200TIP3    H134091   5.163   2.085   4.552  0.3939 -0.1735  1.0596
 4200TIP3    H234092   5.059   2.195   4.540  1.9983  1.1450 -1.8376
 4201TIP3   OH234093   2.505   4.868   0.335 -0.2676  0.3965  0.2560
 4201TIP3    H134094   2.511   4.792   0.278  0.4719 -1.3682  2.5296
 4201TIP3    H234095   2.413   4.873   0.359  0.1788 -2.3818  3.2023
 4202TIP3   OH234096   2.735   1.723   1.281  0.2099 -0.2699  0.1023
 4202TIP3    H134097   2.725   1.819   1.280 -1.2107 -0.4105 -0.2911
 4202TIP3    H234098   2.808   1.707   1.221  0.7999  0.5872  0.5622
 4203TIP3   OH234099   0.104   4.925  14.282  0.0737 -0.4367  0.7016
 4203TIP3    H134100   0.029   4.983  14.294  0.1094 -0.0044 -0.8912
 4203TIP3    H234101   0.132   4.903  14.370 -0.9208  0.6961  1.3312
 4204TIP3   OH234102   1.513   6.170   5.734 -0.1121  0.0977  0.0626
 4204TIP3    H134103   1.434   6.208   5.694 -1.5827 -0.7360  2.0325
 4204TIP3    H234104   1.489   6.080   5.755  2.1696 -0.9440 -1.3180
 4205TIP3   OH234105   1.518   0.359  11.759  0.1487  0.4234 -0.6668
 4205TIP3    H134106   1.490   0.290  11.698  1.0699  0.8336 -1.5940
 4205TIP3    H234107   1.595   0.398  11.717  1.5460 -0.0301  1.3010
 4206TIP3   OH234108   4.617   3.261   0.101  0.4213 -0.4257 -0.2811
 4206TIP3    H134109   4.648   3.201   0.033  0.0134 -1.5496  0.4827
 4206TIP3    H234110   4.601   3.204   0.176 -2.1066  0.2765 -0.1979
 4207TIP3   OH234111   6.184   1.447  10.870  0.0643 -0.3565  0.4374
 4207TIP3    H134112   6.275   1.472  10.890  0.2599 -0.4811 -0.2695
 4207TIP3    H234113   6.192   1.359  10.832 -0.3609 -0.3822  0.4097
 4208TIP3   OH234114   0.806   5.456  13.009  0.0141 -0.1376  0.0100
 4208TIP3    H134115   0.838   5.537  13.049 -1.3399  0.1535  0.5581
 4208TIP3    H234116   0.885   5.407  12.987  0.8777  1.4071 -0.5018
 4209TIP3   OH234117   1.122   1.223   5.850 -0.9293 -0.0680  0.3201
 4209TIP3    H134118   1.052   1.279   5.818  0.6637  1.2427 -1.0632
 4209TIP3    H234119   1.083   1.136   5.857 -2.8322  0.7475  0.2346
 4210TIP3   OH234120   4.113   2.433  15.057  0.3849 -0.3196  0.2056
 4210TIP3    H134121   4.093   2.521  15.025  1.2045 -0.8083 -1.7743
 4210TIP3    H234122   4.164   2.392  14.987 -0.4839 -2.6046  0.8055
 4211TIP3   OH234123   2.032   5.653  15.145 -0.6080 -0.6061 -0.0377
 4211TIP3    H134124   2.050   5.695  15.229 -0.2672 -0.0020 -0.4000
 4211TIP3    H234125   1.975   5.716  15.100 -1.4001 -1.2636  0.0330
 4212TIP3   OH234126   6.529   0.987  10.780 -0.3759 -0.0357  0.1458
 4212TIP3    H134127   6.484   0.982  10.864 -2.3896  1.3711 -0.7578
 4212TIP3    H234128   6.549   1.080  10.770  0.2516 -0.2586 -0.7177
 4213TIP3   OH234129   6.526   4.639  15.348  0.1719 -0.4456  0.5308
 4213TIP3    H134130   6.532   4.724  15.304 -0.0020 -0.2729  0.8414
 4213TIP3    H234131   6.513   4.576  15.276 -1.4431 -0.0239  0.4149
 4214TIP3   OH234132   4.952   2.637  13.433 -0.4121  0.7011 -0.0093
 4214TIP3    H134133   5.017   2.633  13.363  0.1640 -0.5539  0.5484
 4214TIP3    H234134   4.870   2.612  13.392 -0.0338 -0.2587 -0.2127
 4215TIP3   OH234135   5.196   0.787   3.109  0.2510 -0.0337  0.6171
 4215TIP3    H134136   5.209   0.708   3.057  1.6239  1.4083 -1.3468
 4215TIP3    H234137   5.114   0.771   3.156  0.4853 -2.5987  0.3231
 4216TIP3   OH234138   4.338   3.404  17.071 -0.3194  0.5100  0.1692
 4216TIP3    H134139   4.352   3.368  16.984 -0.2534 -0.0766  0.4153
 4216TIP3    H234140   4.258   3.456  17.063 -1.0243 -0.5508  0.0451
 4217TIP3   OH234141   4.106   3.968  12.198  0.3890 -0.0710  0.5461
 4217TIP3    H134142   4.147   3.908  12.135  2.1815  1.8007 -0.1650
 4217TIP3    H234143   4.092   3.914  12.275  0.8819 -1.7044 -0.4482
 4218TIP3   OH234144   0.148   0.314  17.101  0.5828  0.2404  0.2976
 4218TIP3    H134145   0.182   0.263  17.028 -1.4353 -0.0270 -0.5383
 4218TIP3    H234146   0.134   0.402  17.064 -0.2861  0.1469  0.3708
 4219TIP3   OH234147   5.855   3.924   0.690 -0.8537  0.3331 -0.2942
 4219TIP3    H134148   5.908   4.001   0.670  1.4397 -1.2840 -0.8178
 4219TIP3    H234149   5.780   3.959   0.739  1.2559  2.6402  1.5957
 4220TIP3   OH234150   6.343   2.853  14.757 -0.4910 -0.0239  0.3105
 4220TIP3    H134151   6.255   2.822  14.735 -0.4503  0.6440 -0.9239
 4220TIP3    H234152   6.401   2.784  14.727 -0.5798 -0.4011  0.9921
 4221TIP3   OH234153   4.440   1.247   1.310  0.2702 -0.7080 -0.0909
 4221TIP3    H134154   4.403   1.159   1.302 -0.2086 -0.5849  0.6872
 4221TIP3    H234155   4.366   1.302   1.337  1.0253 -0.4769  1.6369
 4222TIP3   OH234156   5.396   4.614  16.196 -0.2504  0.4705 -0.0937
 4222TIP3    H134157   5.366   4.558  16.125 -0.6622  1.3578 -0.6325
 4222TIP3    H234158   5.330   4.603  16.265 -0.2779  0.2242 -0.1605
 4223TIP3   OH234159   1.927   6.162  16.779  0.5935  0.7850  0.4570
 4223TIP3    H134160   1.930   6.134  16.688 -2.4964  0.5734  0.3124
 4223TIP3    H234161   1.926   6.081  16.830  2.5785  0.9028  0.7721
 4224TIP3   OH234162   3.753   3.845  12.509  0.5472 -0.1302 -0.2428
 4224TIP3    H134163   3.719   3.911  12.568  1.5186  0.7959 -0.6725
 4224TIP3    H234164   3.730   3.761  12.549  0.0589  0.4726  0.7564
 4225TIP3   OH234165   4.637   1.079  16.286 -0.3938  0.5509  0.1052
 4225TIP3    H134166   4.578   1.149  16.258 -2.3948 -1.9003 -2.3703
 4225TIP3    H234167   4.706   1.078  16.220 -0.9105 -0.3577 -0.4446
 4226TIP3   OH234168   1.829   4.443  13.170  0.6366  0.1516  0.5462
 4226TIP3    H134169   1.857   4.376  13.107  0.0044  0.5981 -0.2263
 4226TIP3    H234170   1.908   4.461  13.222  1.0347 -0.5827  0.2133
 4227TIP3   OH234171   3.701   4.761  13.442 -0.3924 -0.4234 -0.1170
 4227TIP3    H134172   3.782   4.718  13.468  0.1700  0.0082 -1.0724
 4227TIP3    H234173   3.697   4.840  13.497 -0.9475 -1.1894  0.9752
 4228TIP3   OH234174   6.388   1.886  13.519  0.4182  0.6900  0.4918
 4228TIP3    H134175   6.319   1.833  13.561  1.5215  0.2569  1.8374
 4228TIP3    H234176   6.347   1.918  13.439 -0.4832 -1.7928 -0.1441
 4229TIP3   OH234177   4.224   4.972   2.817  0.5540 -0.0365  0.5821
 4229TIP3    H134178   4.226   4.876   2.813  0.5864  0.0115 -0.8304
 4229TIP3    H234179   4.256   5.001   2.732 -2.7631  1.2257 -0.3671
 4230TIP3   OH234180   0.308   1.696  16.251 -0.3618  0.9693  0.1963
 4230TIP3    H134181   0.253   1.740  16.186  1.0483  1.9232 -0.4005
 4230TIP3    H234182   0.387   1.750  16.257 -0.2836  0.7054  2.4486
 4231TIP3   OH234183   5.140   3.918   4.211 -0.8166 -0.0279 -0.5933
 4231TIP3    H134184   5.071   3.857   4.236 -0.0096 -0.3346  0.9661
 4231TIP3    H234185   5.213   3.898   4.269  1.1347 -0.6467 -3.0519
 4232TIP3   OH234186   1.597   1.495   6.037  0.5439  0.1398 -0.3316
 4232TIP3    H134187   1.505   1.522   6.027  0.7369  1.0853  0.2672
 4232TIP3    H234188   1.599   1.451   6.122  0.6009 -0.1011 -0.4574
 4233TIP3   OH234189   3.783   0.155   0.593 -0.4061  0.0648 -0.5558
 4233TIP3    H134190   3.863   0.114   0.561  1.0016 -0.5322  3.2589
 4233TIP3    H234191   3.721   0.083   0.604 -0.5714  0.1396 -0.9568
 4234TIP3   OH234192   1.393   5.154   5.718 -0.4119  0.1142 -0.7476
 4234TIP3    H134193   1.435   5.071   5.741  0.0639  0.4718 -0.3056
 4234TIP3    H234194   1.300   5.141   5.739 -0.6499 -0.8875 -2.2784
 4235TIP3   OH234195   4.486   6.786   5.238  0.2420  0.0811  0.6294
 4235TIP3    H134196   4.530   6.864   5.272  0.5228  0.7967 -1.2727
 4235TIP3    H234197   4.407   6.777   5.292 -0.7587  2.7814 -0.2386
 4236TIP3   OH234198   0.816   3.196  11.177 -0.0405 -0.2521 -0.1720
 4236TIP3    H134199   0.888   3.254  11.155  1.0378 -1.9716 -1.4260
 4236TIP3    H234200   0.751   3.212  11.109 -0.2228  0.2295  0.1069
 4237TIP3   OH234201   6.297   4.677   0.136  0.0465  0.1166  0.0845
 4237TIP3    H134202   6.300   4.611   0.067  0.8358 -0.2352  0.4498
 4237TIP3    H234203   6.326   4.758   0.093 -0.6133  0.1725 -0.2804
 4238TIP3   OH234204   3.262   2.994   3.983 -0.3079 -0.0323  0.3554
 4238TIP3    H134205   3.194   2.984   3.916  0.0404 -0.4100  0.0493
 4238TIP3    H234206   3.219   3.040   4.055 -1.0394 -0.7409  0.3888
 4239TIP3   OH234207   5.697   0.229  15.064  0.7065 -0.6514 -0.1827
 4239TIP3    H134208   5.745   0.177  15.129 -0.0224  0.6137  1.4708
 4239TIP3    H234209   5.618   0.178  15.046 -1.4746  0.9003  3.6113
 4240TIP3   OH234210   0.949   0.518  15.443  0.4708  0.1211  0.3988
 4240TIP3    H134211   0.892   0.479  15.377  0.5257 -1.2988  1.1454
 4240TIP3    H234212   1.026   0.546  15.394 -0.1993  0.6449 -0.3828
 4241TIP3   OH234213   5.444   5.853  15.606 -0.1037  0.0536  0.4446
 4241TIP3    H134214   5.357   5.856  15.646  0.7649 -0.9294  2.5653
 4241TIP3    H234215   5.426   5.845  15.512 -2.2770  0.5600  0.7436
 4242TIP3   OH234216   5.922   2.623  13.380 -0.5927 -0.0902 -0.1619
 4242TIP3    H134217   6.014   2.605  13.404 -0.2179  0.6288 -1.0202
 4242TIP3    H234218   5.903   2.707  13.421 -0.4807  0.3364 -0.9663
 4243TIP3   OH234219   3.107   3.843  13.055 -0.4278 -0.0926  0.2235
 4243TIP3    H134220   3.116   3.784  13.129 -0.3590  0.6431  0.8072
 4243TIP3    H234221   3.105   3.930  13.093  0.6889  0.3714 -0.7061
 4244TIP3   OH234222   2.250   5.555   0.171  0.1312 -0.3712  0.3504
 4244TIP3    H134223   2.154   5.546   0.170  0.2367 -1.8229  1.4016
 4244TIP3    H234224   2.271   5.583   0.082 -1.2888  0.2171  0.1651
 4245TIP3   OH234225   3.344   6.691  15.771  0.0795 -0.3717  0.4136
 4245TIP3    H134226   3.390   6.758  15.822  0.3261 -1.0039  1.0411
 4245TIP3    H234227   3.330   6.619  15.834 -2.3884  0.0737  0.4622
 4246TIP3   OH234228   4.338   0.650  14.035  0.0388  0.2056  0.4585
 4246TIP3    H134229   4.263   0.710  14.029 -1.0327 -0.9128  2.0227
 4246TIP3    H234230   4.307   0.570  13.992  0.8134  0.1507 -0.0123
 4247TIP3   OH234231   3.710   5.550   5.678 -0.7330 -0.1730  0.3316
 4247TIP3    H134232   3.795   5.583   5.708 -1.0476 -0.1954  1.3109
 4247TIP3    H234233   3.679   5.614   5.615  0.3400 -0.5429 -0.6081
 4248TIP3   OH234234   5.395   0.912   3.658  0.2793 -0.5001  0.1434
 4248TIP3    H134235   5.358   0.984   3.606  1.1512 -0.3220 -0.2618
 4248TIP3    H234236   5.320   0.860   3.684 -0.3101  0.1959 -0.1161
 4249TIP3   OH234237   1.962   5.236   0.182  0.2408  0.4804  0.0607
 4249TIP3    H134238   1.871   5.207   0.180  0.9270 -1.9159 -2.0362
 4249TIP3    H234239   2.003   5.177   0.246  0.8584 -0.5503 -1.2405
 4250TIP3   OH234240   2.147   1.450   5.053  0.1908 -0.0304 -0.3536
 4250TIP3    H134241   2.123   1.485   5.139  0.3889 -0.1494 -0.2491
 4250TIP3    H234242   2.174   1.360   5.071 -0.7299 -0.3793 -0.6819
 4251TIP3   OH234243   4.563   1.873   4.699 -0.2621 -0.3218  0.3483
 4251TIP3    H134244   4.583   1.863   4.606  1.1411 -0.3790  0.6343
 4251TIP3    H234245   4.515   1.956   4.704 -1.2106 -0.7954 -0.5301
 4252TIP3   OH234246   3.222   4.889  15.929 -0.1799  0.0165 -0.3240
 4252TIP3    H134247   3.194   4.907  16.019  0.6802  0.4117 -0.1289
 4252TIP3    H234248   3.141   4.865  15.883 -0.5244 -0.9193  0.7253
 4253TIP3   OH234249   0.030   3.148  15.321  0.2137 -0.0786 -0.3177
 4253TIP3    H134250  -0.040   3.210  15.341 -0.8856 -1.7157  1.1422
 4253TIP3    H234251  -0.004   3.096  15.249 -0.3256 -1.1909  0.7069
 4254TIP3   OH234252   2.618   2.627   2.564 -0.0033  0.1551 -0.2610
 4254TIP3    H134253   2.671   2.652   2.640  0.8295  0.1844 -0.8314
 4254TIP3    H234254   2.655   2.679   2.492 -1.3338  0.7738 -0.5228
 4255TIP3   OH234255   1.928   0.915   0.887  0.4531  0.1169 -0.5726
 4255TIP3    H134256   1.995   0.881   0.947 -1.0807  1.7989  2.3551
 4255TIP3    H234257   1.961   1.001   0.861 -1.6810  2.4720  3.5193
 4256TIP3   OH234258   3.923   5.434  12.421 -0.7299  0.0002  0.0686
 4256TIP3    H134259   3.865   5.504  12.393 -1.1555 -0.7342 -0.9225
 4256TIP3    H234260   3.946   5.457  12.511 -1.7732  0.8045  0.1494
 4257TIP3   OH234261   5.246   4.091  10.985  0.1808 -0.0626  0.2412
 4257TIP3    H134262   5.237   3.996  10.991 -1.6777  0.1882  2.9022
 4257TIP3    H234263   5.165   4.121  10.944  1.4599  0.3683 -2.2007
 4258TIP3   OH234264   2.551   3.147   4.922  0.5706 -0.6335 -0.6734
 4258TIP3    H134265   2.631   3.180   4.962  0.5822  1.0769 -2.0242
 4258TIP3    H234266   2.578   3.113   4.837  0.0361 -1.1999 -0.6273
 4259TIP3   OH234267   0.703   6.298   5.495  0.2059  0.2326  0.5149
 4259TIP3    H134268   0.708   6.388   5.528  1.3115  0.5762 -0.4940
 4259TIP3    H234269   0.622   6.296   5.443  0.0735  0.5932  0.7064
 4260TIP3   OH234270   4.568   6.170  11.209 -0.1011  0.6115  0.6761
 4260TIP3    H134271   4.515   6.099  11.173  0.1868 -0.1924  1.7777
 4260TIP3    H234272   4.535   6.181  11.299  0.6536  1.0524  0.9070
 4261TIP3   OH234273   1.398   1.567   2.166 -0.1818 -0.4303 -0.0329
 4261TIP3    H134274   1.492   1.580   2.174 -0.1403  0.3366 -1.3666
 4261TIP3    H234275   1.359   1.635   2.220  0.0329 -0.4294  0.1207
 4262TIP3   OH234276   6.300   2.419   3.063  0.3697 -0.2134  0.5978
 4262TIP3    H134277   6.326   2.440   3.153 -0.4024 -2.1398  1.3200
 4262TIP3    H234278   6.249   2.495   3.034 -0.8144 -0.2592  2.4206
 4263TIP3   OH234279   2.426   0.237  12.596 -0.4939 -0.0132  0.4413
 4263TIP3    H134280   2.494   0.250  12.661  0.2353  0.4459 -0.3811
 4263TIP3    H234281   2.402   0.145  12.603  2.6425 -1.1506 -1.4973
 4264TIP3   OH234282   0.263   2.220  11.272  0.1583 -0.4189  0.5424
 4264TIP3    H134283   0.266   2.124  11.269 -1.6050 -0.6384  3.0050
 4264TIP3    H234284   0.287   2.247  11.183 -0.5832 -3.1865 -0.6069
 4265TIP3   OH234285   6.810   4.391  13.041 -0.1076 -0.9703 -0.5668
 4265TIP3    H134286   6.887   4.344  13.075  0.8673  0.2663 -1.0064
 4265TIP3    H234287   6.742   4.324  13.036  0.5154 -1.8095  1.1633
 4266TIP3   OH234288   1.103   6.766  15.004 -0.3802 -0.2565 -0.2778
 4266TIP3    H134289   1.082   6.825  14.932  0.9079  0.6927  0.0848
 4266TIP3    H234290   1.028   6.707  15.010 -1.0291  0.4026 -1.6159
 4267TIP3   OH234291   2.866   3.633   6.482  0.2864  0.3793  0.3166
 4267TIP3    H134292   2.819   3.557   6.448  1.1798 -1.1821  2.3544
 4267TIP3    H234293   2.851   3.701   6.417 -1.6122 -1.1462 -0.9674
 4268TIP3   OH234294   4.127   5.216  12.459  0.1315 -0.8153 -0.0437
 4268TIP3    H134295   4.061   5.279  12.429  0.5805  0.2869  1.1798
 4268TIP3    H234296   4.177   5.264  12.525  2.8040 -1.2688 -1.5870
 4269TIP3   OH234297   2.930   4.270   3.114 -0.2959  0.1608 -0.0784
 4269TIP3    H134298   3.005   4.229   3.158 -0.7285  0.7257  1.2497
 4269TIP3    H234299   2.861   4.271   3.181 -1.6218 -0.6727 -1.3858
 4270TIP3   OH234300   1.601   4.408   3.325  0.3120 -0.2232 -0.5764
 4270TIP3    H134301   1.690   4.425   3.357  0.1485 -1.0517  0.3647
 4270TIP3    H234302   1.605   4.319   3.290 -0.0642 -0.1359 -0.8454
 4271TIP3   OH234303   3.142   5.194   4.954 -0.2435  0.1521  0.7153
 4271TIP3    H134304   3.164   5.283   4.924 -1.7332  0.2315 -0.2786
 4271TIP3    H234305   3.125   5.146   4.873 -0.8118 -0.6636  1.3115
 4272TIP3   OH234306   6.703   0.089  14.481  0.5283 -0.2389 -0.0106
 4272TIP3    H134307   6.642   0.077  14.554  0.5843 -1.8703 -0.1876
 4272TIP3    H234308   6.750   0.006  14.475 -0.6596 -0.8269 -2.9591
 4273TIP3   OH234309   4.494   2.307  15.386 -0.2028  0.0866 -0.4012
 4273TIP3    H134310   4.531   2.355  15.461  1.2955 -1.1128 -0.3249
 4273TIP3    H234311   4.569   2.293  15.328 -0.6891 -1.6810 -0.6548
 4274TIP3   OH234312   5.908   6.664   4.150 -0.1472  0.1707 -0.3847
 4274TIP3    H134313   5.858   6.599   4.199 -1.3348  1.7210  0.5171
 4274TIP3    H234314   5.994   6.666   4.194  0.4715 -1.8498 -1.3876
 4275TIP3   OH234315   0.597   4.410  17.111  0.5549 -0.4528 -0.7099
 4275TIP3    H134316   0.660   4.477  17.083  0.0700 -0.0735 -0.8891
 4275TIP3    H234317   0.516   4.458  17.128  1.2024 -0.3761  2.9361
 4276TIP3   OH234318   0.727   2.868  11.129 -0.4590 -0.2462 -0.2013
 4276TIP3    H134319   0.687   2.953  11.110  0.9481  0.3551 -0.5878
 4276TIP3    H234320   0.784   2.850  11.054  0.5880 -0.6979  0.6744
 4277TIP3   OH234321   0.669   3.975  15.627  0.2090 -0.2369 -0.0236
 4277TIP3    H134322   0.632   3.931  15.550 -1.3250 -1.0789  1.1264
 4277TIP3    H234323   0.677   3.905  15.692 -1.6576  1.0071  1.6562
 4278TIP3   OH234324   6.154   0.600   4.249 -0.0112  0.2612 -0.1320
 4278TIP3    H134325   6.103   0.519   4.259 -0.6258  0.3602 -1.9637
 4278TIP3    H234326   6.090   0.664   4.218  1.2236  0.2147 -3.1890
 4279TIP3   OH234327   4.346   1.219   2.173 -0.1446 -0.0718  0.0449
 4279TIP3    H134328   4.328   1.183   2.260  0.1014  1.1096  0.5959
 4279TIP3    H234329   4.278   1.181   2.117 -0.5555 -0.5140  0.8283
 4280TIP3   OH234330   2.563   0.152   5.043  0.0107 -0.0455  0.1536
 4280TIP3    H134331   2.478   0.189   5.065  0.2877  0.6111  0.1333
 4280TIP3    H234332   2.618   0.228   5.021  0.1956 -0.5465 -1.2532
 4281TIP3   OH234333   2.788   4.848   5.185 -0.0512  0.5020 -0.4096
 4281TIP3    H134334   2.772   4.808   5.099  0.7570  0.6955 -0.6655
 4281TIP3    H234335   2.862   4.908   5.170  0.7365 -0.1658  0.6124
 4282TIP3   OH234336   4.484   5.229  12.420  0.2807 -0.0987  0.6192
 4282TIP3    H134337   4.515   5.143  12.447  0.2138 -0.2377  0.2587
 4282TIP3    H234338   4.453   5.217  12.331 -0.9884 -0.0090  1.0246
 4283TIP3   OH234339   4.676   4.715   4.224  0.1086  0.0003  0.4225
 4283TIP3    H134340   4.631   4.647   4.174  1.6193 -0.0575 -0.9439
 4283TIP3    H234341   4.728   4.667   4.288  0.3200 -0.0916  0.1866
 4284TIP3   OH234342   1.896   5.326  16.225  0.3495 -0.0796  0.2319
 4284TIP3    H134343   1.986   5.314  16.195  0.2625 -0.2772  0.0451
 4284TIP3    H234344   1.842   5.301  16.150  0.1518  0.9456  0.0106
 4285TIP3   OH234345   5.042   3.588  13.793  0.2553 -0.2125 -0.2657
 4285TIP3    H134346   4.965   3.632  13.756 -0.2448  1.5329  2.5611
 4285TIP3    H234347   5.102   3.659  13.815  1.3920 -1.3223  0.3258
 4286TIP3   OH234348   1.602   5.223  12.528 -0.5178  0.5025 -0.0139
 4286TIP3    H134349   1.613   5.309  12.487  1.1954  0.4225  0.1835
 4286TIP3    H234350   1.691   5.187  12.533 -1.1414 -1.1175  0.2836
 4287TIP3   OH234351   4.428   2.446  11.001 -0.2090  0.1518 -0.8153
 4287TIP3    H134352   4.347   2.417  10.958  1.7193 -2.1660 -3.2630
 4287TIP3    H234353   4.460   2.517  10.945 -0.5912  1.2126  0.2701
 4288TIP3   OH234354   0.291   6.026   2.603  0.3399  0.7926  0.4780
 4288TIP3    H134355   0.361   6.092   2.597  0.8601  0.2979  1.0578
 4288TIP3    H234356   0.317   5.970   2.675 -0.3668  0.2482  0.3153
 4289TIP3   OH234357   1.278   5.767  12.224  0.4453 -0.4988 -0.3980
 4289TIP3    H134358   1.195   5.730  12.251  0.9800 -1.2285  0.2771
 4289TIP3    H234359   1.274   5.768  12.128 -0.7885  0.5517 -0.3680
 4290TIP3   OH234360   5.530   5.890   5.615 -0.8302 -0.0488 -0.2091
 4290TIP3    H134361   5.558   5.853   5.699 -2.4159 -0.5688  0.1175
 4290TIP3    H234362   5.559   5.981   5.618  1.4703 -0.7031 -0.2410
 4291TIP3   OH234363   1.347   1.697  11.467 -0.0868 -0.3607 -0.1618
 4291TIP3    H134364   1.332   1.771  11.526 -2.8544 -1.2231  0.3637
 4291TIP3    H234365   1.402   1.733  11.397  0.8338  1.4574  1.3895
 4292TIP3   OH234366   6.042   5.210  11.031  0.5696 -0.4878 -0.2836
 4292TIP3    H134367   5.990   5.256  11.096  0.3306 -1.0139 -0.1050
 4292TIP3    H234368   5.991   5.216  10.951  0.6031 -0.3323 -0.2947
 4293TIP3   OH234369   6.640   5.286   3.001  0.6115 -0.5065  0.0162
 4293TIP3    H134370   6.617   5.344   2.928  0.2607 -0.4178  0.1969
 4293TIP3    H234371   6.733   5.266   2.987  1.0973  1.0796  0.5969
 4294TIP3   OH234372   4.040   0.962  15.535 -0.0276  0.5295  0.2475
 4294TIP3    H134373   4.089   1.029  15.486 -1.1364 -0.2508 -2.1218
 4294TIP3    H234374   4.026   0.892  15.471 -0.3376 -1.2460  2.1727
 4295TIP3   OH234375   4.922   0.428  14.744 -0.8039  0.2803 -0.2422
 4295TIP3    H134376   4.928   0.497  14.678 -2.1619  0.7549  0.0864
 4295TIP3    H234377   4.978   0.358  14.711 -1.6443  0.4042 -2.0598
 4296TIP3   OH234378   5.131   0.781   5.212  0.2057  0.2095  0.2101
 4296TIP3    H134379   5.214   0.779   5.260  0.3280  1.8584  0.1257
 4296TIP3    H234380   5.064   0.761   5.278  0.5717  0.0097  0.5242
 4297TIP3   OH234381   1.035   4.032  14.970  0.1164 -0.5855  0.7535
 4297TIP3    H134382   0.980   3.986  15.034 -0.9631  1.7504  1.6315
 4297TIP3    H234383   0.975   4.050  14.897  0.8079 -1.4548 -0.0470
 4298TIP3   OH234384   5.246   0.638  13.813 -0.1988  0.3326  0.3338
 4298TIP3    H134385   5.329   0.642  13.766 -0.5651  1.3705 -0.2691
 4298TIP3    H234386   5.180   0.647  13.744 -0.9644 -3.1742  0.4214
 4299TIP3   OH234387   2.510   2.098   5.256  0.0370  0.0397  0.7594
 4299TIP3    H134388   2.605   2.104   5.249  0.0332 -1.3047 -2.7155
 4299TIP3    H234389   2.481   2.189   5.264  1.5742  0.6948 -0.4736
 4300TIP3   OH234390   1.825   3.723  13.316 -0.3596  0.8187  0.5404
 4300TIP3    H134391   1.819   3.628  13.311 -1.4767  0.8993 -0.0206
 4300TIP3    H234392   1.866   3.749  13.234 -0.8688  0.8720  0.2993
 4301TIP3   OH234393   4.641   1.407   6.390 -0.1950  0.1568 -0.1075
 4301TIP3    H134394   4.567   1.402   6.330 -0.3875 -1.3372  0.2091
 4301TIP3    H234395   4.616   1.352   6.464  0.3489  1.3775  1.0091
 4302TIP3   OH234396   0.492   1.112  15.094  0.1614  0.2455 -0.4770
 4302TIP3    H134397   0.500   1.202  15.062  0.1068 -0.3774 -2.3458
 4302TIP3    H234398   0.571   1.068  15.062  1.1698  0.0395  2.0513
 4303TIP3   OH234399   1.227   4.649   3.662  0.1590  0.6218 -0.0129
 4303TIP3    H134400   1.147   4.697   3.641 -0.8415  0.1914  2.4230
 4303TIP3    H234401   1.196   4.568   3.703  1.8512 -0.5495 -0.9349
 4304TIP3   OH234402   2.528   3.001   1.900 -0.5077  0.4286 -0.4753
 4304TIP3    H134403   2.483   3.085   1.888 -0.8888  0.0544 -1.7046
 4304TIP3    H234404   2.471   2.936   1.859  0.1858 -0.3307 -0.2616
 4305TIP3   OH234405   2.123   3.196  13.910  0.0913  0.2459 -0.2410
 4305TIP3    H134406   2.155   3.112  13.875 -0.7241 -0.0210 -0.3697
 4305TIP3    H234407   2.064   3.229  13.842 -0.9976  0.0383  0.5799
 4306TIP3   OH234408   2.076   5.952   3.777  0.4269 -0.1313 -0.1486
 4306TIP3    H134409   2.038   5.865   3.789  1.2380 -0.7389 -1.6724
 4306TIP3    H234410   2.000   6.011   3.773 -0.2591 -1.0472 -1.1341
 4307TIP3   OH234411   4.265   5.967   1.284  0.4767  0.1888  0.1970
 4307TIP3    H134412   4.223   5.981   1.369  0.5457 -0.4546  0.3412
 4307TIP3    H234413   4.358   5.975   1.302  0.5025 -0.1641  0.2278
 4308TIP3   OH234414   5.717   0.011   4.007 -0.2914  0.1384  0.4722
 4308TIP3    H134415   5.780  -0.049   4.047 -1.9806 -1.0157  1.5399
 4308TIP3    H234416   5.669   0.048   4.081 -0.2172  1.7657 -0.2672
 4309TIP3   OH234417   4.015   4.621  15.502  0.4257 -0.2306  0.6015
 4309TIP3    H134418   4.017   4.547  15.441  2.1636  0.2213  0.0344
 4309TIP3    H234419   4.085   4.603  15.564 -0.3276  0.0721  1.5633
 4310TIP3   OH234420   5.324   4.446   5.431 -0.5825  0.2490 -0.7506
 4310TIP3    H134421   5.398   4.399   5.392 -2.1262 -1.4990 -1.7525
 4310TIP3    H234422   5.295   4.506   5.363 -1.2065 -0.4055 -1.0774
 4311TIP3   OH234423   6.706   5.564   5.799 -0.8944  0.6384 -0.4538
 4311TIP3    H134424   6.627   5.618   5.803 -1.4684 -0.2153  0.1532
 4311TIP3    H234425   6.675   5.479   5.767 -0.1675  0.3850 -0.5026
 4312TIP3   OH234426   2.193   2.749  16.185 -0.5553  0.1950  0.1775
 4312TIP3    H134427   2.220   2.837  16.211  0.7645 -0.2960  0.5318
 4312TIP3    H234428   2.234   2.735  16.100 -0.8111 -0.0677  0.0942
 4313TIP3   OH234429   3.650   5.670  16.643 -0.3496  0.3290 -0.7097
 4313TIP3    H134430   3.559   5.651  16.662  0.3283 -1.3255  1.2523
 4313TIP3    H234431   3.663   5.638  16.553 -1.1463 -1.7091 -0.1469
 4314TIP3   OH234432   0.619   4.827  11.548  0.3722  0.5890  0.2248
 4314TIP3    H134433   0.689   4.815  11.485  1.7017  0.4090  1.6681
 4314TIP3    H234434   0.538   4.818  11.497  1.3410 -2.4850 -0.9681
 4315TIP3   OH234435   4.216   0.935  14.489 -0.1226 -0.0528  0.6141
 4315TIP3    H134436   4.285   0.967  14.546 -0.0928 -1.8518  1.6644
 4315TIP3    H234437   4.170   0.869  14.541 -1.2318 -0.4764 -0.8237
 4316TIP3   OH234438   3.825   5.271  13.986 -0.6418 -0.0954 -0.3250
 4316TIP3    H134439   3.795   5.281  14.077 -0.2157 -0.6020 -0.1216
 4316TIP3    H234440   3.905   5.322  13.981 -1.3503  1.0149 -0.7907
 4317TIP3   OH234441   0.261   6.724  16.085 -0.1518 -0.8434 -0.4643
 4317TIP3    H134442   0.221   6.682  16.009 -0.2495 -0.9692 -0.3452
 4317TIP3    H234443   0.194   6.786  16.116  0.4066  0.2199 -1.3036
 4318TIP3   OH234444   0.757   4.563   1.442  0.1038  0.7518  0.3554
 4318TIP3    H134445   0.765   4.485   1.387  0.6503  1.3099 -0.3798
 4318TIP3    H234446   0.678   4.548   1.493  0.5091 -0.5442  0.6462
 4319TIP3   OH234447   5.346   3.357   3.340  0.1942 -0.5470  0.2087
 4319TIP3    H134448   5.347   3.446   3.375  0.5434 -0.1903 -0.6827
 4319TIP3    H234449   5.423   3.352   3.283 -0.0323 -1.2908 -0.0498
 4320TIP3   OH234450   0.631   3.002   0.534 -0.0816  0.4767 -0.4340
 4320TIP3    H134451   0.593   3.072   0.480 -0.5996  0.3868 -0.1894
 4320TIP3    H234452   0.669   2.941   0.471 -1.1788  0.0803 -0.7360
 4321TIP3   OH234453   4.787   0.916   4.474  0.5227  0.1591  0.0135
 4321TIP3    H134454   4.733   0.874   4.541 -0.5200  0.9005 -0.3540
 4321TIP3    H234455   4.735   0.912   4.394  0.8192  1.2681 -0.2488
 4322TIP3   OH234456   0.302   3.198  16.696 -0.0452 -0.3533 -0.3820
 4322TIP3    H134457   0.367   3.234  16.756 -0.0314 -3.0148  1.3409
 4322TIP3    H234458   0.224   3.252  16.709  0.8186  0.8465 -0.0742
 4323TIP3   OH234459   0.243   4.751  11.985  0.4261  0.6631 -0.0415
 4323TIP3    H134460   0.273   4.710  11.904  0.1497 -0.6594  0.4964
 4323TIP3    H234461   0.148   4.749  11.979  0.3575 -1.0160  1.0333
 4324TIP3   OH234462   0.391   3.443  13.210  0.1071  0.1224  0.1408
 4324TIP3    H134463   0.321   3.456  13.274 -0.7816 -0.5920 -0.6729
 4324TIP3    H234464   0.466   3.417  13.262 -0.1789  1.0257  1.0408
 4325TIP3   OH234465   0.158   5.217  15.811  0.4883 -0.0826 -0.0201
 4325TIP3    H134466   0.205   5.268  15.877  2.5396 -1.4198 -0.3744
 4325TIP3    H234467   0.171   5.267  15.730 -0.5136  0.6249  0.2351
 4326TIP3   OH234468   2.882   5.681  17.245  0.1650  0.2207 -0.4318
 4326TIP3    H134469   2.870   5.650  17.334 -0.8027 -1.9964 -1.2388
 4326TIP3    H234470   2.793   5.682  17.208  0.6227  0.3091 -1.5859
 4327TIP3   OH234471   1.297   2.383  17.167  0.1277 -0.2003  0.1184
 4327TIP3    H134472   1.329   2.297  17.140  1.6347  0.3861 -0.0801
 4327TIP3    H234473   1.282   2.430  17.084  0.4548  0.1158  0.2367
 4328TIP3   OH234474   6.743   2.356   4.278 -0.2478  0.1825  0.4992
 4328TIP3    H134475   6.695   2.277   4.256  1.0276 -1.0101  1.8089
 4328TIP3    H234476   6.679   2.412   4.323 -1.8100  1.0057 -2.4459
 4329TIP3   OH234477   3.403   2.781   5.669 -0.1872  0.5149  0.1518
 4329TIP3    H134478   3.350   2.748   5.742 -2.2985  0.6248 -1.2769
 4329TIP3    H234479   3.433   2.867   5.699 -0.7353  0.4161  1.0280
 4330TIP3   OH234480   3.654   0.903  16.197 -0.0793  0.2578 -0.2086
 4330TIP3    H134481   3.721   0.858  16.248  0.2854  1.4522  0.4004
 4330TIP3    H234482   3.703   0.949  16.129 -0.5030 -0.7583 -1.2329
 4331TIP3   OH234483   2.839   2.927   3.034 -0.6930  0.5027 -0.6648
 4331TIP3    H134484   2.806   3.008   2.994  0.8003  0.5569 -1.9154
 4331TIP3    H234485   2.873   2.876   2.960 -1.6330 -1.3030  0.1041
 4332TIP3   OH234486   0.335   3.028   5.203 -0.7856 -0.3980  0.5212
 4332TIP3    H134487   0.246   3.023   5.238 -0.7246  1.0656  0.9448
 4332TIP3    H234488   0.328   2.996   5.113 -1.9334  0.6110  0.2381
 4333TIP3   OH234489   0.029   4.053   5.174  0.4097 -0.5560 -0.3205
 4333TIP3    H134490   0.006   4.013   5.257 -1.8164  1.1057 -0.0637
 4333TIP3    H234491   0.074   4.134   5.197 -1.2151  0.4898 -0.6310
 4334TIP3   OH234492   1.149   4.095  16.519 -0.3462 -0.2368  0.2316
 4334TIP3    H134493   1.190   4.012  16.543  0.8613  0.7016  1.6086
 4334TIP3    H234494   1.123   4.134  16.603 -2.5520 -0.0045 -0.4978
 4335TIP3   OH234495   5.059   3.858   5.583 -0.0218 -0.0132  0.0728
 4335TIP3    H134496   4.992   3.875   5.650 -0.4015  0.1043 -0.3328
 4335TIP3    H234497   5.131   3.816   5.631 -1.0799 -1.7464  0.2378
 4336TIP3   OH234498   6.053   6.735   3.901  0.1293 -0.3808  0.0621
 4336TIP3    H134499   6.017   6.706   3.985  0.2724 -1.5356 -0.2561
 4336TIP3    H234500   6.105   6.813   3.923 -2.4872  1.3582  0.5377
 4337TIP3   OH234501   6.311   5.739  11.656 -0.1992  0.1899 -0.0748
 4337TIP3    H134502   6.280   5.726  11.566  1.1883 -0.4289 -0.4893
 4337TIP3    H234503   6.405   5.754  11.647 -0.2094  1.2067  1.2024
 4338TIP3   OH234504   2.913   5.714  13.734  0.0591 -0.2390  0.1680
 4338TIP3    H134505   2.998   5.683  13.765  0.1725 -0.9708 -0.8387
 4338TIP3    H234506   2.925   5.726  13.640 -1.1801 -1.1661 -0.1275
 4339TIP3   OH234507   4.586   6.410   3.083 -0.6916  0.4550 -0.0065
 4339TIP3    H134508   4.525   6.478   3.056  0.4933  0.5620 -2.7967
 4339TIP3    H234509   4.639   6.393   3.005 -0.1261 -2.8205  0.9249
 4340TIP3   OH234510   0.293   6.808   5.009  0.4456 -0.6173 -0.2875
 4340TIP3    H134511   0.246   6.727   5.031  1.1704 -1.2519 -1.0103
 4340TIP3    H234512   0.332   6.791   4.923 -0.7170  1.0995 -1.1986
 4341TIP3   OH234513   4.747   3.737  16.901 -0.0834 -0.4057 -0.2927
 4341TIP3    H134514   4.816   3.753  16.965  0.9083 -0.2887 -1.3706
 4341TIP3    H234515   4.708   3.654  16.927  0.4573 -0.4700  0.3215
 4342TIP3   OH234516   6.691   3.029  13.823  0.2499  0.1998  0.6070
 4342TIP3    H134517   6.742   3.096  13.778 -0.0720 -0.8278 -1.3878
 4342TIP3    H234518   6.754   2.961  13.846  0.0188 -0.5039 -0.7541
 4343TIP3   OH234519   3.086   4.686   5.009  0.1973 -0.2856  0.0716
 4343TIP3    H134520   3.091   4.770   4.964  1.5475 -0.6685 -0.5704
 4343TIP3    H234521   3.158   4.635   4.972  1.0648 -0.8035  2.2918
 4344TIP3   OH234522   1.181   2.386   2.280  0.0577 -0.1389 -0.1050
 4344TIP3    H134523   1.106   2.389   2.340 -0.4623 -2.7835 -0.4740
 4344TIP3    H234524   1.144   2.401   2.194  0.7749  3.4281  0.0648
 4345TIP3   OH234525   5.432   3.669   1.643 -0.4994 -0.5074  0.3264
 4345TIP3    H134526   5.463   3.686   1.731 -1.1838 -0.3476  0.5452
 4345TIP3    H234527   5.383   3.587   1.649  1.4581 -1.7844 -0.4109
 4346TIP3   OH234528   0.765   4.046   4.983  0.0858 -0.3468 -0.0595
 4346TIP3    H134529   0.829   4.117   4.988 -0.2385  0.0150 -0.9105
 4346TIP3    H234530   0.737   4.045   4.892  0.6902 -2.1289 -0.2468
 4347TIP3   OH234531   1.502   2.826  12.340 -0.5399 -0.0387 -0.7250
 4347TIP3    H134532   1.459   2.909  12.321  0.1400  0.3956 -0.3899
 4347TIP3    H234533   1.566   2.815  12.270  1.5976  1.3065  0.9059
 4348TIP3   OH234534   1.701   1.091  16.756 -0.3661 -0.2850 -0.2375
 4348TIP3    H134535   1.645   1.168  16.750 -1.3760 -1.0921 -1.9757
 4348TIP3    H234536   1.640   1.018  16.770  0.3656 -1.0302 -0.8422
 4349TIP3   OH234537   4.871   4.663  15.228  0.2535 -0.0029 -0.1544
 4349TIP3    H134538   4.814   4.735  15.202 -1.3726 -0.9615  0.5285
 4349TIP3    H234539   4.810   4.594  15.256  1.7627 -0.7134  1.6250
 4350TIP3   OH234540   0.534   4.403  13.910  0.7565  0.2206 -0.7851
 4350TIP3    H134541   0.618   4.436  13.942  0.7672 -0.8463  0.3979
 4350TIP3    H234542   0.558   4.332  13.850  0.7124 -0.6105  0.1624
 4351TIP3   OH234543   1.734   0.228   3.449  0.6829 -0.0569  0.6540
 4351TIP3    H134544   1.806   0.178   3.411  0.0105 -0.9909  0.5553
 4351TIP3    H234545   1.659   0.168   3.446  0.6502 -0.3904  3.8224
 4352TIP3   OH234546   0.521   5.435   0.470 -1.1707 -0.3281  0.1258
 4352TIP3    H134547   0.462   5.374   0.512  1.6723 -1.2494  3.2121
 4352TIP3    H234548   0.497   5.521   0.505 -1.7886 -0.4041 -0.0957
 4353TIP3   OH234549   2.935   3.450  10.891 -0.1623  0.5067 -0.0035
 4353TIP3    H134550   2.975   3.364  10.903 -0.5102  0.5589  1.7442
 4353TIP3    H234551   3.007   3.512  10.903 -0.2053  0.5106  0.2284
 4354TIP3   OH234552   3.212   0.251   1.404 -0.0261  0.2399  0.1257
 4354TIP3    H134553   3.296   0.278   1.440  1.5538 -0.5048 -2.7843
 4354TIP3    H234554   3.164   0.217   1.480  2.7712 -0.5383  1.6864
 4355TIP3   OH234555   6.464   6.234  13.653  0.0339  0.0789  0.1239
 4355TIP3    H134556   6.540   6.261  13.704  1.0971 -0.0415 -1.3311
 4355TIP3    H234557   6.399   6.206  13.719  0.7422  1.4058  1.4408
 4356TIP3   OH234558   3.032   3.601  14.207 -0.1899 -0.0866 -0.4259
 4356TIP3    H134559   2.966   3.669  14.215  0.5009  0.4676  0.8738
 4356TIP3    H234560   3.014   3.541  14.280  1.4252  0.7108  0.6898
 4357TIP3   OH234561   0.206   0.473   3.587  0.0368 -0.2717 -0.0956
 4357TIP3    H134562   0.250   0.457   3.504  1.4613  2.4723  0.0112
 4357TIP3    H234563   0.273   0.454   3.653 -0.7996 -1.5330  0.4409
 4358TIP3   OH234564   1.761   3.653   2.632 -0.1717 -0.4360 -0.4569
 4358TIP3    H134565   1.710   3.575   2.610  0.3215 -0.4055 -1.8356
 4358TIP3    H234566   1.741   3.715   2.561 -0.1980  0.5198  0.3696
 4359TIP3   OH234567   0.965   4.869  13.519 -0.2387  0.3931 -0.4036
 4359TIP3    H134568   0.920   4.944  13.480 -2.6675 -0.5526  0.3564
 4359TIP3    H234569   0.950   4.797  13.457 -0.3538 -0.0905  0.1715
 4360TIP3   OH234570   4.159   5.202  11.535 -0.4873  0.0363  0.5329
 4360TIP3    H134571   4.067   5.222  11.514 -0.3686 -0.1532 -0.2119
 4360TIP3    H234572   4.157   5.176  11.627 -1.2499 -0.3630  0.4152
 4361TIP3   OH234573   4.060   2.635   3.384 -0.1756 -0.1893  0.2229
 4361TIP3    H134574   4.127   2.609   3.321  1.0560 -1.6707  2.0095
 4361TIP3    H234575   4.093   2.718   3.419 -1.0318  0.8097 -1.2366
 4362TIP3   OH234576   5.752   3.135  15.707 -0.0502 -0.0363  0.0669
 4362TIP3    H134577   5.718   3.147  15.618  0.5911 -0.3801 -0.2341
 4362TIP3    H234578   5.691   3.074  15.748  0.1830 -0.6276 -0.4562
 4363TIP3   OH234579   6.582   1.592  15.240  0.9670 -0.0501  0.0288
 4363TIP3    H134580   6.497   1.548  15.236  1.0458 -0.1685 -0.4462
 4363TIP3    H234581   6.571   1.661  15.305  0.5107 -0.0755 -0.0193
 4364TIP3   OH234582   4.793   2.031  15.367  0.2659  0.2456 -0.0480
 4364TIP3    H134583   4.704   2.046  15.333  0.8131  1.5499 -0.9729
 4364TIP3    H234584   4.806   1.937  15.359 -0.0370  0.3628 -2.4742
 4365TIP3   OH234585   4.315   0.030  15.684 -0.5958 -0.1976  0.0539
 4365TIP3    H134586   4.382   0.091  15.653  0.7198 -0.7677  1.5918
 4365TIP3    H234587   4.242   0.041  15.624  0.7914  0.6306 -1.5743
 4366TIP3   OH234588   1.106   4.463  12.421 -0.0948  0.2915 -0.4005
 4366TIP3    H134589   1.068   4.519  12.488  0.5343  0.9144 -0.5463
 4366TIP3    H234590   1.179   4.515  12.385  0.8670 -0.8536 -0.1460
 4367TIP3   OH234591   4.013   0.967   3.567 -0.1490  1.0863 -0.1366
 4367TIP3    H134592   4.043   1.057   3.579  0.9872  0.8155 -0.8402
 4367TIP3    H234593   4.076   0.914   3.617 -1.7867  0.7736  1.7150
 4368TIP3   OH234594   3.369   5.058   0.543 -0.0381 -0.6984 -0.1479
 4368TIP3    H134595   3.295   4.998   0.535 -1.5324  0.6627  2.2946
 4368TIP3    H234596   3.339   5.124   0.605  2.3463  1.3353 -1.0259
 4369TIP3   OH234597   4.668   2.901   0.815  0.1787  0.3401  0.5399
 4369TIP3    H134598   4.662   2.996   0.805  0.6086  0.4721  1.4220
 4369TIP3    H234599   4.730   2.874   0.747  0.0460  0.6862  0.2761
 4370TIP3   OH234600   4.955   0.741  15.288  0.0247  0.3115  0.1244
 4370TIP3    H134601   4.940   0.833  15.309  0.1123  0.1797  0.8034
 4370TIP3    H234602   5.050   0.732  15.281  0.3037 -0.3295  3.1956
 4371TIP3   OH234603   4.534   0.117   2.842 -0.5870  0.1469  0.0375
 4371TIP3    H134604   4.576   0.169   2.910 -0.1536  2.1519 -1.6662
 4371TIP3    H234605   4.605   0.064   2.806 -0.6308 -0.2503  0.5186
 4372TIP3   OH234606   0.985   2.922   4.619 -0.3729 -0.6971 -0.2783
 4372TIP3    H134607   1.006   2.926   4.713  0.5570 -1.8171 -0.4141
 4372TIP3    H234608   0.999   3.011   4.588 -0.5896 -0.3324  0.6210
 4373TIP3   OH234609   4.018   2.840   3.919 -0.2783 -0.5177  0.3584
 4373TIP3    H134610   3.971   2.779   3.975 -0.7878  0.1798  0.7137
 4373TIP3    H234611   3.963   2.919   3.918 -0.4382 -0.6133 -1.3633
 4374TIP3   OH234612   3.618   2.766   1.573  0.8914 -0.0188  0.4311
 4374TIP3    H134613   3.619   2.860   1.554  1.7803 -0.3581 -1.4793
 4374TIP3    H234614   3.543   2.733   1.525  0.4315 -0.2658  1.3059
 4375TIP3   OH234615   0.368   4.693   1.256 -0.1496 -0.3815 -0.2403
 4375TIP3    H134616   0.386   4.613   1.305  1.1171 -0.0967 -0.2126
 4375TIP3    H234617   0.434   4.755   1.287  0.3457 -0.0248 -1.9175
 4376TIP3   OH234618   0.338   2.582  10.478 -0.1187 -0.1735 -0.0765
 4376TIP3    H134619   0.317   2.653  10.539  0.8964 -1.0241  1.3333
 4376TIP3    H234620   0.399   2.621  10.415 -0.5160  0.5045 -0.0480
 4377TIP3   OH234621   5.033   0.075   2.901  0.1705  0.4074 -0.0370
 4377TIP3    H134622   5.128   0.067   2.901  0.1577  0.0740  1.0948
 4377TIP3    H234623   5.003   0.002   2.955 -0.6865  0.9348  0.2242
 4378TIP3   OH234624   0.698   6.275  15.464  0.4221 -0.4849 -0.7504
 4378TIP3    H134625   0.756   6.352  15.466  0.3534 -0.4532  0.1026
 4378TIP3    H234626   0.611   6.312  15.447  0.2510 -0.2736  0.4821
 4379TIP3   OH234627   6.125   5.446   5.867  0.1877 -0.3746  0.3605
 4379TIP3    H134628   6.079   5.365   5.844 -0.8725  0.5287 -0.8736
 4379TIP3    H234629   6.057   5.501   5.906  0.3029  0.7791 -0.9869
 4380TIP3   OH234630   0.225   0.721  12.951  0.0893 -0.0887 -0.1152
 4380TIP3    H134631   0.239   0.738  13.045 -0.3358 -1.6092  0.2431
 4380TIP3    H234632   0.278   0.644  12.933 -0.6651 -0.4338 -0.8820
 4381TIP3   OH234633   3.286   1.541   2.467 -0.5270 -0.0087 -0.2089
 4381TIP3    H134634   3.195   1.571   2.473 -0.4714 -0.0906  1.3297
 4381TIP3    H234635   3.334   1.619   2.440 -0.6383  0.9285  2.0563
 4382TIP3   OH234636   2.315   2.453  13.927  0.2321 -0.3765  0.2997
 4382TIP3    H134637   2.278   2.520  13.870 -1.2844 -2.0790 -0.8426
 4382TIP3    H234638   2.240   2.397  13.949  1.2201 -1.0634  2.1305
 4383TIP3   OH234639   3.051   4.191   0.995  0.1667 -0.1631 -0.3112
 4383TIP3    H134640   3.115   4.122   0.979  2.0017  1.6778 -1.3873
 4383TIP3    H234641   3.067   4.255   0.925  0.0797  2.4158  1.8773
 4384TIP3   OH234642   4.332   3.772  14.585 -0.2510 -0.0280 -0.1176
 4384TIP3    H134643   4.360   3.759  14.676 -0.8694 -1.1853 -0.0790
 4384TIP3    H234644   4.351   3.689  14.542  1.3024  0.9473 -1.4177
 4385TIP3   OH234645   5.444   4.871  17.176  0.0638  0.2161  0.0144
 4385TIP3    H134646   5.414   4.960  17.154  1.1857 -0.1535 -3.6072
 4385TIP3    H234647   5.536   4.870  17.151 -0.0527 -2.1238 -0.4929
 4386TIP3   OH234648   4.513   0.613  13.575  0.1841  0.3769  0.0248
 4386TIP3    H134649   4.546   0.629  13.487  0.6794 -0.2379  0.0896
 4386TIP3    H234650   4.422   0.641  13.573  0.5520  1.6045 -0.3100
 4387TIP3   OH234651   0.769   3.084   4.406 -0.2872 -0.0980  0.4984
 4387TIP3    H134652   0.719   3.007   4.380 -0.0813  0.4036 -1.5352
 4387TIP3    H234653   0.727   3.157   4.362  2.4481  0.2765 -1.7922
 4388TIP3   OH234654   1.897   2.420  14.064 -0.2189 -0.0691  0.0331
 4388TIP3    H134655   1.957   2.345  14.059 -2.4680 -1.8814 -2.7278
 4388TIP3    H234656   1.843   2.401  14.141  0.7942  0.0591  0.8034
 4389TIP3   OH234657   5.304   0.332  10.634  0.4128 -0.0021  0.1241
 4389TIP3    H134658   5.394   0.325  10.601  0.5857  1.0153  0.3264
 4389TIP3    H234659   5.249   0.332  10.556  0.6076 -0.3221 -0.0155
 4390TIP3   OH234660   4.484   2.603   4.071 -0.2031 -0.1600  0.0855
 4390TIP3    H134661   4.508   2.692   4.044 -1.2293  0.1742  0.2018
 4390TIP3    H234662   4.394   2.612   4.105 -0.5220 -1.3377 -0.3954
 4391TIP3   OH234663   5.640   5.705   2.551 -0.1137 -0.8437  0.2337
 4391TIP3    H134664   5.725   5.701   2.508 -0.0795 -3.9042  0.4242
 4391TIP3    H234665   5.579   5.730   2.481  1.0106  3.4171  0.4791
 4392TIP3   OH234666   3.758   4.799  14.690 -0.1008  0.1016  0.7242
 4392TIP3    H134667   3.738   4.842  14.607 -0.3081  0.5277  0.9908
 4392TIP3    H234668   3.845   4.831  14.714  0.4048 -0.8095  0.1723
 4393TIP3   OH234669   1.450   3.756  14.040 -0.5638  0.4773 -0.3770
 4393TIP3    H134670   1.459   3.850  14.053 -1.1515  0.6199 -0.9540
 4393TIP3    H234671   1.507   3.736  13.966  0.3511  0.1913  0.3702
 4394TIP3   OH234672   2.238   6.384   1.141 -0.2864 -0.1510  0.5525
 4394TIP3    H134673   2.222   6.328   1.065 -0.6870  0.2093  0.3703
 4394TIP3    H234674   2.330   6.410   1.132  0.2460 -1.6593  1.2290
 4395TIP3   OH234675   2.420   6.298   2.269  0.6230  0.1989  0.0013
 4395TIP3    H134676   2.378   6.239   2.206  1.1280 -0.1749  0.0142
 4395TIP3    H234677   2.353   6.364   2.287 -0.7976 -1.5359  1.6195
 4396TIP3   OH234678   3.013   6.199   4.060 -0.6713  0.7377  0.3627
 4396TIP3    H134679   2.977   6.116   4.092 -0.5209  0.1316 -0.9325
 4396TIP3    H234680   2.942   6.262   4.070 -2.0206 -0.3210 -1.7077
 4397TIP3   OH234681   1.093   5.032  15.352 -0.3657 -0.1820  0.8131
 4397TIP3    H134682   1.006   4.991  15.349 -0.1224 -0.6616 -1.4570
 4397TIP3    H234683   1.151   4.969  15.309  0.8401  0.7424  1.0241
 4398TIP3   OH234684   1.205   4.411   4.786  0.4365 -0.5356  0.0915
 4398TIP3    H134685   1.250   4.330   4.764  1.1524 -0.0412 -0.3274
 4398TIP3    H234686   1.261   4.480   4.750 -0.0655  0.1528  0.5974
 4399TIP3   OH234687   5.414   1.279  12.195 -0.0249 -0.2893  0.7631
 4399TIP3    H134688   5.448   1.311  12.112 -0.8546 -0.9010  0.1672
 4399TIP3    H234689   5.328   1.243  12.174  0.0751 -1.1782  1.7304
 4400TIP3   OH234690   5.515   6.572   3.554 -0.4079  0.1557  0.0644
 4400TIP3    H134691   5.585   6.553   3.615 -0.1105 -0.3711 -0.4296
 4400TIP3    H234692   5.499   6.666   3.564  0.1319  0.2146  0.4180
 4401TIP3   OH234693   2.185   0.774   2.589  0.7203  0.0056  0.7604
 4401TIP3    H134694   2.222   0.727   2.514  1.0751 -1.3722  1.7659
 4401TIP3    H234695   2.260   0.792   2.646  0.5812  1.7491  0.4568
 4402TIP3   OH234696   2.757   5.884  12.587  0.2361 -0.5952  0.0345
 4402TIP3    H134697   2.693   5.841  12.645 -0.6209  0.1475 -0.3434
 4402TIP3    H234698   2.728   5.862  12.499  0.2748  0.0647 -0.1478
 4403TIP3   OH234699   0.121   0.348  15.901  0.0035  0.0900 -0.1440
 4403TIP3    H134700   0.111   0.308  15.987  1.0708  0.2513  0.0775
 4403TIP3    H234701   0.134   0.275  15.841 -0.3059 -0.0013 -0.0982
 4404TIP3   OH234702   4.916   4.494   2.872 -0.3821  0.2391 -0.4416
 4404TIP3    H134703   4.900   4.508   2.965  0.3365  1.5610 -0.4885
 4404TIP3    H234704   4.964   4.411   2.869  0.7124  0.8055  0.5019
 4405TIP3   OH234705   3.864   4.101   6.749 -0.3371 -0.0389  0.7411
 4405TIP3    H134706   3.959   4.099   6.754 -0.3546 -0.7545  0.8875
 4405TIP3    H234707   3.842   4.193   6.733  0.4012  0.0246  0.0593
 4406TIP3   OH234708   3.163   0.847  10.593 -0.0785  0.3298 -0.1407
 4406TIP3    H134709   3.213   0.928  10.602  0.0579  0.0613  2.1290
 4406TIP3    H234710   3.134   0.846  10.501  2.5125  1.3788 -1.0577
 4407TIP3   OH234711   4.360   6.347   2.588 -0.5476 -0.0458 -0.1047
 4407TIP3    H134712   4.409   6.424   2.616  0.1831 -0.1263 -1.1052
 4407TIP3    H234713   4.416   6.273   2.610 -1.8553 -0.4670  2.1915
 4408TIP3   OH234714   3.377   4.673  13.154 -0.2775 -0.0554  0.7031
 4408TIP3    H134715   3.456   4.727  13.159 -0.1578 -0.2500  0.9853
 4408TIP3    H234716   3.410   4.583  13.160 -0.2312 -0.3270 -2.0744
 4409TIP3   OH234717   0.754   5.683   4.385  0.2434  0.7178  0.0553
 4409TIP3    H134718   0.731   5.727   4.467  0.4177  1.1461 -0.1252
 4409TIP3    H234719   0.804   5.606   4.413  1.0272  1.3066  0.3227
 4410TIP3   OH234720   6.119   1.762   0.488 -0.0563  0.0087 -0.2538
 4410TIP3    H134721   6.035   1.768   0.443 -0.5979 -0.9653  0.5846
 4410TIP3    H234722   6.179   1.725   0.424 -0.1654  1.0551 -0.9757
 4411TIP3   OH234723   3.727   5.291  13.384  0.6422 -0.5303 -0.3349
 4411TIP3    H134724   3.734   5.209  13.334  0.0801  0.3722 -1.9565
 4411TIP3    H234725   3.736   5.360  13.319 -0.3229  0.7087  0.7898
 4412TIP3   OH234726   2.698   2.361   1.059 -0.1132  0.4460  0.0527
 4412TIP3    H134727   2.636   2.389   1.126 -0.8154 -0.9035  0.0118
 4412TIP3    H234728   2.761   2.307   1.106 -1.0118 -1.0958 -0.4453
 4413TIP3   OH234729   3.961   0.032   5.884  0.2917  0.0889 -0.8998
 4413TIP3    H134730   4.048   0.008   5.853 -0.3858  0.0709 -2.9145
 4413TIP3    H234731   3.901  -0.004   5.819 -1.2496  0.0506  0.4656
 4414TIP3   OH234732   4.463   5.566   3.652  0.1985  0.3737  0.1012
 4414TIP3    H134733   4.407   5.632   3.610  1.4838  1.8705  0.6354
 4414TIP3    H234734   4.540   5.615   3.681  0.9192 -1.2689  1.1006
 4415TIP3   OH234735   1.268   1.165  15.545 -0.5764  0.0694 -0.4399
 4415TIP3    H134736   1.241   1.160  15.637 -0.6396 -0.9840 -0.5095
 4415TIP3    H234737   1.197   1.214  15.502 -0.8609  0.0018 -0.0525
 4416TIP3   OH234738   4.771   1.025   3.697 -0.1202  0.0640  0.3505
 4416TIP3    H134739   4.797   1.093   3.636  1.6233 -0.2065  0.7272
 4416TIP3    H234740   4.823   1.042   3.776  0.6241 -1.8611  0.3342
 4417TIP3   OH234741   3.315   5.726   1.693  0.6457  0.2121  0.1738
 4417TIP3    H134742   3.367   5.756   1.767  0.0338  0.8532  0.3550
 4417TIP3    H234743   3.277   5.644   1.722 -0.4934  1.0053  1.0148
 4418TIP3   OH234744   3.972   3.959  16.101  0.2110  0.0283 -0.4056
 4418TIP3    H134745   4.041   3.893  16.092  0.0181  0.0968 -3.4441
 4418TIP3    H234746   3.931   3.963  16.015 -3.0327  0.6672  0.9999
 4419TIP3   OH234747   0.339   1.096  16.767 -0.0343  0.0712  0.5232
 4419TIP3    H134748   0.333   1.188  16.792 -0.9791 -0.0652  0.8498
 4419TIP3    H234749   0.416   1.063  16.814  0.6617  0.8228 -0.0578
 4420TIP3   OH234750   5.826   0.453  10.667 -0.1122 -0.4978  0.6359
 4420TIP3    H134751   5.748   0.499  10.635 -1.3240 -0.5473  3.2763
 4420TIP3    H234752   5.899   0.503  10.631 -1.2909 -0.5537 -2.0812
 4421TIP3   OH234753   3.868   4.358  15.277  0.0922 -0.4590 -0.0984
 4421TIP3    H134754   3.893   4.316  15.195  0.4011 -0.5482  0.0378
 4421TIP3    H234755   3.773   4.355  15.278  0.1072 -1.3508 -0.0040
 4422TIP3   OH234756   4.113   4.010  10.931  0.2056  0.2694 -0.4274
 4422TIP3    H134757   4.046   4.043  10.871  0.2644 -1.1385 -1.3060
 4422TIP3    H234758   4.183   4.075  10.929 -0.2606  0.7570 -1.0545
 4423TIP3   OH234759   5.479   5.102   6.683  0.5219 -0.2734  0.5861
 4423TIP3    H134760   5.422   5.175   6.710  0.2156 -0.5730  0.7476
 4423TIP3    H234761   5.566   5.127   6.716  0.2407 -0.4283  1.4764
 4424TIP3   OH234762   5.181   3.734  16.618 -0.2614 -0.1564 -0.3870
 4424TIP3    H134763   5.115   3.668  16.639  0.8204 -1.7393 -1.6943
 4424TIP3    H234764   5.150   3.774  16.537 -0.3495  0.1586 -0.2000
 4425TIP3   OH234765   5.959   5.922  16.029  0.0672  0.3777 -0.6092
 4425TIP3    H134766   5.879   5.912  16.081 -0.3683  0.5224 -1.2418
 4425TIP3    H234767   5.961   6.014  16.004  1.7461  0.9765  1.4570
 4426TIP3   OH234768   3.083   3.651   5.462 -0.3363  0.4973 -0.1846
 4426TIP3    H134769   3.067   3.557   5.462  3.0907 -0.2080  0.7003
 4426TIP3    H234770   3.096   3.673   5.554  3.2473  0.8330 -0.6278
 4427TIP3   OH234771   1.616   3.477   2.305 -0.1027 -0.3767  0.1846
 4427TIP3    H134772   1.695   3.429   2.281 -0.1378 -0.0426 -0.6427
 4427TIP3    H234773   1.549   3.444   2.245 -0.5572 -0.5538  0.7842
 4428TIP3   OH234774   1.373   4.206  12.365 -0.6607  0.4743 -0.3793
 4428TIP3    H134775   1.448   4.255  12.330 -0.0566 -0.0233  0.2268
 4428TIP3    H234776   1.349   4.146  12.294 -0.2907  0.4098 -0.4502
 4429TIP3   OH234777   4.739   6.552   4.860 -0.3637 -0.6973 -0.4245
 4429TIP3    H134778   4.807   6.619   4.859  0.0345 -1.0173  1.4991
 4429TIP3    H234779   4.748   6.506   4.777 -1.8910  2.7914 -2.7216
 4430TIP3   OH234780   3.857   4.312  16.131 -0.2213  0.2449  0.0242
 4430TIP3    H134781   3.769   4.275  16.140 -0.0721  0.2057  1.5790
 4430TIP3    H234782   3.855   4.391  16.186  0.7608  0.1617  0.1834
 4431TIP3   OH234783   0.166   2.721   1.836 -0.5016  0.0872  0.1503
 4431TIP3    H134784   0.245   2.776   1.834 -0.1498 -0.3774  0.9367
 4431TIP3    H234785   0.171   2.671   1.755 -1.4860  2.0886 -1.2238
 4432TIP3   OH234786   4.364   3.232  15.171  0.0183 -0.5521 -0.1426
 4432TIP3    H134787   4.282   3.280  15.160  0.1670 -0.2816 -0.0751
 4432TIP3    H234788   4.355   3.189  15.256 -0.0296 -0.4742 -0.1075
 4433TIP3   OH234789   5.488   1.375  13.816 -0.2398 -0.7063  0.1307
 4433TIP3    H134790   5.582   1.386  13.797 -0.6210  0.0144 -1.4732
 4433TIP3    H234791   5.482   1.388  13.911  1.6098 -3.2393  0.7298
 4434TIP3   OH234792   0.223   4.332  15.808  0.4350 -0.0965  0.4462
 4434TIP3    H134793   0.263   4.360  15.890  1.6764 -1.5965  0.3918
 4434TIP3    H234794   0.151   4.276  15.834  0.7669 -0.4913  0.5213
 4435TIP3   OH234795   5.596   4.946   3.869 -0.1192  0.2810 -0.1653
 4435TIP3    H134796   5.519   4.899   3.900 -0.3756  0.4882 -0.4795
 4435TIP3    H234797   5.621   5.003   3.943  0.5980 -0.8252  0.4651
 4436TIP3   OH234798   1.823   4.749   2.938 -0.2857  0.1647  0.2037
 4436TIP3    H134799   1.842   4.661   2.970 -1.8685 -0.0697  0.5869
 4436TIP3    H234800   1.809   4.738   2.844 -3.0998 -0.5360  0.6125
 4437TIP3   OH234801   3.834   4.535   2.396 -0.8615  0.1083  0.2700
 4437TIP3    H134802   3.835   4.439   2.399  0.2832  0.1124  0.6882
 4437TIP3    H234803   3.773   4.556   2.326  0.3958 -0.9939 -1.2468
 4438TIP3   OH234804   5.409   5.181   2.584  0.1127 -0.1177 -0.6221
 4438TIP3    H134805   5.444   5.103   2.540  0.1218 -0.0229 -0.7829
 4438TIP3    H234806   5.440   5.254   2.532  0.5898  0.0298 -0.1369
 4439TIP3   OH234807   3.649   0.398   3.246  0.3473 -0.3865 -0.2888
 4439TIP3    H134808   3.641   0.340   3.322 -0.1355 -1.4857 -1.1620
 4439TIP3    H234809   3.743   0.411   3.235  0.6893 -3.3885 -1.8010
 4440TIP3   OH234810   5.659   6.593   2.220 -0.3589 -0.3746  0.2351
 4440TIP3    H134811   5.605   6.655   2.170  0.4465 -0.3127 -0.5996
 4440TIP3    H234812   5.717   6.649   2.272 -0.7195 -0.4372  0.7038
 4441TIP3   OH234813   0.756   4.149  12.910 -0.0578 -0.3217 -0.4137
 4441TIP3    H134814   0.702   4.164  12.832 -0.1017 -0.4204 -0.4018
 4441TIP3    H234815   0.846   4.158  12.879 -0.0888  1.4110 -0.1368
 4442TIP3   OH234816   5.296   4.618  13.344  0.2858 -0.5650  0.3349
 4442TIP3    H134817   5.391   4.627  13.333  0.3363 -0.5537  0.7561
 4442TIP3    H234818   5.259   4.684  13.286  0.5383 -0.5625  0.1760
 4443TIP3   OH234819   4.572   4.599  15.263  0.0701 -0.0883 -0.0404
 4443TIP3    H134820   4.559   4.689  15.293  1.7476 -0.0514  0.6847
 4443TIP3    H234821   4.514   4.547  15.319 -1.5783  0.5967 -1.0538
 4444TIP3   OH234822   0.946   5.522   0.101 -0.4529  0.0704  0.5077
 4444TIP3    H134823   0.972   5.570   0.023  2.1246 -0.9458  0.6379
 4444TIP3    H234824   0.882   5.578   0.144  1.9464  3.1905  0.3785
 4445TIP3   OH234825   3.258   4.441  11.222 -0.4205  0.3162  0.2058
 4445TIP3    H134826   3.302   4.443  11.137 -0.2142  1.4350  0.3198
 4445TIP3    H234827   3.187   4.378  11.211 -1.2693  1.4596 -1.2444
 4446TIP3   OH234828   6.808   4.384  11.720  0.1570 -0.6002 -0.1285
 4446TIP3    H134829   6.733   4.330  11.693 -0.3237  0.0642 -0.1651
 4446TIP3    H234830   6.770   4.448  11.781  1.2844 -2.3095  2.5217
 4447TIP3   OH234831   4.593   5.802  12.528  0.4197  0.3207 -0.1999
 4447TIP3    H134832   4.600   5.736  12.458 -0.1772 -0.0111  0.0439
 4447TIP3    H234833   4.682   5.809  12.562  0.3802 -0.8460  0.1949
 4448TIP3   OH234834   6.163   4.599   4.048  0.3532  0.0086  0.2082
 4448TIP3    H134835   6.119   4.564   4.126  0.3537 -2.8157 -0.9130
 4448TIP3    H234836   6.188   4.521   3.998  2.9449  1.6385 -1.2418
 4449TIP3   OH234837   1.294   0.573   4.899  0.1597 -0.5912 -0.5065
 4449TIP3    H134838   1.278   0.494   4.847 -2.1905  0.1230 -0.9448
 4449TIP3    H234839   1.260   0.551   4.986 -0.4370 -0.0973 -0.6128
 4450TIP3   OH234840   0.059   4.923   1.476  0.2815 -0.6105 -0.7485
 4450TIP3    H134841   0.116   4.902   1.550  1.4415  1.0733 -1.1080
 4450TIP3    H234842   0.030   5.013   1.493  2.5077  0.7831 -3.4230
 4451TIP3   OH234843   0.662   3.066   1.399  0.8277  0.4930 -0.5709
 4451TIP3    H134844   0.628   3.089   1.313  1.2878  0.4513 -0.7627
 4451TIP3    H234845   0.743   3.116   1.408  0.2966  1.2534  0.2322
 4452TIP3   OH234846   3.577   6.159   4.733 -0.3644 -0.4223 -0.0369
 4452TIP3    H134847   3.579   6.073   4.692  0.4973 -0.3499 -0.1676
 4452TIP3    H234848   3.558   6.219   4.661  0.4484 -0.3697 -0.2270
 4453TIP3   OH234849   1.276   3.218  11.850  0.1541  0.2153  0.0768
 4453TIP3    H134850   1.187   3.185  11.836  0.3362  0.5440 -2.5015
 4453TIP3    H234851   1.263   3.303  11.892 -0.5402 -0.9707  2.4256
 4454TIP3   OH234852   6.062   4.231   5.228  0.4400  0.2239 -0.2791
 4454TIP3    H134853   5.983   4.285   5.218  0.9203  0.9421 -0.2262
 4454TIP3    H234854   6.106   4.268   5.304 -0.3135 -1.6152  1.1367
 4455TIP3   OH234855   2.928   3.014  13.195 -0.2859 -0.0034 -0.0511
 4455TIP3    H134856   2.940   2.936  13.142 -0.5850 -0.2224  0.1993
 4455TIP3    H234857   3.015   3.036  13.228 -0.1077  0.1041 -0.5886
 4456TIP3   OH234858   5.881   3.263   5.280  0.1747 -0.5131  0.2414
 4456TIP3    H134859   5.839   3.184   5.248  0.0344 -1.1469  1.8889
 4456TIP3    H234860   5.943   3.287   5.211 -2.1674 -0.0657 -1.8202
 4457TIP3   OH234861   5.784   4.543   0.608 -0.1502 -0.0999 -0.2803
 4457TIP3    H134862   5.779   4.536   0.513 -0.9147 -1.9096 -0.1415
 4457TIP3    H234863   5.771   4.636   0.626  0.5303  0.3567 -1.9512
 4458TIP3   OH234864   2.069   4.865  16.412  0.2861 -0.0886  0.1395
 4458TIP3    H134865   1.980   4.886  16.441 -0.2054 -2.9094  1.0281
 4458TIP3    H234866   2.097   4.794  16.471  2.6632 -0.1165 -0.9037
 4459TIP3   OH234867   5.576   5.289  16.229  0.2403  0.9496  0.5315
 4459TIP3    H134868   5.491   5.315  16.193  0.3859  1.3160  0.4447
 4459TIP3    H234869   5.638   5.311  16.160  0.3145 -0.1362  0.2452
 4460TIP3   OH234870   5.873   0.840   4.969 -0.4182 -0.5755  0.2831
 4460TIP3    H134871   5.845   0.897   5.041  0.2424 -0.8254  0.7521
 4460TIP3    H234872   5.792   0.819   4.922 -0.4754  2.3144 -1.1107
 4461TIP3   OH234873   0.450   0.210  11.941 -0.3111 -0.7791  0.8364
 4461TIP3    H134874   0.496   0.149  11.884 -1.2128 -1.5734  0.9294
 4461TIP3    H234875   0.358   0.183  11.935 -0.4652 -0.6469  2.3826
 4462TIP3   OH234876   3.858   3.420  16.952 -0.2403  0.6292  0.1290
 4462TIP3    H134877   3.770   3.419  16.917 -0.3273  1.8633  0.2786
 4462TIP3    H234878   3.909   3.469  16.888  0.1817  0.5522  0.4012
 4463TIP3   OH234879   6.571   4.499   2.295 -0.5855  0.1466 -0.2536
 4463TIP3    H134880   6.660   4.535   2.289 -1.1829  1.7942  0.1623
 4463TIP3    H234881   6.584   4.408   2.322  0.9456  0.6772  1.0145
 4464TIP3   OH234882   3.922   3.394   0.862  0.5876 -0.3826  0.2629
 4464TIP3    H134883   4.000   3.441   0.833  1.1817  0.2677  2.7172
 4464TIP3    H234884   3.849   3.452   0.836  1.1256  0.4938  0.6681
 4465TIP3   OH234885   5.359   6.739  15.868 -0.2349  0.3815 -0.1088
 4465TIP3    H134886   5.376   6.833  15.868  1.6517  0.1160 -1.5257
 4465TIP3    H234887   5.420   6.703  15.932  1.9700 -0.1957 -2.3720
 4466TIP3   OH234888   2.907   1.165  10.611  0.5523 -0.2391 -0.2335
 4466TIP3    H134889   2.978   1.176  10.548  1.0398 -0.5602  0.2513
 4466TIP3    H234890   2.873   1.254  10.625  0.8827 -0.0807 -0.4446
 4467TIP3   OH234891   3.961   6.197   3.588  0.3570 -0.2626  0.3152
 4467TIP3    H134892   4.037   6.230   3.635 -0.3077  0.8652  0.6523
 4467TIP3    H234893   3.996   6.167   3.504  1.4162 -1.4707  1.1488
 4468TIP3   OH234894   0.778   5.329  14.520 -0.0363  0.0952 -0.1753
 4468TIP3    H134895   0.785   5.379  14.439  2.1456  0.1505 -0.0163
 4468TIP3    H234896   0.822   5.246  14.500 -0.0320 -0.1345  0.7719
 4469TIP3   OH234897   3.465   4.222  14.362 -0.4422  0.6082  0.0188
 4469TIP3    H134898   3.414   4.203  14.283  0.6254  0.4032 -0.6397
 4469TIP3    H234899   3.445   4.150  14.421  0.9951 -0.8798 -1.2010
 4470TIP3   OH234900   6.338   3.863  16.988  0.3100 -0.4637  0.6732
 4470TIP3    H134901   6.416   3.815  17.017  0.3414  0.2117  1.7732
 4470TIP3    H234902   6.371   3.950  16.966  0.2402 -0.8637 -1.2387
 4471TIP3   OH234903   6.135   5.775  11.939  0.2595 -0.6675  0.0301
 4471TIP3    H134904   6.182   5.742  12.016  0.9286 -1.5443 -0.7251
 4471TIP3    H234905   6.101   5.696  11.896  2.4060 -0.5220 -2.1491
 4472TIP3   OH234906   6.347   6.812  12.371  0.2185 -0.8056 -0.4237
 4472TIP3    H134907   6.324   6.774  12.456  0.1738 -2.0220 -0.9479
 4472TIP3    H234908   6.272   6.867  12.348  0.5468  0.1180  0.6351
 4473TIP3   OH234909   3.635   3.030  15.086 -0.2764  0.2177 -0.2122
 4473TIP3    H134910   3.638   2.953  15.028  2.3492  0.8310 -1.0077
 4473TIP3    H234911   3.660   2.996  15.172  0.3669  0.0985 -0.4456
 4474TIP3   OH234912   2.190   3.936  16.666 -0.6756 -0.1524 -0.1268
 4474TIP3    H134913   2.181   3.923  16.572  1.3100 -1.5481 -0.1720
 4474TIP3    H234914   2.159   3.854  16.705  1.3958 -0.8254  0.2215
 4475TIP3   OH234915   3.327   4.058  14.106  0.0142  0.4164  0.4719
 4475TIP3    H134916   3.287   3.972  14.121  0.0375 -0.1339 -2.0798
 4475TIP3    H234917   3.415   4.050  14.142  0.0489 -0.6832  0.1775
 4476TIP3   OH234918   5.386   5.281   5.199 -0.2135 -0.4084 -0.0129
 4476TIP3    H134919   5.442   5.359   5.195  0.8147 -0.9220  2.2959
 4476TIP3    H234920   5.417   5.226   5.127  0.1245  0.6209 -0.6852
 4477TIP3   OH234921   5.133   2.912   0.695  0.0757  0.3251 -0.2226
 4477TIP3    H134922   5.106   2.878   0.610 -0.6683 -0.0259  0.1339
 4477TIP3    H234923   5.225   2.890   0.703 -0.2196 -1.0230 -0.3009
 4478TIP3   OH234924   2.554   0.951   4.157 -0.1521 -0.5214  0.6148
 4478TIP3    H134925   2.608   0.900   4.217  0.9179 -0.7309 -0.4773
 4478TIP3    H234926   2.601   1.035   4.148  1.1348 -1.4019 -1.8353
 4479TIP3   OH234927   0.290   1.373  11.145  0.1162 -0.2716 -0.1511
 4479TIP3    H134928   0.337   1.355  11.064 -3.1675  0.9051 -2.5400
 4479TIP3    H234929   0.244   1.292  11.165  2.4139 -1.2045  1.7996
 4480TIP3   OH234930   0.821   3.562  17.048 -0.1335 -0.0224 -0.4835
 4480TIP3    H134931   0.748   3.597  17.098 -0.1344 -1.1122  0.3322
 4480TIP3    H234932   0.819   3.468  17.067 -0.1237 -0.4779 -2.5464
 4481TIP3   OH234933   1.175   6.245   3.301  0.2835  0.2835 -0.2206
 4481TIP3    H134934   1.146   6.185   3.233  1.4785  0.4987 -0.9600
 4481TIP3    H234935   1.222   6.314   3.254  1.5373  0.1924  0.8343
 4482TIP3   OH234936   3.063   6.511  14.401  0.2459  0.2181 -0.5443
 4482TIP3    H134937   3.054   6.600  14.435  0.2942 -0.7249  2.1507
 4482TIP3    H234938   2.973   6.480  14.392  0.2166 -0.3118  1.1354
 4483TIP3   OH234939   4.156   4.632  15.250 -0.5142 -0.8415  0.1866
 4483TIP3    H134940   4.155   4.651  15.344 -2.3409 -2.6135  0.6096
 4483TIP3    H234941   4.179   4.539  15.245 -0.0215 -0.6722 -1.1777
 4484TIP3   OH234942   0.272   6.083   4.887  0.0721 -0.3622 -0.0816
 4484TIP3    H134943   0.235   6.153   4.834  0.7522  1.2999  1.5645
 4484TIP3    H234944   0.364   6.078   4.859  0.1920 -0.1504  0.2828
 4485TIP3   OH234945   1.094   2.762   0.425  0.0842  0.0090 -0.2528
 4485TIP3    H134946   1.123   2.696   0.488  1.3804  0.9333  0.1638
 4485TIP3    H234947   1.068   2.711   0.348 -0.8943 -1.0958  0.7642
 4486TIP3   OH234948   5.271   6.376  13.131  0.1981 -0.3909  0.1090
 4486TIP3    H134949   5.216   6.416  13.198 -0.4946 -2.5538  0.9177
 4486TIP3    H234950   5.351   6.349  13.177  1.5963  1.7723 -0.8448
 4487TIP3   OH234951   2.031   1.178   0.875  0.1955 -0.4025  0.4683
 4487TIP3    H134952   2.125   1.194   0.875  0.0644  0.5202 -0.9161
 4487TIP3    H234953   2.002   1.205   0.962  1.3282 -1.6613  1.2802
 4488TIP3   OH234954   2.930   5.503   2.724 -0.0803 -0.5677  0.2394
 4488TIP3    H134955   2.870   5.428   2.721  0.8136 -1.3694 -3.7402
 4488TIP3    H234956   3.017   5.465   2.711  0.6813  0.9997  0.5309
 4489TIP3   OH234957   6.184   4.142   0.209  0.7105 -0.3889  0.1831
 4489TIP3    H134958   6.098   4.144   0.168  1.6027 -1.1193 -1.8561
 4489TIP3    H234959   6.231   4.216   0.171  1.2922 -0.5636  0.5385
 4490TIP3   OH234960   5.342   1.492  16.611  0.3772 -0.4866  0.2918
 4490TIP3    H134961   5.376   1.404  16.595  0.1679 -0.5566  0.2255
 4490TIP3    H234962   5.284   1.481  16.687  1.4803 -0.1317  1.2183
 4491TIP3   OH234963   4.359   6.805  10.584  0.2166  0.0651  0.6715
 4491TIP3    H134964   4.416   6.728  10.581 -0.6447 -0.6522  1.8284
 4491TIP3    H234965   4.419   6.879  10.585  1.1282 -0.6458  1.3774
 4492TIP3   OH234966   0.947   1.789  14.786  0.0606  0.0988  0.1865
 4492TIP3    H134967   0.989   1.707  14.811 -0.0233 -0.5431 -1.6729
 4492TIP3    H234968   1.020   1.850  14.772  0.2241 -0.1921 -0.2403
 4493TIP3   OH234969   2.011   5.224   2.037  0.5246  0.1619  0.0817
 4493TIP3    H134970   2.094   5.265   2.063  0.0473  0.0874  1.9025
 4493TIP3    H234971   2.013   5.139   2.080  0.3470 -0.6843 -1.5195
 4494TIP3   OH234972   4.454   3.628   4.519  0.0889 -0.0599 -0.2761
 4494TIP3    H134973   4.545   3.623   4.488 -0.0002 -0.8953 -0.4423
 4494TIP3    H234974   4.462   3.646   4.612  0.3874  1.3619 -0.5602
 4495TIP3   OH234975   6.465   3.636  16.466 -0.1124 -0.0497  0.6559
 4495TIP3    H134976   6.557   3.609  16.469 -0.0743  0.1523  1.6480
 4495TIP3    H234977   6.442   3.652  16.557 -0.5363  1.9781  0.2250
 4496TIP3   OH234978   3.316   6.154   2.651  0.0995  0.2983  0.1505
 4496TIP3    H134979   3.313   6.103   2.570  1.5289  0.8488 -0.2879
 4496TIP3    H234980   3.409   6.175   2.663 -0.1328  0.5925  1.7140
 4497TIP3   OH234981   2.325   6.595  14.543  0.4386  0.3696 -0.3354
 4497TIP3    H134982   2.327   6.513  14.593 -1.3083  0.6859  0.2977
 4497TIP3    H234983   2.412   6.601  14.504  0.7888 -1.5026  0.0717
 4498TIP3   OH234984   6.649   2.948  11.513 -0.3953  0.0813  0.0763
 4498TIP3    H134985   6.681   2.866  11.550  1.4106  1.4370  1.7947
 4498TIP3    H234986   6.686   2.951  11.424 -0.2222 -0.8321  0.1139
 4499TIP3   OH234987   5.814   4.990  14.938  0.2039 -0.2226 -0.0685
 4499TIP3    H134988   5.720   5.008  14.932 -0.0044 -1.2522 -0.1999
 4499TIP3    H234989   5.849   5.013  14.852 -0.0510 -0.4608 -0.2371
 4500TIP3   OH234990   1.175   2.803   4.948 -0.1022 -0.2942  0.1074
 4500TIP3    H134991   1.095   2.780   4.996 -0.2294 -1.8147 -0.7750
 4500TIP3    H234992   1.242   2.744   4.982  0.4842  0.4516  0.2935
 4501TIP3   OH234993   5.478   1.461   3.002  0.1667  0.3909 -0.0326
 4501TIP3    H134994   5.489   1.415   3.086  0.0863  2.8719  1.4192
 4501TIP3    H234995   5.565   1.495   2.982  0.0562  0.2963 -0.6827
 4502TIP3   OH234996   3.292   6.383   0.434 -0.0141 -0.5447  0.0249
 4502TIP3    H134997   3.207   6.350   0.462 -0.8477  1.0111 -0.5766
 4502TIP3    H234998   3.331   6.419   0.514 -1.1251  1.2083 -0.1601
 4503TIP3   OH234999   0.807   1.171  12.033  0.4642  0.2985 -0.3631
 4503TIP3    H135000   0.877   1.221  12.075  0.8701 -1.0205  0.6085
 4503TIP3    H235001   0.730   1.188  12.087  0.4984  0.2476 -0.2963
 4504TIP3   OH235002   5.498   6.490   1.256 -0.4747  0.1844  0.2065
 4504TIP3    H135003   5.561   6.479   1.327  0.0086  1.0817 -0.0663
 4504TIP3    H235004   5.439   6.559   1.286  1.1802  2.3445 -1.1877
 4505TIP3   OH235005   2.779   2.853   4.414 -0.3575 -1.0053 -0.2183
 4505TIP3    H135006   2.721   2.806   4.354  0.0984 -0.3646 -1.1905
 4505TIP3    H235007   2.847   2.790   4.437 -0.3748 -1.1720 -0.6199
 4506TIP3   OH235008   0.463   3.907   3.448  0.2913  0.2869 -0.9448
 4506TIP3    H135009   0.501   3.853   3.517  0.1574  0.1034 -1.0117
 4506TIP3    H235010   0.386   3.857   3.419  0.3801  0.3363 -1.2623
 4507TIP3   OH235011   0.555   3.659  16.615  0.3811 -0.3651 -0.1839
 4507TIP3    H135012   0.476   3.616  16.649  0.1816 -0.0682 -0.2685
 4507TIP3    H235013   0.583   3.716  16.687  0.6463 -0.6331 -0.0725
 4508TIP3   OH235014   4.477   5.199  14.504 -0.4122  0.1788 -0.0169
 4508TIP3    H135015   4.524   5.264  14.556  1.5338 -1.8594  0.9701
 4508TIP3    H235016   4.432   5.144  14.569 -0.7225 -0.4093 -0.7071
 4509TIP3   OH235017   6.675   2.992  16.517 -0.4270 -0.1881 -0.3761
 4509TIP3    H135018   6.601   3.009  16.459 -1.8500 -1.1379  1.0842
 4509TIP3    H235019   6.672   2.897  16.532 -0.0720  0.0290  1.1905
 4510TIP3   OH235020   1.484   4.587  14.196  0.1040  0.6941  0.0609
 4510TIP3    H135021   1.578   4.582  14.211  0.2803 -0.5095 -1.1788
 4510TIP3    H235022   1.473   4.656  14.132  0.4477 -0.7280 -1.6055
 4511TIP3   OH235023   5.223   1.476  11.425  0.1198 -0.4034 -0.1271
 4511TIP3    H135024   5.175   1.524  11.492 -1.9780 -0.3794 -1.5731
 4511TIP3    H235025   5.309   1.518  11.423  0.1952 -0.2629  2.3484
 4512TIP3   OH235026   4.637   3.809   1.043 -0.2536 -0.1156  0.5404
 4512TIP3    H135027   4.721   3.797   0.999 -0.3747 -0.2213  0.3375
 4512TIP3    H235028   4.598   3.722   1.045 -1.5934  0.3332 -1.8714
 4513TIP3   OH235029   3.695   6.422   3.707  0.4023 -0.2204  0.1890
 4513TIP3    H135030   3.749   6.361   3.658  1.9125  0.9326  0.3426
 4513TIP3    H235031   3.755   6.492   3.733 -1.0758  0.8926  0.7678
 4514TIP3   OH235032   0.271   0.772  11.832  0.2505  0.0167 -0.3930
 4514TIP3    H135033   0.256   0.865  11.821 -1.2992 -0.4576 -3.2384
 4514TIP3    H235034   0.185   0.732  11.819  1.4055 -1.9656 -2.8920
 4515TIP3   OH235035   6.005   3.949   2.512 -0.0105 -0.6067 -1.0778
 4515TIP3    H135036   6.002   3.967   2.606 -1.5149  4.3929 -1.7719
 4515TIP3    H235037   6.097   3.961   2.488  0.0046  0.5364 -0.5196
 4516TIP3   OH235038   6.814   0.068   5.206  0.3946  0.3386  0.3188
 4516TIP3    H135039   6.850   0.018   5.280 -1.2500 -3.3632 -1.1187
 4516TIP3    H235040   6.729   0.097   5.237  0.7587  1.0333  0.6870
 4517TIP3   OH235041   1.581   1.143   5.999 -0.4042  0.1855 -0.5217
 4517TIP3    H135042   1.517   1.159   5.930 -0.4742  3.0461  0.0757
 4517TIP3    H235043   1.652   1.205   5.980  0.3059 -0.1127  1.0402
 4518TIP3   OH235044   2.196   2.296   2.940  0.3241  0.9079 -0.0041
 4518TIP3    H135045   2.154   2.211   2.928  3.7054 -1.1117  0.8477
 4518TIP3    H235046   2.186   2.341   2.857 -1.3337 -0.4279 -0.5686
 4519TIP3   OH235047   2.375   5.394  15.906  0.4877  0.0738  0.3350
 4519TIP3    H135048   2.314   5.328  15.871  1.3562 -0.6594  0.1656
 4519TIP3    H235049   2.459   5.373  15.865  0.9893  0.6959  1.0263
 4520TIP3   OH235050   3.950   5.728  11.491 -0.2473  0.2205  0.2852
 4520TIP3    H135051   4.040   5.715  11.463  0.0241 -0.6709  1.4719
 4520TIP3    H235052   3.903   5.755  11.412  1.1741  1.3439 -0.1984
 4521TIP3   OH235053   6.492   3.199  13.560 -0.2696 -0.3805  0.0249
 4521TIP3    H135054   6.528   3.277  13.602 -1.4971 -0.9597  2.3420
 4521TIP3    H235055   6.568   3.142  13.546  0.4313  0.6187 -0.3750
 4522TIP3   OH235056   6.216   4.803  11.528 -0.2557  0.0688 -0.3163
 4522TIP3    H135057   6.162   4.880  11.547  2.1536  2.0587 -0.8809
 4522TIP3    H235058   6.269   4.791  11.607  1.1021  0.6183 -1.0904
 4523TIP3   OH235059   6.200   5.283  15.446 -0.2032  0.4306 -0.0850
 4523TIP3    H135060   6.260   5.355  15.426 -0.3249  0.8743  1.1282
 4523TIP3    H235061   6.253   5.204  15.434  0.5522  0.8109  0.7333
 4524TIP3   OH235062   1.237   1.359   4.065  0.4359  0.1795  0.0115
 4524TIP3    H135063   1.185   1.285   4.034  0.4849  0.2956 -0.3462
 4524TIP3    H235064   1.245   1.417   3.990 -0.0800  0.8240  0.4392
 4525TIP3   OH235065   1.715   3.417   3.531  0.0076 -0.1160  0.3556
 4525TIP3    H135066   1.765   3.436   3.451 -1.3297 -0.1127 -0.5222
 4525TIP3    H235067   1.764   3.460   3.601  0.0410  1.8457 -0.7976
 4526TIP3   OH235068   5.529   5.157  15.580  0.2181  0.1835  0.4256
 4526TIP3    H135069   5.478   5.086  15.620 -0.4765  0.7783  0.5998
 4526TIP3    H235070   5.593   5.111  15.525 -1.2706 -0.5617 -0.7621
 4527TIP3   OH235071   3.378   2.487   5.442 -0.6956 -0.2627  0.8422
 4527TIP3    H135072   3.423   2.409   5.476 -0.5123 -0.2487  0.6338
 4527TIP3    H235073   3.306   2.502   5.504  0.6837  0.8095  2.2943
 4528TIP3   OH235074   5.209   0.186   0.682  0.0810  0.6424  0.1347
 4528TIP3    H135075   5.250   0.271   0.698 -0.7952  0.8952  1.1237
 4528TIP3    H235076   5.116   0.200   0.703 -0.2657 -0.2849 -0.7077
 4529TIP3   OH235077   1.558   4.536   4.854 -0.4276  0.3006 -0.1195
 4529TIP3    H135078   1.550   4.455   4.904 -3.0398 -0.0253 -0.9309
 4529TIP3    H235079   1.595   4.509   4.770 -0.3745  0.1208 -0.0394
 4530TIP3   OH235080   2.029   3.351  14.117 -0.5873 -0.3104 -0.3804
 4530TIP3    H135081   1.942   3.326  14.147 -0.0768  0.0703  1.4920
 4530TIP3    H235082   2.058   3.276  14.064 -1.3043 -1.2588  0.5421
 4531TIP3   OH235083   5.904   2.826   1.056 -0.3390  0.2060  0.5152
 4531TIP3    H135084   5.810   2.810   1.055 -0.7519  2.2699  1.1253
 4531TIP3    H235085   5.917   2.899   0.995  0.2743  2.3064  2.9269
 4532TIP3   OH235086   1.591   2.388   0.863 -0.1050 -0.0110  0.4547
 4532TIP3    H135087   1.578   2.475   0.825  0.5706  0.7999  1.9992
 4532TIP3    H235088   1.510   2.372   0.913 -2.0958 -2.1213 -3.0436
 4533TIP3   OH235089   6.474   0.644   1.323 -0.0192 -0.0670  0.0599
 4533TIP3    H135090   6.428   0.728   1.323  1.0102  0.6017  2.9705
 4533TIP3    H235091   6.479   0.619   1.230 -1.3837  2.4747 -0.7775
 4534TIP3   OH235092   5.614   2.338   1.372  0.4898  0.4154  0.9064
 4534TIP3    H135093   5.688   2.278   1.376  0.4246 -0.0318 -2.0325
 4534TIP3    H235094   5.537   2.281   1.369  0.3213  0.6779 -0.1784
 4535TIP3   OH235095   3.907   1.823   2.904  0.7449 -0.5398 -0.1113
 4535TIP3    H135096   3.895   1.792   2.994  0.7753 -0.1833  0.0171
 4535TIP3    H235097   3.984   1.775   2.872  1.7777  0.5609  0.6294
 4536TIP3   OH235098   2.564   1.598  16.660  0.4014 -0.0817 -0.2035
 4536TIP3    H135099   2.612   1.661  16.605 -0.8592  0.5672 -0.5952
 4536TIP3    H235100   2.621   1.585  16.736  1.0635  0.8949 -0.5065
 4537TIP3   OH235101   0.513   3.631  14.166 -0.6739  0.3680  0.1469
 4537TIP3    H135102   0.467   3.567  14.220 -0.1486 -0.8455 -0.8013
 4537TIP3    H235103   0.521   3.708  14.223 -2.5748  0.1337  0.8298
 4538TIP3   OH235104   3.957   2.821  14.068  0.3852 -0.7481  0.3535
 4538TIP3    H135105   3.917   2.752  14.122  0.5028 -0.6106  0.6198
 4538TIP3    H235106   4.046   2.790  14.052  0.5629 -0.4805  0.8004
 4539TIP3   OH235107   4.516   2.269   5.311 -0.0806  0.0021 -0.0849
 4539TIP3    H135108   4.440   2.214   5.290 -1.8489  2.2466  0.0988
 4539TIP3    H235109   4.585   2.237   5.252 -1.5276 -1.2774 -1.1839
 4540TIP3   OH235110   0.952   6.595  13.768 -0.1946 -0.0430  0.0295
 4540TIP3    H135111   0.927   6.562  13.854  0.2322 -0.4773 -0.0081
 4540TIP3    H235112   1.013   6.529  13.734 -0.4826  0.0476 -0.6723
 4541TIP3   OH235113   1.996   3.634   2.173  0.0996 -0.1859  0.2036
 4541TIP3    H135114   2.091   3.640   2.185  0.1666 -1.2948  0.3590
 4541TIP3    H235115   1.975   3.544   2.198 -1.0411  0.1438  0.4486
 4542TIP3   OH235116   1.135   1.850  12.567  0.2198  0.3879  0.1815
 4542TIP3    H135117   1.044   1.882  12.565 -0.9170 -2.4393  1.4137
 4542TIP3    H235118   1.139   1.785  12.496  2.1307  2.2330 -1.5534
 4543TIP3   OH235119   2.988   3.734   5.996 -0.6390  0.5572  0.2930
 4543TIP3    H135120   3.041   3.664   6.035 -1.7269  0.4027  1.5977
 4543TIP3    H235121   3.016   3.813   6.041 -0.7563  0.6473  0.2083
 4544TIP3   OH235122   2.765   5.717   2.713  0.1402 -0.4433  0.3825
 4544TIP3    H135123   2.818   5.639   2.733  0.0900 -0.1214  1.8297
 4544TIP3    H235124   2.824   5.791   2.729 -0.0986 -0.1411 -0.1020
 4545TIP3   OH235125   1.123   6.158   3.569  0.2810  0.3694 -0.3843
 4545TIP3    H135126   1.192   6.174   3.633  1.1972 -1.5812 -0.8150
 4545TIP3    H235127   1.137   6.224   3.501  0.4793  1.2398  0.4779
 4546TIP3   OH235128   0.052   0.204   3.047 -0.9660 -0.2076 -0.5613
 4546TIP3    H135129  -0.033   0.200   3.090 -1.2147 -0.3279 -1.0604
 4546TIP3    H235130   0.046   0.142   2.974  0.0107 -1.2372  0.1965
 4547TIP3   OH235131   1.544   5.898  11.957 -0.0905  0.2154  0.4082
 4547TIP3    H135132   1.627   5.850  11.954 -0.3291 -0.1634 -0.4514
 4547TIP3    H235133   1.561   5.970  12.018  0.2363 -0.9986  1.7997
 4548TIP3   OH235134   0.261   6.356  16.655 -0.2461 -0.3108  0.0378
 4548TIP3    H135135   0.283   6.268  16.686  1.1774  0.2948  0.8408
 4548TIP3    H235136   0.194   6.388  16.716  0.8435 -0.0201  1.1244
 4549TIP3   OH235137   1.632   2.346   2.221  0.5557 -0.5453 -0.5330
 4549TIP3    H135138   1.562   2.380   2.166 -1.6503 -1.2758  1.6590
 4549TIP3    H235139   1.626   2.251   2.212  0.5439 -0.6480  0.4957
 4550TIP3   OH235140   1.521   5.740  16.307  0.9449 -0.4128 -0.0532
 4550TIP3    H135141   1.456   5.691  16.257 -0.6170 -0.4662  1.9321
 4550TIP3    H235142   1.484   5.828  16.314 -0.0044 -0.9478  2.8062
 4551TIP3   OH235143   0.775   2.196  13.834  0.0762 -0.3987 -0.0532
 4551TIP3    H135144   0.737   2.161  13.914  0.6102  0.7183  0.7096
 4551TIP3    H235145   0.856   2.146  13.823 -0.2927 -0.9690 -0.2466
 4552TIP3   OH235146   0.036   4.906  13.179  0.1744 -0.0107  0.4081
 4552TIP3    H135147   0.049   4.846  13.106 -0.6758 -1.7986  1.6677
 4552TIP3    H235148  -0.049   4.946  13.161  1.2501  1.7997 -1.0355
 4553TIP3   OH235149   5.387   4.985  13.574 -0.6094 -0.2461  0.3896
 4553TIP3    H135150   5.347   4.995  13.661  2.0763 -0.7620  1.7781
 4553TIP3    H235151   5.446   5.060  13.566 -1.8060  0.5602 -1.6567
 4554TIP3   OH235152   4.563   4.100  13.811 -0.3043  0.1602 -0.2698
 4554TIP3    H135153   4.605   4.173  13.765 -0.9013  0.0577 -1.0140
 4554TIP3    H235154   4.513   4.141  13.881  1.4518  0.2377  0.9833
 4555TIP3   OH235155   2.690   1.238  16.144 -0.1938  0.0488  0.4153
 4555TIP3    H135156   2.645   1.322  16.148 -0.3815  0.0142 -0.5848
 4555TIP3    H235157   2.707   1.225  16.050 -0.9810 -1.4341  0.4448
 4556TIP3   OH235158   1.171   6.044   3.118 -0.0394 -0.0057  0.2583
 4556TIP3    H135159   1.202   6.013   3.032  0.4972  0.1725  0.3794
 4556TIP3    H235160   1.076   6.045   3.110  0.0124  2.2099 -1.1480
 4557TIP3   OH235161   5.502   0.540  16.796  0.9056  0.1295  0.2169
 4557TIP3    H135162   5.454   0.623  16.793  2.5191  1.1521  1.5013
 4557TIP3    H235163   5.525   0.529  16.888 -0.3447 -2.4364  0.3198
 4558TIP3   OH235164   4.233   2.875   3.014  0.4218 -0.4150  0.0926
 4558TIP3    H135165   4.310   2.848   2.964 -0.1564 -0.6124 -0.7133
 4558TIP3    H235166   4.188   2.793   3.034 -0.5260 -0.2039 -1.0265
 4559TIP3   OH235167   0.031   0.857   2.964 -0.2458  0.6853  0.4071
 4559TIP3    H135168   0.093   0.930   2.967 -1.9685  2.2167  0.1729
 4559TIP3    H235169   0.021   0.829   3.055 -0.8374  1.8663  0.7126
 4560TIP3   OH235170   1.522   0.911  16.795  0.6583 -0.4206  1.0239
 4560TIP3    H135171   1.436   0.937  16.761  0.6508 -1.1587  0.4529
 4560TIP3    H235172   1.504   0.838  16.854  0.7240  0.5506  2.2740
 4561TIP3   OH235173   5.548   4.245   0.725  0.4647 -0.0844  0.1824
 4561TIP3    H135174   5.561   4.285   0.639 -0.2759 -0.2810 -0.0253
 4561TIP3    H235175   5.464   4.278   0.755  1.4027  1.2320  1.5385
 4562TIP3   OH235176   5.927   2.717  14.476 -0.1612  0.6037  0.1507
 4562TIP3    H135177   5.846   2.710  14.425 -2.5997  1.1962  3.6496
 4562TIP3    H235178   5.939   2.630  14.514  0.5321  0.6944  0.1579
 4563TIP3   OH235179   5.356   2.145   2.944  0.3422  0.1896 -0.4365
 4563TIP3    H135180   5.442   2.182   2.965  0.7186 -1.3477  0.8783
 4563TIP3    H235181   5.304   2.221   2.916  1.9319  1.2311 -0.7077
 4564TIP3   OH235182   5.207   2.885  16.483 -0.2177 -0.0899 -0.3146
 4564TIP3    H135183   5.295   2.890  16.447 -0.6136  1.1950 -1.1910
 4564TIP3    H235184   5.151   2.863  16.409 -0.5314 -2.1499  0.4656
 4565TIP3   OH235185   1.039   5.517  16.469 -0.0052  0.4214 -0.4116
 4565TIP3    H135186   1.109   5.465  16.508  1.0667  0.9610 -1.5685
 4565TIP3    H235187   0.960   5.463  16.480  0.7494 -0.6213  0.0489
 4566TIP3   OH235188   5.546   1.272  12.427 -0.6362 -0.5352  0.3703
 4566TIP3    H135189   5.476   1.262  12.492 -0.4631 -0.0791  0.6362
 4566TIP3    H235190   5.507   1.244  12.345 -2.1811  2.5785 -0.1246
 4567TIP3   OH235191   2.950   0.664   5.732  0.1607  0.1602 -0.4071
 4567TIP3    H135192   3.012   0.694   5.665  0.3823  1.6793  0.4497
 4567TIP3    H235193   2.908   0.588   5.692  0.7015  0.6731 -2.0487
 4568TIP3   OH235194   6.629   0.773   0.734  0.2456 -0.1634 -1.1662
 4568TIP3    H135195   6.697   0.828   0.773 -0.8662  0.6709 -0.3629
 4568TIP3    H235196   6.566   0.834   0.698  0.1899 -0.9349 -2.4382
 4569TIP3   OH235197   1.168   5.880   1.216  0.5546  0.4040  0.6902
 4569TIP3    H135198   1.140   5.795   1.182  1.9214  0.3662 -0.4483
 4569TIP3    H235199   1.092   5.913   1.263 -1.6540  0.5277 -2.5854
 4570TIP3   OH235200   4.881   1.892  15.596  0.6041 -0.2008 -0.0406
 4570TIP3    H135201   4.837   1.977  15.586  0.7119 -0.1106  0.2282
 4570TIP3    H235202   4.816   1.828  15.570  0.2559 -0.0753  0.4943
 4571TIP3   OH235203   6.724   5.722  12.970  0.4070 -0.0191  0.3904
 4571TIP3    H135204   6.762   5.638  12.943 -0.5499 -0.1453 -0.6363
 4571TIP3    H235205   6.747   5.730  13.063  0.8664 -1.2221  0.4008
 4572TIP3   OH235206   6.607   5.918   6.754  0.8027  0.1313  0.0066
 4572TIP3    H135207   6.662   5.939   6.678  0.3956  1.1941 -0.0087
 4572TIP3    H235208   6.658   5.853   6.803  1.2359 -0.2882 -0.9750
 4573TIP3   OH235209   1.661   2.673  13.682 -0.0063 -0.0379  0.0220
 4573TIP3    H135210   1.607   2.735  13.632  0.3548  0.0631 -0.2428
 4573TIP3    H235211   1.607   2.651  13.758  0.4462  1.7441  0.9007
 4574TIP3   OH235212   4.663   0.392   3.947  0.3110  0.4963  0.4900
 4574TIP3    H135213   4.686   0.465   4.005 -1.3676  1.5945 -0.1468
 4574TIP3    H235214   4.681   0.424   3.859  0.2571 -0.1374  0.2406
 4575TIP3   OH235215   5.513   4.170  12.679  0.1932 -0.3709  0.3867
 4575TIP3    H135216   5.554   4.203  12.759 -0.1465 -1.8509  1.2204
 4575TIP3    H235217   5.455   4.240  12.651  1.0217  0.5462  0.8970
 4576TIP3   OH235218   3.795   2.354  11.329  0.7520 -0.4700 -0.5722
 4576TIP3    H135219   3.783   2.264  11.360  1.6425 -0.1698  0.7518
 4576TIP3    H235220   3.712   2.397  11.348  0.2699 -1.0303 -1.3419
 4577TIP3   OH235221   5.658   2.985  13.392 -0.3859 -0.1767 -0.6668
 4577TIP3    H135222   5.592   3.049  13.420 -0.9294 -1.1151  0.3079
 4577TIP3    H235223   5.676   3.007  13.301 -1.5784  0.5141 -0.7632
 4578TIP3   OH235224   2.051   3.769   1.311  0.1842 -0.2087 -0.0280
 4578TIP3    H135225   2.002   3.754   1.392 -2.3675 -0.6202 -1.5292
 4578TIP3    H235226   2.094   3.685   1.293  0.9133 -0.0608  0.9653
 4579TIP3   OH235227   0.448   5.475  14.869  0.3230  0.6905  0.2877
 4579TIP3    H135228   0.529   5.484  14.818 -0.7221 -1.1701 -1.9104
 4579TIP3    H235229   0.411   5.563  14.871 -0.4054  0.6862 -3.8497
 4580TIP3   OH235230   0.113   3.970   4.938 -0.6618  0.3096 -0.7321
 4580TIP3    H135231   0.207   3.975   4.955 -0.7596  2.8584 -0.5616
 4580TIP3    H235232   0.073   4.008   5.016 -1.8428 -0.4137 -0.9612
 4581TIP3   OH235233   1.193   6.685   3.212 -0.3720  0.0777  0.3935
 4581TIP3    H135234   1.223   6.655   3.297  1.2271 -0.7653 -0.4224
 4581TIP3    H235235   1.216   6.778   3.209 -0.3524  0.0876  0.8435
 4582TIP3   OH235236   5.193   1.137   4.708  0.1369  0.3880  0.6521
 4582TIP3    H135237   5.127   1.098   4.651 -0.3832  1.6829  0.3340
 4582TIP3    H235238   5.151   1.138   4.795  0.9605 -1.6587  1.1209
 4583TIP3   OH235239   0.957   4.619   0.732 -0.2142 -0.5369 -0.1250
 4583TIP3    H135240   0.978   4.559   0.660 -0.1941  0.9320 -1.3926
 4583TIP3    H235241   0.998   4.579   0.809  0.2601 -1.8603 -1.0260
 4584TIP3   OH235242   1.401   4.083   3.223  0.7687 -0.0554  0.1974
 4584TIP3    H135243   1.472   4.077   3.288 -0.4257  0.0291  1.5726
 4584TIP3    H235244   1.350   4.159   3.251 -1.1102 -1.3906  0.5973
 4585TIP3   OH235245   2.155   2.487  12.056 -0.3222 -0.0400  0.3304
 4585TIP3    H135246   2.211   2.528  11.990 -0.7290  0.8209  0.5037
 4585TIP3    H235247   2.216   2.450  12.120  0.0858 -1.0820 -0.6196
 4586TIP3   OH235248   1.403   4.647   5.785 -0.3605  0.1341  0.0813
 4586TIP3    H135249   1.433   4.676   5.871 -1.1634  1.9385 -0.2022
 4586TIP3    H235250   1.405   4.726   5.731 -0.9948 -0.7170 -1.2336
 4587TIP3   OH235251   2.894   3.132   6.568 -0.1330  0.5073 -0.0927
 4587TIP3    H135252   2.952   3.097   6.500 -0.3065 -0.1761  0.0966
 4587TIP3    H235253   2.925   3.221   6.583  2.1613 -0.4422  1.3703
 4588TIP3   OH235254   2.998   1.987   3.241  0.3084  0.0440 -0.5003
 4588TIP3    H135255   2.997   1.977   3.336  1.0178  1.9096 -0.2363
 4588TIP3    H235256   2.957   1.908   3.207  0.8983 -1.0803  1.3145
 4589TIP3   OH235257   5.279   4.170   5.202 -0.0693  0.2748  0.2252
 4589TIP3    H135258   5.354   4.203   5.251 -0.3184 -0.8774  1.4193
 4589TIP3    H235259   5.310   4.164   5.111  0.9531  0.7673  0.5320
 4590TIP3   OH235260   3.657   1.311   3.372 -0.2011 -0.0308 -0.0827
 4590TIP3    H135261   3.626   1.251   3.305 -1.2538 -1.1756  1.3729
 4590TIP3    H235262   3.747   1.332   3.345 -0.5218 -0.5857 -1.7217
 4591TIP3   OH235263   1.859   5.899   5.146  0.1339  0.4220  0.1489
 4591TIP3    H135264   1.885   5.818   5.103  0.3421  0.3685  0.3729
 4591TIP3    H235265   1.769   5.882   5.176  0.4933 -0.0629  1.0024
 4592TIP3   OH235266   0.038   6.699  14.008 -1.0212 -0.6310 -0.2497
 4592TIP3    H135267  -0.042   6.652  13.986 -1.1332 -0.2632 -0.6403
 4592TIP3    H235268   0.069   6.657  14.088 -0.8526 -1.6984 -0.8468
 4593TIP3   OH235269   5.551   3.386   4.364 -0.4031 -0.1364 -0.1140
 4593TIP3    H135270   5.544   3.364   4.457  2.4887  0.3018  0.2986
 4593TIP3    H235271   5.594   3.310   4.324  0.8038  0.7275 -0.5369
 4594TIP3   OH235272   3.414   4.612   5.289 -0.1871  0.1186  0.1856
 4594TIP3    H135273   3.449   4.560   5.216 -0.1945 -0.7890  0.8066
 4594TIP3    H235274   3.324   4.631   5.264 -0.6062 -1.3003  0.5097
 4595TIP3   OH235275   5.384   5.494  14.465  0.4625  0.1175 -0.2227
 4595TIP3    H135276   5.426   5.434  14.527 -0.0984 -0.5079 -0.4349
 4595TIP3    H235277   5.457   5.538  14.421  1.1183 -3.1483 -2.7817
 4596TIP3   OH235278   2.789   4.211  13.326 -0.5727 -0.2183  0.7258
 4596TIP3    H135279   2.754   4.124  13.344 -0.1205 -0.0652  2.5324
 4596TIP3    H235280   2.713   4.264  13.304 -0.9463 -0.8711  0.4075
 4597TIP3   OH235281   1.022   4.466   4.566  0.1256 -0.5475 -0.1629
 4597TIP3    H135282   1.082   4.459   4.640 -0.9057  0.5773  0.8278
 4597TIP3    H235283   1.074   4.440   4.490  1.9718  0.7011  0.5923
 4598TIP3   OH235284   3.724   1.940   0.009  0.1573 -0.1056  0.3573
 4598TIP3    H135285   3.707   1.859   0.057 -1.3910  0.1853  0.3464
 4598TIP3    H235286   3.659   2.002   0.042  1.3741  1.1810  0.4410
 4599TIP3   OH235287   5.741   4.939  15.629  0.6971  0.2759  0.5480
 4599TIP3    H135288   5.796   4.897  15.695  1.6152  0.6878  0.0635
 4599TIP3    H235289   5.803   4.984  15.571 -0.2027  1.5665  0.5454
 4600TIP3   OH235290   3.145   2.518   4.907  0.3460  0.3787 -0.3473
 4600TIP3    H135291   3.174   2.433   4.941 -1.8165 -0.5689 -0.6755
 4600TIP3    H235292   3.138   2.505   4.812 -0.3091  0.8127 -0.3651
 4601TIP3   OH235293   4.507   4.003   6.771 -0.8206  0.4710  0.0927
 4601TIP3    H135294   4.450   3.960   6.708 -0.3347 -0.1818  0.0861
 4601TIP3    H235295   4.448   4.055   6.825 -1.2568  0.9258 -0.8041
 4602TIP3   OH235296   2.386   4.008   5.544 -0.5592 -0.4325  0.4531
 4602TIP3    H135297   2.331   4.029   5.620  0.0487 -1.1800  1.1126
 4602TIP3    H235298   2.473   4.038   5.569 -0.6396  0.7307 -0.5832
 4603TIP3   OH235299   1.329   5.865  17.220 -0.4008 -0.0646 -0.0235
 4603TIP3    H135300   1.353   5.911  17.139  0.6190  0.9852  0.8386
 4603TIP3    H235301   1.397   5.891  17.282 -0.7231 -1.4929  0.9513
 4604TIP3   OH235302   4.430   5.070   4.983 -0.0653 -0.3336 -0.1505
 4604TIP3    H135303   4.408   5.105   4.897 -0.3512  0.9969  0.4284
 4604TIP3    H235304   4.391   4.983   4.985 -2.2414  0.5562 -0.4913
 4605TIP3   OH235305   0.839   3.631   5.700 -0.9509 -0.2814 -0.1548
 4605TIP3    H135306   0.917   3.662   5.745 -1.9366  0.9457  0.7897
 4605TIP3    H235307   0.803   3.709   5.658 -0.7813 -1.1443 -2.0240
 4606TIP3   OH235308   2.359   6.205  15.227  0.2526 -0.5488 -0.1011
 4606TIP3    H135309   2.321   6.123  15.258 -0.5807 -0.6890 -1.4192
 4606TIP3    H235310   2.428   6.225  15.291  1.4397 -2.9724 -0.5165
 4607TIP3   OH235311   3.968   6.263   3.186 -0.2835  0.1999 -0.0518
 4607TIP3    H135312   3.934   6.222   3.107 -0.9219  0.1173  0.2670
 4607TIP3    H235313   4.036   6.323   3.154  0.5826 -1.0018 -0.5317
 4608TIP3   OH235314   6.303   1.469   5.119  0.3181 -0.0992  0.8199
 4608TIP3    H135315   6.330   1.554   5.085 -1.3760  0.3135  0.4659
 4608TIP3    H235316   6.212   1.480   5.145 -0.2915 -2.0856 -0.2200
 4609TIP3   OH235317   3.796   2.746   5.278  0.0126  0.1101 -0.6779
 4609TIP3    H135318   3.703   2.751   5.301  0.1966 -1.5072  0.5858
 4609TIP3    H235319   3.808   2.814   5.211 -1.1869  3.2700  2.0522
 4610TIP3   OH235320   0.228   3.946   1.696  0.2218  0.7718  0.4615
 4610TIP3    H135321   0.214   3.858   1.660  0.6094  1.7258 -2.2116
 4610TIP3    H235322   0.146   3.992   1.681  0.9670  1.7193 -0.9283
 4611TIP3   OH235323   0.500   1.681  12.285  0.0500 -0.2795 -0.3885
 4611TIP3    H135324   0.456   1.597  12.272  2.0855 -1.3076 -0.9867
 4611TIP3    H235325   0.487   1.729  12.204 -0.2379 -0.4427 -0.4376
 4612TIP3   OH235326   4.847   5.815   1.722  0.0200 -0.1167 -0.6432
 4612TIP3    H135327   4.890   5.735   1.692  0.6322  0.5342 -1.5570
 4612TIP3    H235328   4.915   5.863   1.769 -0.0193  0.3834 -1.0831
 4613TIP3   OH235329   2.278   2.615   0.388  0.4711 -0.0153 -0.2256
 4613TIP3    H135330   2.244   2.656   0.309  0.4720  1.7058  0.6202
 4613TIP3    H235331   2.220   2.541   0.403 -0.0706  0.1537 -1.3424
 4614TIP3   OH235332   0.848   2.831  13.375  0.6166 -0.2955 -0.2207
 4614TIP3    H135333   0.899   2.859  13.298  0.7378 -0.6317 -0.2651
 4614TIP3    H235334   0.771   2.887  13.374  1.8192  1.4961  0.8635
 4615TIP3   OH235335   0.324   0.827  12.240 -0.1492  0.0711  0.2143
 4615TIP3    H135336   0.299   0.843  12.331  0.3241  0.8931  0.2042
 4615TIP3    H235337   0.297   0.736  12.224 -1.1154  0.2197  0.8696
 4616TIP3   OH235338   1.032   1.365   6.734 -0.5856 -0.0151 -0.0621
 4616TIP3    H135339   1.084   1.301   6.684  0.5164 -0.3799  1.4906
 4616TIP3    H235340   1.010   1.432   6.670  0.5441 -0.6057 -1.1275
 4617TIP3   OH235341   0.653   0.148  11.212 -0.1268  0.0039  0.3600
 4617TIP3    H135342   0.717   0.094  11.165 -0.0010 -0.4979  1.0999
 4617TIP3    H235343   0.592   0.085  11.250  0.4084  0.3247  1.8130
 4618TIP3   OH235344   6.599   2.457   1.555  0.0614 -0.1259 -0.6342
 4618TIP3    H135345   6.581   2.468   1.649  0.0713 -1.5539 -0.4407
 4618TIP3    H235346   6.527   2.402   1.524 -0.5359  1.2254 -1.7201
 4619TIP3   OH235347   4.387   2.200  14.120  0.0326 -0.4066  0.0788
 4619TIP3    H135348   4.406   2.230  14.210 -0.9939  0.2421  0.0940
 4619TIP3    H235349   4.401   2.106  14.123  2.7329 -0.0827  0.1983
 4620TIP3   OH235350   3.831   2.311   2.257 -0.0152 -0.4091  0.1989
 4620TIP3    H135351   3.764   2.274   2.314 -1.5770 -1.2227 -2.0020
 4620TIP3    H235352   3.811   2.274   2.170  1.6116  1.4970 -1.0775
 4621TIP3   OH235353   3.645   1.817  16.549 -0.2036  0.3201 -0.3437
 4621TIP3    H135354   3.556   1.794  16.524 -0.6450 -1.1153  2.2019
 4621TIP3    H235355   3.700   1.757  16.499 -0.6805  0.8882 -1.5750
 4622TIP3   OH235356   6.134   2.780   5.763 -0.1161 -0.4431  0.3530
 4622TIP3    H135357   6.078   2.817   5.831  0.9691  0.2552  0.8917
 4622TIP3    H235358   6.073   2.757   5.692 -1.1817 -0.5900  1.2860
 4623TIP3   OH235359   5.744   2.044  15.173  0.7123 -0.7713  0.2438
 4623TIP3    H135360   5.768   1.954  15.150 -2.5497 -1.9363  0.8787
 4623TIP3    H235361   5.721   2.040  15.266 -0.5568  0.4276  0.0219
 4624TIP3   OH235362   1.380   5.687   0.164  0.2366 -0.1674 -0.0787
 4624TIP3    H135363   1.312   5.697   0.231  0.4285 -0.6777  0.1992
 4624TIP3    H235364   1.355   5.749   0.096  0.0663  0.4065  0.4872
 4625TIP3   OH235365   5.974   3.097  14.818 -0.3091 -0.0959  0.4225
 4625TIP3    H135366   5.923   3.121  14.741  0.9698  1.2033 -0.0664
 4625TIP3    H235367   6.003   3.180  14.854  0.0212 -0.7364  1.7019
 4626TIP3   OH235368   5.975   3.601  12.562  0.2906  0.4310  0.7687
 4626TIP3    H135369   6.003   3.576  12.474  0.8851 -1.2710  1.3896
 4626TIP3    H235370   6.019   3.539  12.619 -1.2760  0.5216  2.1619
 4627TIP3   OH235371   1.515   3.152   5.299  0.3140 -0.2340  0.4790
 4627TIP3    H135372   1.563   3.109   5.229  0.8648  1.7771 -0.4709
 4627TIP3    H235373   1.425   3.123   5.290  0.5551 -0.6857 -0.5023
 4628TIP3   OH235374   4.736   3.543  16.301 -0.3140  1.0861  0.2412
 4628TIP3    H135375   4.769   3.467  16.349 -3.0784 -0.2671  0.2275
 4628TIP3    H235376   4.755   3.523  16.209 -0.7773  0.5159  0.2621
 4629TIP3   OH235377   1.301   4.655   4.176 -0.0941 -0.3182 -0.1608
 4629TIP3    H135378   1.223   4.600   4.181 -0.6880  0.5394  0.3692
 4629TIP3    H235379   1.327   4.670   4.267  0.7333 -0.6416 -0.3300
 4630TIP3   OH235380   6.232   0.821   2.973 -0.5607 -0.2819  0.3297
 4630TIP3    H135381   6.172   0.872   2.920 -0.4952  0.6583  1.1301
 4630TIP3    H235382   6.184   0.741   2.995 -0.6933 -0.5472 -0.8673
 4631TIP3   OH235383   3.165   3.512   2.860 -0.1066  0.1324  0.2980
 4631TIP3    H135384   3.195   3.524   2.770  1.0501 -0.2423  0.6065
 4631TIP3    H235385   3.139   3.599   2.889  1.0903  0.5749  0.1192
 4632TIP3   OH235386   6.159   0.988   0.557  0.1749  0.4973  0.0296
 4632TIP3    H135387   6.076   0.942   0.568  0.7528 -0.9372 -1.1953
 4632TIP3    H235388   6.138   1.079   0.575 -1.0169 -0.1788  2.6134
 4633TIP3   OH235389   4.413   6.396  13.520  0.0521 -0.2550  0.2747
 4633TIP3    H135390   4.357   6.465  13.555  0.8469  0.2310  0.6052
 4633TIP3    H235391   4.396   6.397  13.425  0.1709  0.5042  0.2567
 4634TIP3   OH235392   2.324   4.881   2.841 -0.0245  0.4241 -0.6473
 4634TIP3    H135393   2.337   4.972   2.866 -0.3665  0.9362 -2.2374
 4634TIP3    H235394   2.396   4.861   2.782  0.4463 -0.5709  0.2256
 4635TIP3   OH235395   1.111   6.015   2.690 -0.8180  0.2831  0.3106
 4635TIP3    H135396   1.110   5.928   2.731  0.8090 -0.8630 -1.8900
 4635TIP3    H235397   1.122   6.076   2.764 -1.7022 -1.3472  1.8740
 4636TIP3   OH235398   1.014   5.291  13.023  0.2444  0.1133  0.4862
 4636TIP3    H135399   1.017   5.234  12.946 -0.7146  1.3216 -0.4701
 4636TIP3    H235400   1.096   5.341  13.018  0.1168  0.2958  0.1574
 4637TIP3   OH235401   0.828   6.146   4.152  0.4315  0.1723  0.1910
 4637TIP3    H135402   0.748   6.119   4.106 -0.0550 -0.0918  1.1722
 4637TIP3    H235403   0.898   6.098   4.108 -0.0173 -0.0519 -0.2951
 4638TIP3   OH235404   5.824   2.605  11.403  0.0144  0.0312 -0.2001
 4638TIP3    H135405   5.876   2.530  11.373 -0.8582 -0.0202 -1.6770
 4638TIP3    H235406   5.882   2.680  11.394 -0.2057  0.0176 -2.1121
 4639TIP3   OH235407   1.891   1.542  12.044 -0.1804  0.1452 -0.1712
 4639TIP3    H135408   1.870   1.566  12.135  2.0024 -2.3848  1.1510
 4639TIP3    H235409   1.973   1.587  12.026  0.7901 -1.4207  0.1510
 4640TIP3   OH235410   5.612   4.638   3.515  0.0733  0.4119  0.4264
 4640TIP3    H135411   5.626   4.717   3.567  0.5044 -1.2505  3.0446
 4640TIP3    H235412   5.689   4.584   3.533 -0.6540 -1.0001 -0.5276
 4641TIP3   OH235413   5.071   2.223   5.287 -0.1207 -0.0785  0.4217
 4641TIP3    H135414   5.075   2.171   5.367  0.5905 -0.3150  0.2389
 4641TIP3    H235415   4.992   2.192   5.242 -1.0421  0.6909  1.4530
 4642TIP3   OH235416   2.721   5.416  15.823 -0.3491  0.2494  0.6056
 4642TIP3    H135417   2.679   5.330  15.818 -1.7680  0.7168  2.9698
 4642TIP3    H235418   2.812   5.400  15.796 -1.1577 -1.4847 -1.3047
 4643TIP3   OH235419   6.796   6.136  12.359 -0.2615  0.1679  1.0716
 4643TIP3    H135420   6.813   6.070  12.426 -2.1709 -2.9964 -1.2795
 4643TIP3    H235421   6.701   6.136  12.349 -0.0570  0.5861 -1.5096
 4644TIP3   OH235422   3.610   2.038   1.046 -0.1935 -0.1697 -0.4159
 4644TIP3    H135423   3.690   2.091   1.040 -0.0988 -0.2963 -0.2694
 4644TIP3    H235424   3.618   1.976   0.973 -0.6811  0.5270 -1.0747
 4645TIP3   OH235425   2.287   6.663   1.801  0.0309  0.0735  0.0178
 4645TIP3    H135426   2.196   6.684   1.779 -0.1813 -0.9521 -0.1749
 4645TIP3    H235427   2.339   6.700   1.730 -0.4019 -0.7547 -0.7555
 4646TIP3   OH235428   1.957   4.709  10.725  0.5257  0.0645 -0.1776
 4646TIP3    H135429   2.043   4.748  10.709  0.5405  1.3264  2.3296
 4646TIP3    H235430   1.911   4.775  10.777 -2.3474 -0.1727 -2.2119
 4647TIP3   OH235431   6.419   2.400  15.414 -0.3940  0.3826  0.0505
 4647TIP3    H135432   6.438   2.489  15.385 -1.7823  1.1235  1.2593
 4647TIP3    H235433   6.471   2.389  15.493  2.5839 -1.2572 -1.9582
 4648TIP3   OH235434   4.660   2.813   4.530  0.3754 -0.0068 -0.1342
 4648TIP3    H135435   4.742   2.765   4.518  0.1944  0.2040 -3.0354
 4648TIP3    H235436   4.685   2.905   4.522  0.2176  0.2646  1.9398
 4649TIP3   OH235437   6.692   1.067   0.443  0.6793  0.1266 -0.1555
 4649TIP3    H135438   6.773   1.017   0.447  1.1213  0.9055  1.3578
 4649TIP3    H235439   6.679   1.099   0.532 -0.9589  0.5556 -0.5078
 4650TIP3   OH235440   4.584   3.690  10.851  0.2243  0.1400  0.5439
 4650TIP3    H135441   4.500   3.649  10.874  0.4096 -0.3498  0.3615
 4650TIP3    H235442   4.642   3.617  10.831  0.8318  0.4584  1.0906
 4651TIP3   OH235443   6.740   6.575  14.984 -0.3570 -0.1787 -0.0035
 4651TIP3    H135444   6.656   6.544  15.018 -1.1771  0.1655 -1.6147
 4651TIP3    H235445   6.737   6.670  14.995  0.1340 -0.2113  0.5333
 4652TIP3   OH235446   3.209   0.954   0.478 -0.1993  0.7382  0.4569
 4652TIP3    H135447   3.203   1.046   0.504 -1.3939  0.3307  1.6897
 4652TIP3    H235448   3.301   0.932   0.492 -0.1478  1.4260  1.2871
 4653TIP3   OH235449   3.549   6.442   5.435  0.5515 -0.2994 -0.2386
 4653TIP3    H135450   3.565   6.535   5.452  0.7340 -0.3743 -0.0052
 4653TIP3    H235451   3.559   6.433   5.340  1.1569 -0.1982 -0.1860
 4654TIP3   OH235452   6.150   2.917   3.895 -0.2777  0.3953 -0.2906
 4654TIP3    H135453   6.180   2.838   3.851  2.0114  0.6599  0.6747
 4654TIP3    H235454   6.228   2.972   3.903 -1.4589  2.0575  0.5519
 4655TIP3   OH235455   6.174   1.975  13.347 -0.0753  0.0806 -0.0611
 4655TIP3    H135456   6.089   1.991  13.389 -0.8081 -2.0421 -0.6018
 4655TIP3    H235457   6.178   1.880  13.336  1.5710  0.2757 -1.7223
 4656TIP3   OH235458   1.109   0.862   4.352  0.0295  0.4172 -0.3710
 4656TIP3    H135459   1.082   0.778   4.391 -2.3480  1.0985 -0.3883
 4656TIP3    H235460   1.135   0.840   4.262 -2.4695 -0.1265 -1.0368
 4657TIP3   OH235461   0.299   6.733  12.129  0.2613  0.1520  0.7674
 4657TIP3    H135462   0.373   6.699  12.181  0.5484 -0.4804 -0.0290
 4657TIP3    H235463   0.312   6.695  12.042  0.0494  1.5581  0.0924
 4658TIP3   OH235464   0.803   4.976  15.303  0.1752 -0.0121 -0.4111
 4658TIP3    H135465   0.805   4.881  15.289  1.7914 -0.1287  0.3070
 4658TIP3    H235466   0.749   4.988  15.381  1.1459 -0.5182  0.3755
 4659TIP3   OH235467   5.261   5.783   0.026 -0.0434 -0.4710 -1.1313
 4659TIP3    H135468   5.195   5.851   0.028 -0.8338 -1.2263  0.6702
 4659TIP3    H235469   5.261   5.752  -0.065 -1.5236  0.1327 -1.3591
 4660TIP3   OH235470   6.423   6.328  13.122  0.3024  0.6894  0.5275
 4660TIP3    H135471   6.443   6.420  13.140  1.2064  0.6537 -0.2329
 4660TIP3    H235472   6.414   6.288  13.209  2.6290  0.9427  0.9567
 4661TIP3   OH235473   0.436   3.282   3.392  0.1818 -0.5332  0.0746
 4661TIP3    H135474   0.507   3.329   3.348  1.6648 -0.6890  2.1222
 4661TIP3    H235475   0.466   3.192   3.397 -0.8537 -0.9073 -0.3379
 4662TIP3   OH235476   3.816   5.359  14.850  0.3118 -0.1316  0.0857
 4662TIP3    H135477   3.763   5.347  14.929 -1.3395  2.5644 -0.5135
 4662TIP3    H235478   3.764   5.321  14.780 -0.3826  1.5232 -0.3353
 4663TIP3   OH235479   4.091   5.638   0.252 -0.1227 -0.0900  0.8829
 4663TIP3    H135480   4.030   5.588   0.305  0.7991 -0.3999  1.6765
 4663TIP3    H235481   4.100   5.588   0.171 -2.0164  0.7041  0.1360
 4664TIP3   OH235482   0.314   6.759   3.664  0.2114 -0.4099  0.3368
 4664TIP3    H135483   0.317   6.665   3.644 -1.7319 -0.8131  1.5922
 4664TIP3    H235484   0.270   6.763   3.750 -0.0812  1.6636  0.1291
 4665TIP3   OH235485   5.754   6.286   5.244  0.4469  0.4827  0.4250
 4665TIP3    H135486   5.817   6.340   5.292  0.8938 -1.4212  2.1227
 4665TIP3    H235487   5.807   6.215   5.208 -0.3276  0.3851 -0.5487
 4666TIP3   OH235488   4.185   3.306  12.028 -0.1137 -0.0606 -0.6787
 4666TIP3    H135489   4.246   3.370  12.065  0.0653 -0.3145 -0.5356
 4666TIP3    H235490   4.223   3.285  11.942  0.3111 -0.6548 -0.3471
 4667TIP3   OH235491   3.654   5.212  12.858 -0.2033  0.2034  0.2432
 4667TIP3    H135492   3.673   5.181  12.769  0.0214 -2.1615  1.0473
 4667TIP3    H235493   3.704   5.293  12.866  0.9356 -0.2936 -1.3164
 4668TIP3   OH235494   1.003   0.530   2.652  0.4668 -0.0803  0.0733
 4668TIP3    H135495   1.061   0.603   2.631 -1.9779  2.5752  1.8236
 4668TIP3    H235496   0.946   0.523   2.576  1.4808 -1.1328 -0.6392
 4669TIP3   OH235497   6.283   0.965  16.235  0.9029 -0.7327  0.5885
 4669TIP3    H135498   6.195   0.943  16.203  0.5342  0.2084  0.9232
 4669TIP3    H235499   6.316   1.030  16.173  2.3038 -2.6936 -0.8472
 4670TIP3   OH235500   6.162   6.597  13.174  0.4810  0.5232 -0.4497
 4670TIP3    H135501   6.072   6.628  13.178  0.4200  0.3183 -0.1696
 4670TIP3    H235502   6.156   6.507  13.144  0.2705 -0.7291  2.9151
 4671TIP3   OH235503   5.373   0.923   1.749 -0.3422 -0.1848 -0.2540
 4671TIP3    H135504   5.435   0.933   1.821 -0.3522  2.7500 -0.5554
 4671TIP3    H235505   5.422   0.950   1.671 -0.9708 -1.2748 -1.0543
 4672TIP3   OH235506   4.886   3.365  12.345 -0.2276 -0.2266  0.3109
 4672TIP3    H135507   4.845   3.330  12.266 -0.2876  1.3370 -0.3946
 4672TIP3    H235508   4.965   3.312  12.356  0.1058 -0.0841 -1.1688
 4673TIP3   OH235509   3.743   5.988  17.269  0.0895 -0.9875  0.3994
 4673TIP3    H135510   3.686   6.024  17.337  0.4638  1.5867 -0.5011
 4673TIP3    H235511   3.684   5.947  17.207 -1.0306  2.2160 -0.8707
 4674TIP3   OH235512   0.001   2.077   4.472  0.2774 -0.1205 -0.1354
 4674TIP3    H135513   0.032   2.066   4.382  0.4544  3.8490 -0.7723
 4674TIP3    H235514   0.079   2.064   4.526  0.9039  0.3929 -0.8828
 4675TIP3   OH235515   1.979   6.477   2.473  0.3075 -0.5093  0.3360
 4675TIP3    H135516   1.986   6.560   2.520  0.5567  1.2245 -2.5695
 4675TIP3    H235517   2.069   6.452   2.454  0.2136 -1.2750  0.8314
 4676TIP3   OH235518   6.631   5.270   4.866  0.0712  0.5386  0.3708
 4676TIP3    H135519   6.684   5.314   4.933  0.6166  0.4723 -0.0175
 4676TIP3    H235520   6.633   5.329   4.791  0.5087  0.0318 -0.0289
 4677TIP3   OH235521   2.000   5.481  14.523  0.3234 -0.2868 -0.1217
 4677TIP3    H135522   1.930   5.470  14.587  1.9849 -4.2066  1.3844
 4677TIP3    H235523   1.985   5.567  14.484 -2.8004  0.8298  3.0592
 4678TIP3   OH235524   0.249   5.831   5.940 -0.5352  0.6245  0.0009
 4678TIP3    H135525   0.323   5.829   6.000 -0.0275 -0.4043 -0.6291
 4678TIP3    H235526   0.242   5.922   5.913  2.2573  0.3699 -2.0091
 4679TIP3   OH235527   0.261   0.450   4.582 -0.0246  0.6557  0.3139
 4679TIP3    H135528   0.264   0.365   4.537  3.6196  0.6859  0.2014
 4679TIP3    H235529   0.187   0.496   4.541 -1.1518 -1.8360 -0.6980
 4680TIP3   OH235530   2.316   3.381   5.318  0.1201  0.1081  0.3632
 4680TIP3    H135531   2.361   3.434   5.384 -1.0043  0.7802  0.6175
 4680TIP3    H235532   2.232   3.359   5.359  0.8333 -2.5751  0.5924
 4681TIP3   OH235533   3.061   6.290   0.548 -0.8367 -0.1191  0.3267
 4681TIP3    H135534   2.971   6.315   0.567 -1.1328 -1.0477  0.1719
 4681TIP3    H235535   3.105   6.292   0.633 -1.5205 -1.6973  0.7455
 4682TIP3   OH235536   5.577   6.541  13.581  0.1108 -0.1735 -0.3908
 4682TIP3    H135537   5.599   6.633  13.589  1.1387 -0.4360 -0.0469
 4682TIP3    H235538   5.610   6.501  13.661 -5.6484  0.0554  2.6576
 4683TIP3   OH235539   4.809   5.230  12.405 -0.0770  0.0646 -0.0280
 4683TIP3    H135540   4.760   5.189  12.334  1.3611 -0.8867 -0.5083
 4683TIP3    H235541   4.803   5.168  12.478 -1.6348  1.0833  0.7672
 4684TIP3   OH235542   3.863   0.368   5.657 -0.2036 -0.4582  0.6252
 4684TIP3    H135543   3.829   0.299   5.601  0.4647  0.3503 -0.8455
 4684TIP3    H235544   3.886   0.439   5.596 -0.4599  0.8800  2.0341
 4685TIP3   OH235545   5.886   2.075   3.157  0.4594  0.4468  0.4952
 4685TIP3    H135546   5.827   2.015   3.203  1.1553  0.0578  0.8844
 4685TIP3    H235547   5.967   2.073   3.207  0.8043  1.0033 -0.0227
 4686TIP3   OH235548   2.927   4.243   4.513 -0.0443  0.0177  0.2743
 4686TIP3    H135549   3.015   4.215   4.488  0.1382  1.4684 -0.8529
 4686TIP3    H235550   2.936   4.277   4.602  0.3640 -0.5394  0.4527
 4687TIP3   OH235551   5.083   3.441   3.243 -0.3167 -0.1519 -0.4626
 4687TIP3    H135552   5.167   3.396   3.248 -0.0505  0.4477  0.8196
 4687TIP3    H235553   5.021   3.380   3.285 -0.1104  0.3105  0.5299
 4688TIP3   OH235554   0.832   3.104   0.976  0.1475 -0.2938 -0.3480
 4688TIP3    H135555   0.890   3.131   0.904 -0.0199  1.7538  0.2200
 4688TIP3    H235556   0.872   3.024   1.010  2.7014  1.0221  0.0387
 4689TIP3   OH235557   2.325   0.823   5.105  0.4317  0.2690  0.3846
 4689TIP3    H135558   2.380   0.847   5.031  0.3464  1.8583  0.8124
 4689TIP3    H235559   2.376   0.847   5.182  0.3876 -1.0666  0.8650
 4690TIP3   OH235560   6.625   0.649  11.468  0.0703  0.2957 -0.6551
 4690TIP3    H135561   6.707   0.600  11.458  2.1092  3.2324  0.4936
 4690TIP3    H235562   6.607   0.684  11.381  0.3072  0.0568 -0.8012
 4691TIP3   OH235563   0.205   1.505   5.830  0.3709  0.3188  0.2494
 4691TIP3    H135564   0.138   1.447   5.795  1.8359 -0.0003 -2.2158
 4691TIP3    H235565   0.158   1.586   5.853 -0.9678 -0.1612 -0.7045
 4692TIP3   OH235566   0.132   4.644   3.854  0.6529  0.5171 -0.0698
 4692TIP3    H135567   0.083   4.700   3.793  0.6190  0.8258  0.2365
 4692TIP3    H235568   0.130   4.692   3.937  0.3570 -0.0845  0.2800
 4693TIP3   OH235569   1.647   3.657   4.586  0.5446  0.2155 -0.3038
 4693TIP3    H135570   1.730   3.613   4.601 -0.0261  0.0759  3.4399
 4693TIP3    H235571   1.588   3.621   4.652 -1.6385  2.4697 -0.8456
 4694TIP3   OH235572   3.242   1.111  10.911  0.1727 -0.6409 -0.1823
 4694TIP3    H135573   3.171   1.121  10.974  0.5125 -0.4437  0.1693
 4694TIP3    H235574   3.238   1.019  10.885  0.5362 -0.9201  0.7329
 4695TIP3   OH235575   3.529   3.532  12.191 -0.2423 -0.3310  0.3320
 4695TIP3    H135576   3.540   3.451  12.241 -0.2275 -0.9340 -0.6222
 4695TIP3    H235577   3.612   3.544  12.146 -0.0740  0.4912  0.8557
 4696TIP3   OH235578   1.535   0.291   0.254  0.5628  0.2390 -0.0560
 4696TIP3    H135579   1.507   0.268   0.165  0.7915 -0.4843  0.0484
 4696TIP3    H235580   1.595   0.365   0.242 -0.7757  1.3197 -0.3400
 4697TIP3   OH235581   2.163   0.491  13.534  0.0299 -0.2338 -0.1569
 4697TIP3    H135582   2.250   0.495  13.573 -0.2276 -0.7734  0.4846
 4697TIP3    H235583   2.120   0.418  13.579 -0.8551  0.2158 -0.2649
 4698TIP3   OH235584   2.228   1.785   1.167 -0.3194 -0.0847 -0.4702
 4698TIP3    H135585   2.297   1.799   1.232  0.1074 -0.6496 -0.7907
 4698TIP3    H235586   2.271   1.734   1.098 -0.6198  0.9543 -1.4460
 4699TIP3   OH235587   1.718   3.084  14.897 -0.2611 -0.2769 -0.9186
 4699TIP3    H135588   1.628   3.055  14.911 -0.6705  0.8980 -1.0479
 4699TIP3    H235589   1.768   3.039  14.965 -1.1396  0.0197 -0.0561
 4700TIP3   OH235590   6.148   0.508  12.180  0.1775 -0.3598  0.2523
 4700TIP3    H135591   6.199   0.442  12.228  1.5372  0.0965 -0.5216
 4700TIP3    H235592   6.212   0.552  12.124 -0.3991  2.4706  1.6033
 4701TIP3   OH235593   1.059   5.707   4.936  0.0425  0.3619 -0.2632
 4701TIP3    H135594   0.965   5.701   4.922 -0.3685  2.1240  1.2052
 4701TIP3    H235595   1.074   5.663   5.020  0.7107 -0.8273 -0.9913
 4702TIP3   OH235596   6.607   4.077   1.795  0.2211 -0.0214 -0.1635
 4702TIP3    H135597   6.616   4.159   1.748 -3.1166  0.2160 -0.6320
 4702TIP3    H235598   6.596   4.011   1.727 -3.0156  0.0961  0.0962
 4703TIP3   OH235599   1.907   2.923  13.893  0.2668  0.1606  0.8187
 4703TIP3    H135600   1.904   2.944  13.986  1.8381 -0.2150  0.9869
 4703TIP3    H235601   1.938   2.832  13.891 -0.4442 -0.0699 -0.0520
 4704TIP3   OH235602   0.034   3.511  11.553  0.2476 -0.0019  0.0533
 4704TIP3    H135603   0.083   3.449  11.608  1.1730  1.9436  1.5514
 4704TIP3    H235604  -0.047   3.465  11.531  1.1692 -1.9580  0.5696
 4705TIP3   OH235605   1.711   6.811  11.116 -0.1829  0.3575  0.4355
 4705TIP3    H135606   1.716   6.888  11.059  2.6466  0.5968  0.8388
 4705TIP3    H235607   1.692   6.738  11.057 -0.5673  1.0452 -0.3001
 4706TIP3   OH235608   2.589   0.563  13.020 -0.2479 -0.2314  0.2981
 4706TIP3    H135609   2.613   0.636  13.077  0.6853  0.2957 -0.7139
 4706TIP3    H235610   2.657   0.498  13.035 -1.6939 -1.4266  2.0387
 4707TIP3   OH235611   2.770   1.709   2.801  0.3421  0.0364 -0.2942
 4707TIP3    H135612   2.703   1.673   2.743 -1.3198  2.2621  0.0869
 4707TIP3    H235613   2.818   1.770   2.745  0.7379 -0.0794 -0.0784
 4708TIP3   OH235614   2.949   2.997  15.613 -0.2378  0.0543  0.2256
 4708TIP3    H135615   2.943   2.918  15.559  0.4312 -0.3311  0.7114
 4708TIP3    H235616   2.937   3.069  15.550  0.8625 -0.3768 -0.5033
 4709TIP3   OH235617   6.079   2.776  14.703 -0.2048  0.3782  0.4933
 4709TIP3    H135618   6.034   2.695  14.681 -0.3443  1.1357 -2.4133
 4709TIP3    H235619   6.011   2.843  14.700 -0.1870  0.6392  3.3369
 4710TIP3   OH235620   5.523   2.549  13.714 -0.4997  0.1263 -0.4028
 4710TIP3    H135621   5.518   2.454  13.707  1.2265  0.0534 -1.2185
 4710TIP3    H235622   5.523   2.565  13.808 -0.3754 -0.7079 -0.2491
 4711TIP3   OH235623   6.361   6.627  12.155 -0.5656 -0.1558 -0.1327
 4711TIP3    H135624   6.277   6.581  12.157 -0.6981  0.1076  0.5945
 4711TIP3    H235625   6.371   6.662  12.244  0.8054 -1.0605  0.0924
 4712TIP3   OH235626   5.308   0.485   4.228  0.1599 -0.4703 -0.0572
 4712TIP3    H135627   5.294   0.521   4.315  0.7123  0.2495 -0.2529
 4712TIP3    H235628   5.338   0.396   4.243 -0.1583 -0.4933  0.4718
 4713TIP3   OH235629   3.496   3.256   1.782 -0.3418 -0.8223  0.2352
 4713TIP3    H135630   3.535   3.339   1.756 -0.5417  0.7077  4.1017
 4713TIP3    H235631   3.568   3.193   1.779  0.9203  0.5098  1.2287
 4714TIP3   OH235632   1.086   0.849   3.265 -0.1476 -0.0662  0.0674
 4714TIP3    H135633   1.025   0.861   3.338  0.9250  2.4206  0.6617
 4714TIP3    H235634   1.055   0.910   3.198 -0.3739 -1.4097 -1.1024
 4715TIP3   OH235635   6.037   5.586   0.544 -0.4479  0.2170 -0.6425
 4715TIP3    H135636   5.951   5.595   0.504  0.0911  0.5427 -1.7429
 4715TIP3    H235637   6.041   5.494   0.572 -1.6100  0.4821  0.5475
 4716TIP3   OH235638   1.736   5.835   3.699  0.5729  0.5219 -0.2525
 4716TIP3    H135639   1.666   5.838   3.634  0.2800 -1.7985 -0.1361
 4716TIP3    H235640   1.816   5.822   3.649  0.6396  0.9512 -0.2606
 4717TIP3   OH235641   5.901   5.175   3.897 -0.2997  0.3000  0.2811
 4717TIP3    H135642   5.940   5.146   3.980 -2.3016 -0.2457  1.0917
 4717TIP3    H235643   5.959   5.140   3.830  1.2378  0.5299  1.4423
 4718TIP3   OH235644   0.438   6.769  17.273  0.6254  0.1450 -0.0290
 4718TIP3    H135645   0.444   6.760  17.178  0.3730 -0.1645 -0.0210
 4718TIP3    H235646   0.450   6.862  17.290  0.3592  0.2469 -0.3939
 4719TIP3   OH235647   5.376   5.268   0.477  0.0719 -0.7573 -0.1898
 4719TIP3    H135648   5.328   5.198   0.432 -0.0848  0.1154 -1.4276
 4719TIP3    H235649   5.403   5.327   0.407 -0.1915  0.6633  0.8659
 4720TIP3   OH235650   1.576   0.024  17.132  0.3805 -0.3192  0.2287
 4720TIP3    H135651   1.618   0.028  17.046  0.0063 -1.0050  0.0054
 4720TIP3    H235652   1.632  -0.036  17.183  0.0357 -0.7250  0.1347
 4721TIP3   OH235653   4.489   1.614   0.065  0.2303  0.0620  0.2096
 4721TIP3    H135654   4.557   1.648   0.007  1.3686  0.3973  1.6909
 4721TIP3    H235655   4.536   1.564   0.132 -1.2053 -2.3301 -0.4130
 4722TIP3   OH235656   0.090   3.304  11.732 -0.0139 -0.0726 -0.8182
 4722TIP3    H135657   0.091   3.248  11.654 -0.5267  0.0193 -0.8915
 4722TIP3    H235658   0.042   3.253  11.797  0.2814 -0.0850 -0.6112
 4723TIP3   OH235659   4.004   5.667   4.574  0.2262 -0.3937  0.2928
 4723TIP3    H135660   4.027   5.752   4.538  0.5524 -1.5891 -2.6557
 4723TIP3    H235661   3.909   5.669   4.583  0.2971  0.5040  0.9992
 4724TIP3   OH235662   2.433   0.262  14.673 -0.1294 -0.5653 -0.6186
 4724TIP3    H135663   2.469   0.213  14.746  1.2966 -1.6738 -1.9988
 4724TIP3    H235664   2.453   0.353  14.693 -0.4004 -0.7677  0.6804
 4725TIP3   OH235665   4.592   6.374   1.287  0.5897 -0.5523 -0.3620
 4725TIP3    H135666   4.591   6.469   1.275 -0.7962 -0.2220  1.8982
 4725TIP3    H235667   4.506   6.353   1.320  1.1189 -2.5350 -0.1235
 4726TIP3   OH235668   1.250   5.172   2.285 -0.2356 -0.2816 -0.1354
 4726TIP3    H135669   1.309   5.101   2.258  1.2840  0.6365  0.6057
 4726TIP3    H235670   1.189   5.182   2.212  0.0558 -1.7775 -0.6115
 4727TIP3   OH235671   4.218   4.657   2.544  0.5076  0.1327 -0.3953
 4727TIP3    H135672   4.218   4.714   2.621 -1.9374  0.0871 -0.2563
 4727TIP3    H235673   4.261   4.577   2.573 -2.3148 -0.7955  1.7934
 4728TIP3   OH235674   2.506   4.674  11.471  0.0726  0.1450 -0.0743
 4728TIP3    H135675   2.463   4.723  11.401  0.1873  1.9124  1.0148
 4728TIP3    H235676   2.591   4.648  11.434  0.9741  2.7405 -0.0593
 4729TIP3   OH235677   2.858   0.328   2.793  0.4625  0.3099  0.5613
 4729TIP3    H135678   2.833   0.358   2.880  1.7016 -1.1276  1.4687
 4729TIP3    H235679   2.807   0.248   2.780  0.1828  0.5847 -0.1100
 4730TIP3   OH235680   3.872   5.925  15.737 -0.7404 -0.2694  0.1070
 4730TIP3    H135681   3.841   5.911  15.647  0.5157  0.5636 -0.4941
 4730TIP3    H235682   3.793   5.933  15.789 -1.5156  0.3527 -1.1215
 4731TIP3   OH235683   0.409   5.375   5.293 -0.3169 -0.1496 -0.3948
 4731TIP3    H135684   0.404   5.353   5.385 -1.3058  0.2542 -0.3421
 4731TIP3    H235685   0.368   5.462   5.286  0.2890  0.0921 -1.1185
 4732TIP3   OH235686   6.113   2.994   5.003  0.1144 -0.8912 -0.0756
 4732TIP3    H135687   6.037   3.052   5.001 -0.0913 -1.0778  1.4293
 4732TIP3    H235688   6.083   2.915   5.048  1.1462 -1.0324  0.4043
 4733TIP3   OH235689   1.728   5.912  14.091 -0.7391  0.3716  0.0851
 4733TIP3    H135690   1.726   5.816  14.087 -2.3936  0.3072  1.3915
 4733TIP3    H235691   1.752   5.931  14.181 -0.2487  1.2119 -0.2146
 4734TIP3   OH235692   1.080   5.256   2.821  0.6759  0.4164 -0.5731
 4734TIP3    H135693   1.048   5.198   2.891 -2.8266  2.9432  0.1889
 4734TIP3    H235694   1.034   5.227   2.743  0.8167  0.6042 -0.7256
 4735TIP3   OH235695   4.137   4.048   6.752 -0.1356 -0.1160 -0.7682
 4735TIP3    H135696   4.176   4.056   6.665  0.3575  1.3846 -0.4415
 4735TIP3    H235697   4.202   4.088   6.811 -1.4085  0.8880  0.0025
 4736TIP3   OH235698   5.028   1.037   3.831 -0.3468  0.4216  0.2435
 4736TIP3    H135699   5.091   1.083   3.775 -1.2955  0.6395 -0.6661
 4736TIP3    H235700   5.001   1.103   3.895  0.0328  0.4436  0.3878
 4737TIP3   OH235701   0.832   3.343  12.172  0.3262  0.1125  0.4551
 4737TIP3    H135702   0.927   3.329  12.171  0.1755 -0.9792 -0.4437
 4737TIP3    H235703   0.814   3.376  12.260  1.4420 -0.4580  0.9215
 4738TIP3   OH235704   0.619   4.228  15.713  0.7086 -0.0631  0.2890
 4738TIP3    H135705   0.544   4.213  15.770  0.5429  0.4525  0.2106
 4738TIP3    H235706   0.647   4.140  15.687 -0.1179 -0.2469 -0.0144
 4739TIP3   OH235707   0.044   1.527  16.672  0.4804 -0.5270 -0.2671
 4739TIP3    H135708   0.093   1.607  16.653 -1.5693  1.4875  2.1992
 4739TIP3    H235709  -0.004   1.509  16.592  0.3202  1.2719 -0.6309
 4740TIP3   OH235710   6.706   1.034   5.476 -0.5344  0.0817  0.3015
 4740TIP3    H135711   6.639   1.017   5.411  0.3319 -1.9876 -0.1283
 4740TIP3    H235712   6.763   1.099   5.435 -1.2485  0.4852 -0.0691
 4741TIP3   OH235713   1.530   3.456   2.037 -0.1521  0.2942 -0.0008
 4741TIP3    H135714   1.436   3.468   2.027 -0.2524  0.1132  0.6493
 4741TIP3    H235715   1.564   3.544   2.049 -0.2331  0.3663 -0.3144
 4742TIP3   OH235716   1.289   3.863   3.380  0.0708 -0.3450 -0.7544
 4742TIP3    H135717   1.225   3.827   3.319 -0.6218  1.3083 -1.0669
 4742TIP3    H235718   1.345   3.918   3.326  1.2263 -1.0655 -0.3297
 4743TIP3   OH235719   3.477   1.343  10.700  0.2320 -0.1684 -0.2284
 4743TIP3    H135720   3.504   1.410  10.637 -0.2658  1.6996  1.4210
 4743TIP3    H235721   3.397   1.306  10.662  0.5685  0.1120 -1.2345
 4744TIP3   OH235722   0.909   4.362  15.089  0.1216  0.0035  0.1195
 4744TIP3    H135723   0.897   4.356  14.995 -0.2553  0.0054  0.1661
 4744TIP3    H235724   0.975   4.430  15.101  0.1432  0.0275 -0.1395
 4745TIP3   OH235725   2.557   2.688  13.826 -0.3187  0.1092  0.5255
 4745TIP3    H135726   2.551   2.598  13.795  1.2033  0.5803 -1.3706
 4745TIP3    H235727   2.601   2.681  13.911  2.1104 -0.8271 -0.7209
 4746TIP3   OH235728   2.446   1.738   0.741 -0.0087 -0.5948  0.3736
 4746TIP3    H135729   2.529   1.705   0.706  0.2770 -0.2766  0.7331
 4746TIP3    H235730   2.442   1.703   0.830 -0.1639 -0.4448  0.4258
 4747TIP3   OH235731   5.269   1.513   2.429  0.3693  0.1377  0.1251
 4747TIP3    H135732   5.253   1.450   2.498  0.1276  0.2584  0.1803
 4747TIP3    H235733   5.186   1.559   2.418  0.7826  1.0601  0.7066
 4748TIP3   OH235734   6.610   1.526  14.748 -0.2773 -0.4561 -0.1067
 4748TIP3    H135735   6.654   1.610  14.731 -0.8541  0.2993  1.8571
 4748TIP3    H235736   6.638   1.469  14.676  2.2413  0.6139 -0.0605
 4749TIP3   OH235737   0.326   2.711   3.452 -0.2822  0.0252 -0.1807
 4749TIP3    H135738   0.365   2.679   3.371 -2.1478  0.0015 -1.1282
 4749TIP3    H235739   0.286   2.635   3.492  1.1068 -0.0750  1.1067
 4750TIP3   OH235740   0.246   1.545   3.855 -0.3430  0.8839 -0.6703
 4750TIP3    H135741   0.305   1.499   3.914 -1.5758  0.8677  0.6271
 4750TIP3    H235742   0.217   1.479   3.793  2.8163  1.4272 -2.9170
 4751TIP3   OH235743   4.112   3.894  13.574 -0.0773 -0.2663  0.0292
 4751TIP3    H135744   4.105   3.809  13.530 -2.5771 -0.3058  0.3496
 4751TIP3    H235745   4.174   3.943  13.521 -0.5889 -1.3945 -1.7161
 4752TIP3   OH235746   2.996   2.780   5.170  0.1966 -0.1677  0.1713
 4752TIP3    H135747   3.063   2.712   5.176  0.8102  0.2804 -1.1030
 4752TIP3    H235748   3.043   2.858   5.141 -0.9093  0.0813 -1.0744
 4753TIP3   OH235749   2.215   3.609   0.381 -0.1485  0.6716  0.6305
 4753TIP3    H135750   2.212   3.596   0.286  0.9013 -0.1011  0.6867
 4753TIP3    H235751   2.250   3.698   0.391  1.7084  0.0351  0.2718
 4754TIP3   OH235752   0.767   3.619   6.085  0.5999 -0.0980 -0.0821
 4754TIP3    H135753   0.826   3.676   6.134 -0.3971  0.3695  0.6092
 4754TIP3    H235754   0.711   3.680   6.036 -0.4755 -0.4717  0.6594
 4755TIP3   OH235755   1.578   2.952   6.306  0.1235 -0.0883 -0.3560
 4755TIP3    H135756   1.643   2.974   6.373 -0.7625  1.6659 -0.0090
 4755TIP3    H235757   1.549   3.037   6.272 -1.4696 -0.8482 -1.0125
 4756TIP3   OH235758   5.117   0.117   1.519  0.2776 -0.1675 -0.4269
 4756TIP3    H135759   5.140   0.175   1.446 -2.3178  1.1304 -0.3615
 4756TIP3    H235760   5.120   0.174   1.597 -2.0718 -0.0389 -0.3297
 4757TIP3   OH235761   5.520   5.474  12.280  0.8170  0.4126  0.5016
 4757TIP3    H135762   5.470   5.435  12.351  0.4599 -1.4424 -0.7083
 4757TIP3    H235763   5.464   5.466  12.203  1.4550  1.7833 -0.1471
 4758TIP3   OH235764   3.356   6.503   4.987  0.2743 -0.2092  0.2512
 4758TIP3    H135765   3.416   6.559   5.035 -1.5036  0.2254  2.0997
 4758TIP3    H235766   3.325   6.557   4.914  0.8746  0.1084  0.2243
 4759TIP3   OH235767   4.850   3.714  16.579  0.3597  0.2774  0.2507
 4759TIP3    H135768   4.837   3.794  16.629 -0.7579 -1.3928  2.8396
 4759TIP3    H235769   4.910   3.662  16.633  1.7552 -0.3550 -1.7841
 4760TIP3   OH235770   4.724   2.762   2.162  0.4684  0.1533 -0.4471
 4760TIP3    H135771   4.735   2.854   2.187  0.6449  0.1388 -0.4705
 4760TIP3    H235772   4.795   2.716   2.207 -0.8481 -0.2926  1.2820
 4761TIP3   OH235773   1.188   3.618  12.703  0.3549 -0.5119  0.4189
 4761TIP3    H135774   1.191   3.564  12.782  1.5183 -1.4748 -0.2557
 4761TIP3    H235775   1.259   3.681  12.714 -0.5983  0.5154  0.9135
 4762TIP3   OH235776   6.756   3.041  16.230  0.1644  0.3670 -0.0295
 4762TIP3    H135777   6.775   2.949  16.214 -1.7583  0.1182 -1.1754
 4762TIP3    H235778   6.763   3.051  16.325 -1.2400 -1.3918  0.3014
 4763TIP3   OH235779   1.035   3.205   5.255 -0.4532  0.0613 -0.1505
 4763TIP3    H135780   0.978   3.170   5.186  1.7616 -0.5435 -1.8059
 4763TIP3    H235781   1.096   3.262   5.208  2.3194 -1.8162  0.9299
 4764TIP3   OH235782   6.009   0.478  15.256  0.2043 -0.4127  0.1422
 4764TIP3    H135783   6.058   0.396  15.263 -0.3152 -0.6672  0.8501
 4764TIP3    H235784   5.937   0.469  15.318 -0.7822 -0.0591 -0.9154
 4765TIP3   OH235785   0.255   5.457   4.891  0.4479  0.1527 -0.5026
 4765TIP3    H135786   0.229   5.498   4.809  1.3983 -0.2766 -1.0297
 4765TIP3    H235787   0.338   5.498   4.914 -0.7696  1.7835  1.3592
 4766TIP3   OH235788   0.024   0.340   5.108  0.0483  0.0092  0.1828
 4766TIP3    H135789   0.034   0.250   5.140  1.5681  0.5218  1.2193
 4766TIP3    H235790  -0.031   0.331   5.030 -0.1099 -1.7778  0.4534
 4767TIP3   OH235791   2.229   6.818   3.078 -0.2428  0.1937  0.0500
 4767TIP3    H135792   2.224   6.761   3.001 -0.5328  0.5275 -0.1838
 4767TIP3    H235793   2.168   6.890   3.059 -0.0449  0.4697  0.4330
 4768TIP3   OH235794   2.385   2.683  12.428  0.1264 -0.2304  0.5310
 4768TIP3    H135795   2.423   2.721  12.349  1.7062 -0.5260  1.1076
 4768TIP3    H235796   2.424   2.732  12.500 -2.1411  0.7770  1.1393
 4769TIP3   OH235797   5.764   4.323  11.884  0.2094  0.4536  0.0955
 4769TIP3    H135798   5.759   4.418  11.893 -2.7786  0.4730 -0.7544
 4769TIP3    H235799   5.673   4.294  11.878  1.0279 -2.4557 -0.0096
 4770TIP3   OH235800   4.061   1.585   5.983 -1.0304 -0.0339 -0.1780
 4770TIP3    H135801   4.030   1.564   6.071 -0.3973 -0.1664  0.0210
 4770TIP3    H235802   4.140   1.638   5.997 -0.1708 -1.1407 -0.6335
 4771TIP3   OH235803   5.005   0.168  12.082  0.4949 -0.0823 -0.1877
 4771TIP3    H135804   5.001   0.110  12.007 -0.4675  0.0582 -0.2505
 4771TIP3    H235805   4.959   0.122  12.152 -3.0285  1.7818 -1.0693
 4772TIP3   OH235806   4.074   5.325   0.091 -0.8105 -0.5880 -0.2038
 4772TIP3    H135807   4.055   5.242   0.049  0.6071 -1.7648  1.3573
 4772TIP3    H235808   4.119   5.302   0.172 -1.1751  1.6707  0.7304
 4773TIP3   OH235809   2.959   4.424   4.739 -0.2707 -0.5087  0.2304
 4773TIP3    H135810   3.046   4.385   4.723  0.8749  1.8329  0.2620
 4773TIP3    H235811   2.976   4.518   4.743 -2.7743 -0.0170  0.7872
 4774TIP3   OH235812   5.345   2.455   6.185  0.0022  0.2796 -0.3809
 4774TIP3    H135813   5.333   2.407   6.267 -0.4200  2.2424  0.7777
 4774TIP3    H235814   5.419   2.412   6.142 -1.4184 -2.4531 -0.2884
 4775TIP3   OH235815   6.315   6.391   4.788 -0.0136 -0.4739  0.3432
 4775TIP3    H135816   6.355   6.471   4.754 -0.0575 -1.1300 -1.3259
 4775TIP3    H235817   6.221   6.408   4.784 -0.1768 -1.6054 -2.7943
 4776TIP3   OH235818   4.783   3.558   3.452 -1.1608  0.4030  0.0956
 4776TIP3    H135819   4.792   3.479   3.399 -1.6318  0.1322  0.4148
 4776TIP3    H235820   4.873   3.592   3.460 -1.1323  0.6846 -1.2139
 4777TIP3   OH235821   3.916   4.295  16.460 -0.3469 -0.1972  0.1694
 4777TIP3    H135822   3.898   4.254  16.376 -1.8019  3.6490 -1.6285
 4777TIP3    H235823   4.012   4.303  16.463 -0.2853 -0.1981 -1.2799
 4778TIP3   OH235824   4.869   1.490  15.497 -0.3794  0.1190  0.4818
 4778TIP3    H135825   4.869   1.554  15.426  0.6839 -0.1226  0.2439
 4778TIP3    H235826   4.928   1.421  15.468 -0.9613 -0.6334  1.0425
 4779TIP3   OH235827   6.515   3.643  11.687 -0.1691  1.0263 -0.0423
 4779TIP3    H135828   6.450   3.574  11.691  1.9408 -1.2023 -1.1127
 4779TIP3    H235829   6.535   3.652  11.594  0.5141  2.1911  0.1882
 4780TIP3   OH235830   0.537   0.883  11.145 -0.0847 -0.3791 -0.4223
 4780TIP3    H135831   0.543   0.801  11.095 -0.1836 -0.1856 -0.7579
 4780TIP3    H235832   0.623   0.924  11.133  1.0482 -1.7830  2.1557
 4781TIP3   OH235833   5.974   0.548  10.968  0.0743  0.0485  0.2674
 4781TIP3    H135834   6.032   0.571  10.896  0.5806  0.5959  0.8425
 4781TIP3    H235835   5.965   0.629  11.019 -0.8108 -0.1533  0.4546
 4782TIP3   OH235836   4.649   1.237   2.177  0.3261 -0.0913 -0.7850
 4782TIP3    H135837   4.649   1.148   2.212  1.9313 -0.7381 -2.2537
 4782TIP3    H235838   4.561   1.271   2.195  0.0669 -1.5122  0.8813
 4783TIP3   OH235839   6.133   1.700  16.366 -0.2367  0.4918 -0.6031
 4783TIP3    H135840   6.154   1.781  16.413  0.0505 -0.2388  0.5735
 4783TIP3    H235841   6.204   1.639  16.389 -0.5889 -0.1814 -1.2483
 4784TIP3   OH235842   2.233   4.532   6.179  0.1852 -0.0323 -0.7361
 4784TIP3    H135843   2.243   4.625   6.197 -1.5736  0.0193  0.1418
 4784TIP3    H235844   2.283   4.488   6.248  1.0846  0.2266 -1.2001
 4785TIP3   OH235845   5.696   0.481   1.597 -0.5782  0.1560 -0.0100
 4785TIP3    H135846   5.782   0.511   1.568  0.0888  0.3620  1.9993
 4785TIP3    H235847   5.711   0.390   1.624 -1.3381 -0.2629 -0.9289
 4786TIP3   OH235848   5.934   1.264  17.187 -1.0969 -0.1810 -0.0673
 4786TIP3    H135849   5.971   1.217  17.261  0.9497  1.7213  0.2158
 4786TIP3    H235850   5.946   1.205  17.112 -0.3909 -0.8762  0.5854
 4787TIP3   OH235851   2.278   0.400  11.814  0.5373 -0.2192 -0.3766
 4787TIP3    H135852   2.241   0.378  11.900  2.2174 -0.4167  0.3447
 4787TIP3    H235853   2.264   0.322  11.761  0.6274 -0.5951  0.1402
 4788TIP3   OH235854   4.327   0.322  15.577  0.2476 -1.0469  0.2145
 4788TIP3    H135855   4.326   0.408  15.535 -0.7198 -1.4960 -0.7360
 4788TIP3    H235856   4.239   0.287  15.563  0.9573 -2.6880 -0.5028
 4789TIP3   OH235857   2.499   4.371   4.459 -0.3921  0.1499 -0.2156
 4789TIP3    H135858   2.493   4.420   4.541 -0.9987  0.3236 -0.3578
 4789TIP3    H235859   2.550   4.427   4.400  0.4957 -0.2032  0.1990
 4790TIP3   OH235860   1.741   3.162  15.719  0.8346  0.0455 -0.2564
 4790TIP3    H135861   1.801   3.124  15.784  0.6466  1.6425  0.9074
 4790TIP3    H235862   1.659   3.115  15.732  0.4565  1.1372  1.5114
 4791TIP3   OH235863   4.102   4.600   3.422 -0.1194 -0.3545  0.1207
 4791TIP3    H135864   4.121   4.533   3.356 -1.2308  1.1180 -1.8035
 4791TIP3    H235865   4.159   4.673   3.399 -1.1615  0.5164  0.2484
 4792TIP3   OH235866   2.052   0.897   6.625  0.4720  0.5897 -0.3631
 4792TIP3    H135867   2.096   0.818   6.594  1.0335 -0.0135  1.8272
 4792TIP3    H235868   2.070   0.962   6.558  2.4126 -0.3913 -0.8509
 4793TIP3   OH235869   2.879   6.587   6.006 -0.0528  0.1817  0.2978
 4793TIP3    H135870   2.885   6.495   5.982 -2.2790  0.8163 -3.5877
 4793TIP3    H235871   2.964   6.607   6.045  0.8762 -3.2125  0.3515
 4794TIP3   OH235872   3.274   1.844   4.523 -0.1019 -0.3781  0.1061
 4794TIP3    H135873   3.268   1.844   4.428  0.9923 -1.4681  0.0202
 4794TIP3    H235874   3.191   1.805   4.552 -1.2826  1.6845 -0.2837
 4795TIP3   OH235875   1.737   5.152  12.792 -0.6561 -0.5045 -0.3410
 4795TIP3    H135876   1.654   5.170  12.747 -1.4132  1.6504  1.7267
 4795TIP3    H235877   1.786   5.234  12.787  1.2244 -1.6221 -1.1485
 4796TIP3   OH235878   4.689   1.653   4.116  0.1551 -0.2320  0.0770
 4796TIP3    H135879   4.696   1.748   4.118 -1.1316 -0.1178  1.2379
 4796TIP3    H235880   4.743   1.626   4.042  0.8039  1.3652 -0.0781
 4797TIP3   OH235881   6.003   5.186  14.979  0.1752 -0.0738 -0.2630
 4797TIP3    H135882   6.022   5.263  15.033  0.7543  0.0891 -0.6908
 4797TIP3    H235883   5.912   5.165  14.999  0.2227  0.3052  0.3755
 4798TIP3   OH235884   6.200   4.557  14.226 -0.0474  0.1547 -1.0033
 4798TIP3    H135885   6.186   4.523  14.137 -1.3391 -0.2700 -0.6721
 4798TIP3    H235886   6.115   4.593  14.251  0.3513  0.4345 -0.0017
 4799TIP3   OH235887   0.930   2.796  16.147  0.1511 -0.0019  0.7226
 4799TIP3    H135888   0.883   2.801  16.064 -1.3698  1.1691  1.6123
 4799TIP3    H235889   0.989   2.721  16.137 -0.6212 -0.4076 -1.0790
 4800TIP3   OH235890   6.388   4.288  12.851 -0.0837  0.4482  0.0744
 4800TIP3    H135891   6.406   4.379  12.874 -0.1582  0.5481 -0.2520
 4800TIP3    H235892   6.293   4.282  12.847 -0.0674  0.5966 -0.8173
 4801TIP3   OH235893   2.162   2.028   2.317 -0.2418  0.3564  0.3403
 4801TIP3    H135894   2.094   2.072   2.368  0.4133  1.1988  0.4997
 4801TIP3    H235895   2.243   2.073   2.340  0.0823  0.7134 -1.3723
 4802TIP3   OH235896   2.498   1.023   2.080  0.1039 -0.1035  0.0468
 4802TIP3    H135897   2.536   1.090   2.023 -0.1671 -0.7455 -0.9056
 4802TIP3    H235898   2.568   0.958   2.091 -0.0254 -0.2487  0.0141
 4803TIP3   OH235899   2.758   4.947   4.559  0.3516  0.5775  0.3952
 4803TIP3    H135900   2.733   5.031   4.521  0.9852  1.1755  1.2690
 4803TIP3    H235901   2.675   4.905   4.580  0.0193  1.6196  1.2859
 4804TIP3   OH235902   2.736   4.838   0.487  0.2927 -0.7576  0.3323
 4804TIP3    H135903   2.656   4.860   0.439  0.1279  0.1842  1.0100
 4804TIP3    H235904   2.807   4.850   0.424 -0.0652 -1.2538 -0.1719
 4805TIP3   OH235905   1.263   1.774  15.413 -1.3419  0.5367  0.2883
 4805TIP3    H135906   1.327   1.840  15.441 -0.1252  0.2354 -1.6345
 4805TIP3    H235907   1.286   1.696  15.463 -0.9784  0.7667  0.4850
 4806TIP3   OH235908   5.423   2.799  14.302  0.5593 -0.1698 -0.3984
 4806TIP3    H135909   5.497   2.788  14.362  0.9180  0.4776 -0.7199
 4806TIP3    H235910   5.457   2.775  14.216  0.2853 -0.2488 -0.4859
 4807TIP3   OH235911   6.141   0.663  14.420  0.2753 -0.1857 -0.4509
 4807TIP3    H135912   6.082   0.697  14.487  0.8215  0.0199 -0.0706
 4807TIP3    H235913   6.160   0.573  14.448  0.0293 -0.3021 -0.6524
 4808TIP3   OH235914   6.726   0.321   1.152 -0.3536  0.6046 -0.1585
 4808TIP3    H135915   6.776   0.396   1.123 -0.4744  1.7327  2.2946
 4808TIP3    H235916   6.791   0.253   1.167  0.4094  1.7305  2.0109
 4809TIP3   OH235917   1.352   0.446   0.654 -0.9726  0.4095  0.2375
 4809TIP3    H135918   1.332   0.359   0.618 -0.4876  0.7119 -0.7969
 4809TIP3    H235919   1.312   0.445   0.742 -0.9240 -0.8734  0.2682
 4810TIP3   OH235920   4.775   6.194   1.748  0.1600  0.6494 -0.2414
 4810TIP3    H135921   4.709   6.175   1.682  0.5481 -1.9909 -0.0017
 4810TIP3    H235922   4.849   6.229   1.699 -0.1448  0.2621 -0.9992
 4811TIP3   OH235923   6.545   0.087  16.444 -0.3676 -0.1998  0.4868
 4811TIP3    H135924   6.553   0.015  16.382 -0.9309  0.0753  0.0851
 4811TIP3    H235925   6.631   0.129  16.444  0.6103 -1.9947  2.1545
 4812TIP3   OH235926   1.616   5.785   5.225 -0.7989 -0.4712  0.7758
 4812TIP3    H135927   1.657   5.704   5.255  0.0839  0.2151  1.5060
 4812TIP3    H235928   1.570   5.761   5.145 -0.9142 -1.7802  1.2204
 4813TIP3   OH235929   2.144   6.633  13.564 -0.2075  0.2701 -0.4607
 4813TIP3    H135930   2.174   6.708  13.616  0.6188 -0.2995 -0.0935
 4813TIP3    H235931   2.202   6.633  13.488  1.2472 -1.2424  0.5837
 4814TIP3   OH235932   5.188   4.503  17.269 -0.2114 -0.2592 -0.0171
 4814TIP3    H135933   5.273   4.473  17.235  0.6701  0.3689  1.5266
 4814TIP3    H235934   5.154   4.428  17.317 -1.1674 -0.9394 -1.6820
 4815TIP3   OH235935   1.723   5.161   3.898 -0.1252  0.0624  0.2260
 4815TIP3    H135936   1.705   5.071   3.870 -1.1424  0.8794 -2.0311
 4815TIP3    H235937   1.728   5.156   3.993  0.9858 -2.5561  0.1183
 4816TIP3   OH235938   4.659   4.336  13.705  0.0637  0.1232  0.8179
 4816TIP3    H135939   4.696   4.394  13.771  1.0263 -0.1501  0.5301
 4816TIP3    H235940   4.735   4.303  13.656 -0.4651 -1.1687  0.8133
 4817TIP3   OH235941   5.847   4.766   3.213  0.1827  0.5196  0.0075
 4817TIP3    H135942   5.811   4.729   3.132 -2.0007  0.0861  1.0900
 4817TIP3    H235943   5.917   4.705   3.237 -0.5737 -0.5781 -0.4466
 4818TIP3   OH235944   5.301   4.240   4.933 -0.4466  0.2035  0.1045
 4818TIP3    H135945   5.286   4.190   4.853 -1.3343  0.7773 -0.0946
 4818TIP3    H235946   5.224   4.297   4.941  1.4117  3.0244 -0.7406
 4819TIP3   OH235947   5.266   3.680   5.191  0.3637  0.5183  0.5885
 4819TIP3    H135948   5.195   3.622   5.218  2.6133 -1.6762  2.2520
 4819TIP3    H235949   5.255   3.758   5.246 -1.4862  0.8733 -0.1891
 4820TIP3   OH235950   1.349   3.059   0.093  0.4981  0.2251 -0.0526
 4820TIP3    H135951   1.278   3.013   0.138  0.2133  1.5609  0.9485
 4820TIP3    H235952   1.405   2.990   0.058 -0.3048 -0.8573  0.7488
 4821TIP3   OH235953   5.427   6.061  14.843  0.6082 -0.3619 -0.4050
 4821TIP3    H135954   5.369   6.117  14.792 -1.2733 -1.4568  0.3775
 4821TIP3    H235955   5.514   6.076  14.808 -0.1892  1.1899 -1.8250
 4822TIP3   OH235956   1.105   6.210   4.332 -0.4392  0.1526 -0.2916
 4822TIP3    H135957   1.097   6.181   4.241 -0.3733 -1.2250  0.1151
 4822TIP3    H235958   1.114   6.305   4.327 -2.3006  0.3113 -1.6149
 4823TIP3   OH235959   6.625   0.894  13.377  0.5143  0.0669 -0.2632
 4823TIP3    H135960   6.713   0.855  13.373  0.1692 -0.7232 -0.2695
 4823TIP3    H235961   6.634   0.977  13.330  1.0705 -0.3803 -0.9746
 4824TIP3   OH235962   1.609   5.304   4.414  0.3261  0.3904 -0.4872
 4824TIP3    H135963   1.635   5.253   4.491 -0.6051  0.1579 -0.3160
 4824TIP3    H235964   1.660   5.385   4.421  0.0168  0.5151  0.5605
 4825TIP3   OH235965   2.897   1.473   5.625 -0.3890 -0.3215  0.2938
 4825TIP3    H135966   2.902   1.386   5.587  0.2919 -0.1969  0.0693
 4825TIP3    H235967   2.927   1.531   5.554 -1.6306  0.1790  0.1614
 4826TIP3   OH235968   3.289   0.041   5.982 -0.0213  0.0058  0.1558
 4826TIP3    H135969   3.270   0.133   6.000  0.6925  0.3999 -0.9591
 4826TIP3    H235970   3.289  -0.001   6.067 -2.7916  0.5441  0.5091
 4827TIP3   OH235971   0.567   2.506   0.671 -0.0770  0.0036  0.0157
 4827TIP3    H135972   0.576   2.601   0.672  1.5962 -0.0731 -2.0854
 4827TIP3    H235973   0.583   2.480   0.762 -1.6337  1.7530  0.8632
 4828TIP3   OH235974   4.961   2.943  16.923 -0.3409 -0.1892 -0.1427
 4828TIP3    H135975   4.953   3.009  16.992 -1.3000 -0.5153  0.0751
 4828TIP3    H235976   5.012   2.986  16.854 -0.6634  0.6573  0.1357
 4829TIP3   OH235977   0.393   0.433  15.840  0.5330  0.5079  0.2057
 4829TIP3    H135978   0.419   0.347  15.872  2.7752  0.8967 -0.4524
 4829TIP3    H235979   0.351   0.416  15.756  0.3400  0.0095  0.4032
 4830TIP3   OH235980   1.770   1.138  17.125  0.0807  0.0230 -0.3654
 4830TIP3    H135981   1.818   1.106  17.048  0.3729 -1.0870  0.2628
 4830TIP3    H235982   1.837   1.152  17.191 -0.1410  1.2091 -0.3612
 4831TIP3   OH235983   1.674   3.655  16.416 -0.3597  0.7029  0.5153
 4831TIP3    H135984   1.748   3.598  16.434 -1.1373 -0.6732 -0.4615
 4831TIP3    H235985   1.606   3.626  16.477 -1.2750 -0.5206 -1.0118
 4832TIP3   OH235986   1.082   5.901  15.033 -0.0447  0.0648 -0.0457
 4832TIP3    H135987   1.138   5.910  15.110  0.0488  2.5342 -0.3095
 4832TIP3    H235988   0.992   5.908  15.067  0.0144  2.5240 -0.1932
 4833TIP3   OH235989   3.589   2.073  16.333  0.2946 -0.1017 -0.3353
 4833TIP3    H135990   3.642   1.998  16.307  1.0524  0.6806 -1.1096
 4833TIP3    H235991   3.638   2.114  16.404 -0.3555 -0.5850  0.4174
 4834TIP3   OH235992   5.024   3.155   0.706  0.1888  0.3141 -0.6051
 4834TIP3    H135993   5.006   3.145   0.613 -1.3780 -1.2049 -0.2002
 4834TIP3    H235994   5.053   3.068   0.735 -0.8839  0.3099  0.5878
 4835TIP3   OH235995   5.498   5.318   0.205  0.2017 -0.3436  0.1006
 4835TIP3    H135996   5.451   5.389   0.161 -1.6200 -0.2958  1.9820
 4835TIP3    H235997   5.463   5.238   0.165  1.8227 -0.2908 -1.5939
 4836TIP3   OH235998   2.967   3.537   4.206  0.2126  0.0038  0.6359
 4836TIP3    H135999   3.047   3.524   4.258 -0.5847  0.0916  1.9477
 4836TIP3    H236000   2.932   3.449   4.193 -0.0436  0.0475  1.0132
 4837TIP3   OH236001   5.583   3.925  11.381  0.0922 -0.1437 -0.1016
 4837TIP3    H136002   5.603   4.018  11.374  0.3771 -0.1699  0.3515
 4837TIP3    H236003   5.568   3.898  11.290  3.9491 -0.5056 -0.8311
 4838TIP3   OH236004   4.451   0.666  14.336  0.1640 -0.2210  0.1248
 4838TIP3    H136005   4.491   0.753  14.329  0.9500 -0.5085  0.9119
 4838TIP3    H236006   4.436   0.640  14.245  0.5094  0.4723 -0.1408
 4839TIP3   OH236007   0.630   1.064   3.122 -0.5568  0.3113 -0.4186
 4839TIP3    H136008   0.692   1.085   3.052 -0.9898  1.1462 -0.5592
 4839TIP3    H236009   0.652   0.974   3.146 -1.4359 -0.6051 -2.7520
 4840TIP3   OH236010   1.168   5.827  16.585  0.4036 -0.1505  0.0371
 4840TIP3    H136011   1.099   5.819  16.520 -0.2463  0.2040  0.6787
 4840TIP3    H236012   1.140   5.898  16.642  1.4564  0.2249  0.1150
 4841TIP3   OH236013   5.003   4.471   0.391 -0.4456  0.0342  0.3252
 4841TIP3    H136014   4.975   4.537   0.455  0.2306  0.6954 -0.0520
 4841TIP3    H236015   5.007   4.517   0.308  0.4083 -0.3802  0.1180
 4842TIP3   OH236016   0.885   0.684   1.727  0.1858 -0.3908 -0.0847
 4842TIP3    H136017   0.814   0.624   1.704  1.4110 -0.7813 -3.4895
 4842TIP3    H236018   0.961   0.627   1.738  0.6562  0.2678  0.1173
 4843TIP3   OH236019   2.521   3.570   5.206 -0.1320  0.0024 -0.2252
 4843TIP3    H136020   2.498   3.524   5.125  0.0854 -2.4116  0.9980
 4843TIP3    H236021   2.448   3.551   5.265  1.1738 -1.0301  1.1396
 4844TIP3   OH236022   0.523   5.339   1.208  1.0497  0.3029 -0.3474
 4844TIP3    H136023   0.537   5.424   1.164  0.2510  0.3201 -0.5909
 4844TIP3    H236024   0.428   5.326   1.203  1.1831 -0.6644 -0.4112
 4845TIP3   OH236025   6.296   5.631  12.837 -0.5459 -0.4938 -0.0527
 4845TIP3    H136026   6.297   5.716  12.794 -1.8257 -0.3660  0.1323
 4845TIP3    H236027   6.373   5.586  12.804  0.9182  1.2140  0.8488
 4846TIP3   OH236028   4.174   0.479  13.646  0.0748 -1.0469  0.1416
 4846TIP3    H136029   4.103   0.424  13.614  1.6098 -2.7172 -0.6015
 4846TIP3    H236030   4.179   0.552  13.584 -3.1704  1.1088  2.1532
 4847TIP3   OH236031   4.252   5.646  14.816  0.0760  0.1264 -0.2186
 4847TIP3    H136032   4.286   5.656  14.727 -0.7442 -0.1466 -0.5792
 4847TIP3    H236033   4.199   5.567  14.812 -1.4371  1.0780  0.0214
 4848TIP3   OH236034   1.272   3.745  10.989 -0.0373 -0.2902 -0.3397
 4848TIP3    H136035   1.250   3.807  11.059 -0.8336 -0.1059 -0.7432
 4848TIP3    H236036   1.350   3.783  10.947 -1.1129  1.0151 -1.2487
 4849TIP3   OH236037   6.197   3.718  13.709 -0.0128  0.1261  0.1569
 4849TIP3    H136038   6.253   3.653  13.752  0.5597  1.0438  0.8637
 4849TIP3    H236039   6.108   3.696  13.737  0.2385  0.0216  0.9124
 4850TIP3   OH236040   5.969   4.688  11.749  0.1522  0.2541  0.5824
 4850TIP3    H136041   5.912   4.765  11.740 -0.7015 -0.5182 -1.0249
 4850TIP3    H236042   5.917   4.616  11.712  1.4532 -0.8372  0.8352
 4851TIP3   OH236043   3.622   4.452  16.979  0.2185  0.0518 -0.4299
 4851TIP3    H136044   3.660   4.513  16.915  1.3340 -1.8472 -1.6698
 4851TIP3    H236045   3.698   4.411  17.020 -0.5140 -0.2827  0.6293
 4852TIP3   OH236046   2.116   5.653   3.671 -0.0463  0.1910  0.4392
 4852TIP3    H136047   2.124   5.649   3.576 -1.0134  0.3758  0.3430
 4852TIP3    H236048   2.165   5.731   3.697  0.3073  0.0818  0.1102
 4853TIP3   OH236049   0.074   4.148   1.842  0.1952  0.3852  0.2949
 4853TIP3    H136050   0.031   4.137   1.758  0.7325 -1.0768  0.1916
 4853TIP3    H236051   0.032   4.084   1.900 -0.2616  1.4596  1.2023
 4854TIP3   OH236052   5.227   1.062   3.430  0.2272  0.1460 -0.4784
 4854TIP3    H136053   5.149   1.101   3.391 -0.4362  0.2792  0.8953
 4854TIP3    H236054   5.297   1.124   3.410 -0.6509  1.7037  0.9511
 4855TIP3   OH236055   1.950   2.771  14.241 -0.1893 -0.3376 -0.4266
 4855TIP3    H136056   1.995   2.828  14.303  1.8288 -0.1708 -1.9409
 4855TIP3    H236057   1.862   2.808  14.233 -0.0347  0.4714  1.1834
 4856TIP3   OH236058   4.653   2.331  16.089 -0.5367  0.3429 -0.2933
 4856TIP3    H136059   4.631   2.240  16.071 -0.3511  0.2907 -0.2564
 4856TIP3    H236060   4.609   2.352  16.171 -0.7077  0.3341 -0.3823
 4857TIP3   OH236061   5.322   0.734   6.092 -0.5263 -0.4514 -0.2346
 4857TIP3    H136062   5.417   0.719   6.090 -0.4209 -0.1505  1.3092
 4857TIP3    H236063   5.313   0.822   6.129 -1.3909 -0.0610 -1.3384
 4858TIP3   OH236064   3.278   2.976  12.444  0.1323 -0.1903 -0.0669
 4858TIP3    H136065   3.191   3.003  12.473 -0.3223 -1.2935 -0.3593
 4858TIP3    H236066   3.324   3.058  12.426 -0.3097  0.4792  1.5997
 4859TIP3   OH236067   4.115   2.755  14.325  0.1930 -0.1700 -0.2767
 4859TIP3    H136068   4.038   2.701  14.311  0.3080 -0.1902 -0.8481
 4859TIP3    H236069   4.107   2.786  14.415 -0.1262 -0.7308 -0.1110
 4860TIP3   OH236070   5.377   5.706  11.105  0.4906  0.4302 -0.0104
 4860TIP3    H136071   5.287   5.676  11.119  1.0247 -0.9256  0.6724
 4860TIP3    H236072   5.411   5.719  11.194  2.4583 -3.7609  0.0977
 4861TIP3   OH236073   0.405   6.788   0.249 -0.3084 -0.1758  0.0638
 4861TIP3    H136074   0.418   6.759   0.158  0.3012  0.1899  0.0317
 4861TIP3    H236075   0.493   6.788   0.287 -0.5640 -0.3712  0.6748
 4862TIP3   OH236076   6.779   3.704   3.815 -0.2505 -0.2301 -0.5283
 4862TIP3    H136077   6.809   3.710   3.906  0.1394 -0.7755 -0.6110
 4862TIP3    H236078   6.812   3.783   3.773 -0.1108 -0.1580 -0.2863
 4863TIP3   OH236079   6.308   5.537   6.357 -0.2045 -0.3571 -0.3740
 4863TIP3    H136080   6.275   5.477   6.425 -0.0675  0.8047  0.7433
 4863TIP3    H236081   6.234   5.546   6.297 -1.1521  0.3525  0.8364
 4864TIP3   OH236082   3.513   5.502   0.956  0.2313 -0.3199  0.2655
 4864TIP3    H136083   3.603   5.490   0.986  0.4975 -1.4645 -0.8931
 4864TIP3    H236084   3.503   5.597   0.947  1.0955 -0.1444  1.0492
 4865TIP3   OH236085   6.109   4.146  14.675  1.2445 -0.1587  0.3806
 4865TIP3    H136086   6.138   4.055  14.682  0.7468 -0.4290 -0.8080
 4865TIP3    H236087   6.152   4.180  14.597  0.0814  0.0828 -0.1883
 4866TIP3   OH236088   3.562   0.088   6.650  0.4032 -0.3207 -0.2232
 4866TIP3    H136089   3.587   0.025   6.581 -0.1332 -0.5971 -0.1735
 4866TIP3    H236090   3.468   0.098   6.639  0.4076  0.0815  0.1098
 4867TIP3   OH236091   3.683   3.888  14.781 -0.1695 -0.3394  0.4673
 4867TIP3    H136092   3.703   3.794  14.791  0.9711 -0.4888 -2.3472
 4867TIP3    H236093   3.620   3.892  14.710 -0.9880  1.0093  1.2325
 4868TIP3   OH236094   6.565   5.745   3.121 -0.2099  0.0347 -0.2399
 4868TIP3    H136095   6.495   5.781   3.067  2.1466  2.8389 -1.7560
 4868TIP3    H236096   6.570   5.652   3.097 -0.1862  0.8560 -3.9477
 4869TIP3   OH236097   4.639   4.778   4.541  0.1831 -0.8084  0.3115
 4869TIP3    H136098   4.645   4.874   4.542 -0.1659 -0.7899  0.9268
 4869TIP3    H236099   4.728   4.748   4.527  0.0871 -0.3698 -1.4527
 4870TIP3   OH236100   6.036   4.072   3.347 -0.5954  0.4134 -0.1058
 4870TIP3    H136101   6.057   4.026   3.429 -0.1359 -1.1992 -1.0814
 4870TIP3    H236102   6.113   4.125   3.329 -0.4357  0.2836  0.1875
 4871TIP3   OH236103   5.123   3.621  13.131  0.6620  0.7612 -0.1425
 4871TIP3    H136104   5.174   3.686  13.179  2.2300 -0.2277 -0.4202
 4871TIP3    H236105   5.146   3.537  13.170 -2.2564  0.3855  1.0298
 4872TIP3   OH236106   4.143   4.369   0.423  0.0849  0.0123  0.2526
 4872TIP3    H136107   4.180   4.355   0.335 -0.2977  1.6872 -0.2076
 4872TIP3    H236108   4.193   4.311   0.480  1.3597  0.0006 -0.8376
 4873TIP3   OH236109   1.058   6.450   3.586  0.4819  0.3826 -0.0891
 4873TIP3    H136110   1.006   6.474   3.509  1.5277 -0.9820 -1.2856
 4873TIP3    H236111   1.036   6.358   3.601  0.6149  0.5184  0.9995
 4874TIP3   OH236112   4.819   1.535   2.506 -0.5422  0.3944  0.1120
 4874TIP3    H136113   4.900   1.580   2.482 -0.3502  0.3522  0.6704
 4874TIP3    H236114   4.804   1.472   2.435  0.6248 -0.5175  0.6450
 4875TIP3   OH236115   5.846   1.594   2.337  0.8624 -0.0480  0.2440
 4875TIP3    H136116   5.879   1.510   2.367 -0.6387 -0.3789  1.0842
 4875TIP3    H236117   5.776   1.617   2.399  1.2581  1.8457  0.0664
 4876TIP3   OH236118   1.752   0.274  13.647  0.3468 -0.3689 -0.4473
 4876TIP3    H136119   1.764   0.205  13.581  1.8810 -1.1970  0.6283
 4876TIP3    H236120   1.838   0.282  13.689 -0.2469  1.0587  0.5744
 4877TIP3   OH236121   3.988   2.297  14.695 -0.4532  0.0108  0.3055
 4877TIP3    H136122   4.049   2.231  14.729  0.4382 -0.2081 -1.5857
 4877TIP3    H236123   3.917   2.245  14.657  0.1529  0.0732 -1.0053
 4878TIP3   OH236124   6.627   1.989   1.085  0.9461 -0.0557  0.5131
 4878TIP3    H136125   6.559   1.937   1.041  0.7732 -0.4275  1.1930
 4878TIP3    H236126   6.708   1.940   1.071  1.2922  0.9305 -1.2073
 4879TIP3   OH236127   1.606   6.475   6.217  0.2493 -0.1145 -0.0830
 4879TIP3    H136128   1.595   6.414   6.291 -0.8123  1.8206  1.4600
 4879TIP3    H236129   1.593   6.420   6.139 -1.0846 -1.8011  1.2282
 4880TIP3   OH236130   0.484   0.436  14.529  0.2754  0.0037  0.0663
 4880TIP3    H136131   0.450   0.486  14.455  0.2679  0.3079  0.2704
 4880TIP3    H236132   0.511   0.352  14.492 -0.1994 -0.0382 -0.1885
 4881TIP3   OH236133   5.635   4.910   5.633 -0.4013 -0.4676 -0.1641
 4881TIP3    H136134   5.695   4.973   5.593  0.6184 -1.5158 -0.3465
 4881TIP3    H236135   5.692   4.848   5.679 -1.4862  0.6933  3.0679
 4882TIP3   OH236136   0.523   6.124   5.699  0.1836  0.2386  0.6612
 4882TIP3    H136137   0.523   6.215   5.728  1.9818  0.0796  1.3340
 4882TIP3    H236138   0.615   6.098   5.703 -0.0455 -1.1111 -1.1414
 4883TIP3   OH236139   3.321   2.511   1.214 -0.0577  0.3180 -0.2932
 4883TIP3    H136140   3.250   2.514   1.278 -0.7352  1.9374 -1.0515
 4883TIP3    H236141   3.400   2.526   1.266 -0.4701  0.4198  0.3214
 4884TIP3   OH236142   4.008   6.677   2.018  0.0668 -0.6707  0.5324
 4884TIP3    H136143   4.011   6.750   1.955  2.4667  0.9163  2.3267
 4884TIP3    H236144   3.927   6.692   2.067  1.0018  1.5321  1.5706
 4885TIP3   OH236145   6.075   2.435  12.492 -0.3407  0.1041 -0.1119
 4885TIP3    H136146   6.169   2.436  12.510 -0.0619 -0.8451 -1.3851
 4885TIP3    H236147   6.046   2.525  12.508  0.7906  0.4280  0.1884
 4886TIP3   OH236148   6.793   3.884   2.845  0.0384 -0.9158 -0.0842
 4886TIP3    H136149   6.763   3.829   2.917  2.1983  0.2443  1.8232
 4886TIP3    H236150   6.866   3.835   2.806  0.0877 -0.6952 -0.2727
 4887TIP3   OH236151   3.528   6.052   0.917  0.4657 -0.6854  0.3291
 4887TIP3    H136152   3.584   6.014   0.849  0.0723 -0.8503  0.0967
 4887TIP3    H236153   3.540   6.147   0.906 -0.1393 -0.6839 -0.4450
 4888TIP3   OH236154   3.065   1.491   0.691  0.4004 -0.1601  0.3715
 4888TIP3    H136155   3.002   1.545   0.738  1.8548  0.7061  1.4302
 4888TIP3    H236156   3.035   1.492   0.600 -0.2675  1.4793  0.5759
 4889TIP3   OH236157   0.064   5.617   5.117  0.5582 -0.2073  0.3611
 4889TIP3    H136158   0.133   5.661   5.066  0.2052  0.5230  0.4965
 4889TIP3    H236159  -0.014   5.671   5.104 -0.2089 -1.4613 -0.4208
 4890TIP3   OH236160   0.122   0.938   2.576 -0.2021  0.0989  0.6614
 4890TIP3    H136161   0.081   0.869   2.628  0.8846 -0.2051  1.1436
 4890TIP3    H236162   0.137   1.009   2.639  3.1753 -1.0976  1.4254
 4891TIP3   OH236163   1.110   2.607   6.531 -0.0066 -0.5354  0.2890
 4891TIP3    H136164   1.056   2.602   6.452 -1.1621  0.4790  0.9665
 4891TIP3    H236165   1.056   2.565   6.599  0.6352 -0.7021  0.7011
 4892TIP3   OH236166   2.962   6.004  15.670  0.2584  0.2114  0.1347
 4892TIP3    H136167   2.899   5.963  15.611 -2.2355  1.3716  1.8646
 4892TIP3    H236168   2.987   5.933  15.730  0.0881 -0.0700 -0.1211
 4893TIP3   OH236169   3.009   1.925   3.823  0.6565  0.4068  0.3084
 4893TIP3    H136170   2.978   1.869   3.751 -0.3516  0.8146  0.4155
 4893TIP3    H236171   3.102   1.903   3.831  0.5248 -0.4764 -0.3613
 4894TIP3   OH236172   4.470   2.497   5.093  0.5202 -0.2876  0.6618
 4894TIP3    H136173   4.462   2.590   5.070 -3.7475  0.3161  3.4347
 4894TIP3    H236174   4.520   2.497   5.174  0.7345 -0.4909  0.5321
 4895TIP3   OH236175   3.375   0.636   0.775  0.4270 -0.0772 -0.2543
 4895TIP3    H136176   3.390   0.548   0.811 -0.7372 -0.1994 -0.0446
 4895TIP3    H236177   3.284   0.636   0.748  0.7458  0.6769 -1.3978
 4896TIP3   OH236178   1.350   0.084   2.908 -0.1053  0.2524 -0.3055
 4896TIP3    H136179   1.285   0.099   2.977 -0.2050 -0.9128 -0.1239
 4896TIP3    H236180   1.321   0.139   2.835 -0.4772  0.8432  0.2706
 4897TIP3   OH236181   6.498   3.334  15.636 -0.1388 -0.2950 -0.0190
 4897TIP3    H136182   6.514   3.424  15.664 -0.2596 -0.0707 -0.6488
 4897TIP3    H236183   6.575   3.310  15.584 -0.2847 -0.4124 -0.1858
 4898TIP3   OH236184   6.482   1.022  12.062  0.1355  0.2131 -0.2739
 4898TIP3    H136185   6.530   0.968  11.999 -0.1843  0.0292 -0.3630
 4898TIP3    H236186   6.391   0.999  12.049  0.0882 -0.0576  0.4793
 4899TIP3   OH236187   5.816   6.282  12.917 -0.8447 -0.0022 -0.3689
 4899TIP3    H136188   5.762   6.203  12.926  0.9152 -1.5951 -2.5251
 4899TIP3    H236189   5.840   6.305  13.007 -1.8859 -1.5743  0.3645
 4900TIP3   OH236190   5.771   3.446  16.741  0.3081  0.3171  0.0748
 4900TIP3    H136191   5.842   3.425  16.681  0.5683  1.6331 -0.1184
 4900TIP3    H236192   5.804   3.519  16.794 -1.3062  1.8297 -0.8810
 4901TIP3   OH236193   1.206   3.877  16.660 -0.2477 -0.1950 -0.4239
 4901TIP3    H136194   1.134   3.840  16.711  0.9881 -0.7183  1.0233
 4901TIP3    H236195   1.261   3.921  16.724  1.1887 -0.5741 -1.3431
 4902TIP3   OH236196   0.696   1.900   2.413 -0.1657 -0.2834 -0.0125
 4902TIP3    H136197   0.668   1.951   2.489 -1.1030 -1.1933  0.2813
 4902TIP3    H236198   0.725   1.966   2.350  2.2407  0.4227  1.7040
 4903TIP3   OH236199   6.011   3.450  16.601  0.0188 -0.4067  0.0371
 4903TIP3    H136200   6.079   3.387  16.625 -0.7954 -1.9102 -1.3593
 4903TIP3    H236201   6.058   3.522  16.559  0.7597 -1.6590 -1.3918
 4904TIP3   OH236202   1.638   3.750   2.019 -0.1676 -0.3281  0.3220
 4904TIP3    H136203   1.623   3.800   2.099 -0.4359  0.6152 -0.3079
 4904TIP3    H236204   1.596   3.801   1.950 -1.1544 -1.8206 -0.2282
 4905TIP3   OH236205   4.812   4.660   1.225 -0.4029 -0.5699 -0.4916
 4905TIP3    H136206   4.892   4.627   1.266  1.0630  2.5154 -0.6419
 4905TIP3    H236207   4.786   4.591   1.164  2.1119 -1.6756 -0.4256
 4906TIP3   OH236208   5.341   0.509   3.068 -0.8547  0.2232  0.4280
 4906TIP3    H136209   5.307   0.444   3.006 -2.3738  1.0722  0.3242
 4906TIP3    H236210   5.290   0.496   3.147  0.4015 -0.1906  1.1997
 4907TIP3   OH236211   0.163   0.578  16.251 -0.5299  0.4444 -0.2618
 4907TIP3    H136212   0.170   0.609  16.161  0.3694  0.0943 -0.3250
 4907TIP3    H236213   0.091   0.629  16.289 -1.5313 -0.0548 -1.4293
 4908TIP3   OH236214   6.369   1.406   3.675  0.2537 -0.4574 -0.2942
 4908TIP3    H136215   6.451   1.359   3.658  0.5100  0.0035 -0.3319
 4908TIP3    H236216   6.376   1.486   3.624 -1.0561 -1.2895 -1.8749
 4909TIP3   OH236217   2.169   2.652  15.635  0.3070 -0.4943  0.3270
 4909TIP3    H136218   2.149   2.668  15.543 -0.5397 -1.3516  0.3480
 4909TIP3    H236219   2.263   2.633  15.636  0.4895  0.3247 -0.2368
 4910TIP3   OH236220   6.286   2.728   6.122  0.0642  0.0680 -0.4278
 4910TIP3    H136221   6.340   2.769   6.055 -0.3140 -0.6500 -1.1941
 4910TIP3    H236222   6.344   2.662   6.162  0.9367  1.8189  1.3636
 4911TIP3   OH236223   2.921   1.229   2.145 -0.6853  0.2712  0.0945
 4911TIP3    H136224   2.891   1.276   2.222  0.7565  0.4914  0.5429
 4911TIP3    H236225   3.011   1.204   2.164 -1.2158 -2.3032 -0.3124
 4912TIP3   OH236226   4.851   6.287   2.176 -0.5236 -0.2410 -0.5014
 4912TIP3    H136227   4.935   6.245   2.160 -0.2639 -0.8208  1.9488
 4912TIP3    H236228   4.865   6.379   2.155  0.5549 -0.4390 -0.6845
 4913TIP3   OH236229   0.227   6.359   6.459 -0.0452 -0.7633 -0.0754
 4913TIP3    H136230   0.314   6.321   6.469  0.5384  0.6105  0.3119
 4913TIP3    H236231   0.235   6.447   6.495 -1.9244 -1.0295  1.1549
 4914TIP3   OH236232   5.028   1.167  13.322  0.4304 -0.2382 -0.0860
 4914TIP3    H136233   4.989   1.252  13.300  0.8828  0.4815  1.6845
 4914TIP3    H236234   5.122   1.182  13.318  0.5339 -1.0334 -1.0036
 4915TIP3   OH236235   6.008   2.187  15.023 -0.2803  0.1627  0.2315
 4915TIP3    H136236   6.073   2.129  15.063 -0.5559 -1.2080 -1.2217
 4915TIP3    H236237   5.927   2.136  15.023 -0.6387  0.7143 -0.6876
 4916TIP3   OH236238   5.382   1.039  14.517  0.7392  0.2245 -0.4059
 4916TIP3    H136239   5.424   1.034  14.603 -0.3715 -0.5629  0.1175
 4916TIP3    H236240   5.339   0.954  14.506 -1.2220  1.1864 -0.6301
 4917TIP3   OH236241   5.891   6.025  13.719 -0.2660  0.3663  0.6628
 4917TIP3    H136242   5.829   5.952  13.723 -1.3373  1.1351 -0.6995
 4917TIP3    H236243   5.871   6.078  13.797  0.5293 -0.7523  1.6651
 4918TIP3   OH236244   6.370   0.382  12.347 -0.4511  0.0761  0.2011
 4918TIP3    H136245   6.464   0.380  12.329 -0.1869 -1.7904  1.4793
 4918TIP3    H236246   6.362   0.426  12.431 -0.5322 -1.1382  0.8532
 4919TIP3   OH236247   1.980   4.087   0.811  0.4565  0.2660  0.0843
 4919TIP3    H136248   1.951   4.115   0.724 -0.4930 -0.0591  0.2860
 4919TIP3    H236249   2.048   4.022   0.794 -0.8976 -1.0721 -0.4661
 4920TIP3   OH236250   4.663   0.814  16.225  0.5553  0.0608 -0.0768
 4920TIP3    H136251   4.629   0.902  16.242  0.1897 -0.4025  1.8194
 4920TIP3    H236252   4.754   0.818  16.252  0.4161 -0.2459  0.4591
 4921TIP3   OH236253   6.350   5.501   1.820  0.1059 -0.2676  0.0944
 4921TIP3    H136254   6.327   5.529   1.732  1.5991  1.6674  0.2497
 4921TIP3    H236255   6.382   5.580   1.863  1.1909 -1.5411  1.7749
 4922TIP3   OH236256   6.525   1.642   0.745 -0.3011  0.1578 -0.5005
 4922TIP3    H136257   6.616   1.623   0.768 -0.1908  0.0458 -1.0239
 4922TIP3    H236258   6.524   1.642   0.649 -0.9828 -0.4572 -0.4956
 4923TIP3   OH236259   1.601   2.021   2.691  0.0712  0.4152  0.0686
 4923TIP3    H136260   1.519   2.003   2.736 -0.0943  0.4580 -0.2128
 4923TIP3    H236261   1.605   2.116   2.684 -0.2639  0.3827 -0.6587
 4924TIP3   OH236262   0.657   5.626   5.255 -0.0904 -0.2128  0.2465
 4924TIP3    H136263   0.751   5.646   5.262 -0.0847 -0.3606  0.6791
 4924TIP3    H236264   0.647   5.545   5.305 -0.8257  1.0068  2.1856
 4925TIP3   OH236265   6.464   4.484  11.501  0.4130 -0.4982 -0.1107
 4925TIP3    H136266   6.445   4.390  11.495  0.8319 -0.5177 -1.2177
 4925TIP3    H236267   6.510   4.505  11.420 -0.5675  0.8771 -0.3513
 4926TIP3   OH236268   6.685   4.650   3.289  0.4773 -0.0702  0.5013
 4926TIP3    H136269   6.711   4.724   3.344  1.5483  0.2236 -0.3556
 4926TIP3    H236270   6.681   4.687   3.201  1.7464 -1.1690 -0.0618
 4927TIP3   OH236271   4.304   4.904  16.323  0.4320 -0.8397 -0.2781
 4927TIP3    H136272   4.391   4.899  16.284 -0.2657 -1.1135 -1.9108
 4927TIP3    H236273   4.244   4.892  16.249 -0.9884 -1.1472  0.8662
 4928TIP3   OH236274   0.925   4.325   4.189 -0.3369  0.0675  0.2144
 4928TIP3    H136275   0.842   4.327   4.141  0.4591  0.3249 -1.1978
 4928TIP3    H236276   0.954   4.416   4.190  0.4055 -0.1609 -0.1639
 4929TIP3   OH236277   4.195   2.541  11.421  0.1668 -0.7697  0.8803
 4929TIP3    H136278   4.272   2.492  11.449 -0.6388 -2.2805  0.5257
 4929TIP3    H236279   4.216   2.632  11.441  2.7185 -0.9259 -0.6809
 4930TIP3   OH236280   0.370   6.471   3.710 -0.3325 -0.4380  0.0865
 4930TIP3    H136281   0.358   6.415   3.633 -0.1392 -0.0231 -0.2546
 4930TIP3    H236282   0.465   6.486   3.714 -0.2074 -1.4291  1.1105
 4931TIP3   OH236283   5.926   1.217  12.813  0.1074 -0.5772 -0.2326
 4931TIP3    H136284   5.832   1.207  12.823  0.3403 -0.4878  3.2696
 4931TIP3    H236285   5.938   1.311  12.797 -0.3966 -0.5987 -0.7491
 4932TIP3   OH236286   1.791   6.715   6.081  0.0988  0.1831 -0.6801
 4932TIP3    H136287   1.811   6.780   6.149 -0.5546  0.4638 -0.7410
 4932TIP3    H236288   1.833   6.749   6.002  3.1608 -1.4707  0.0891
 4933TIP3   OH236289   6.349   2.189   0.609 -0.5724 -0.5250 -0.3349
 4933TIP3    H136290   6.278   2.159   0.551 -2.3762  0.2604  1.3557
 4933TIP3    H236291   6.314   2.178   0.697  0.9197  1.0996  0.5250
 4934TIP3   OH236292   1.866   3.237   5.310  0.2203 -0.1179 -0.4890
 4934TIP3    H136293   1.816   3.223   5.391  1.1611 -1.6681 -0.1229
 4934TIP3    H236294   1.886   3.148   5.280 -0.4831  0.4134 -2.6975
 4935TIP3   OH236295   5.205   6.223   3.625 -0.0193 -0.1145  0.2947
 4935TIP3    H136296   5.277   6.190   3.571 -0.9755  1.2928 -2.0104
 4935TIP3    H236297   5.242   6.297   3.672  0.4457 -0.3595  0.3164
 4936TIP3   OH236298   3.365   3.322  14.445 -0.8062  0.3266 -0.5975
 4936TIP3    H136299   3.435   3.346  14.506 -0.2993  0.7483 -1.3312
 4936TIP3    H236300   3.314   3.256  14.492 -0.3881  0.5956  0.2563
 4937TIP3   OH236301   4.136   4.264   2.807 -0.7065  0.3255 -0.0617
 4937TIP3    H136302   4.057   4.285   2.756 -0.8884 -0.9800 -0.3567
 4937TIP3    H236303   4.141   4.169   2.804 -0.1066  0.2918  1.4655
 4938TIP3   OH236304   0.355   6.100  10.805  0.4167  0.0653 -0.4454
 4938TIP3    H136305   0.380   6.045  10.731  1.1737  1.0982 -0.9897
 4938TIP3    H236306   0.437   6.142  10.832 -0.4828  2.8136 -1.6491
 4939TIP3   OH236307   1.436   6.226  16.003  0.6016 -0.1754 -0.4410
 4939TIP3    H136308   1.506   6.275  16.046  1.6361  0.0909 -2.2995
 4939TIP3    H236309   1.446   6.247  15.910 -2.4029  0.4302 -0.7316
 4940TIP3   OH236310   4.442   6.400   6.129  0.1080 -0.3543 -0.0476
 4940TIP3    H136311   4.386   6.472   6.155 -1.1417 -2.1803  2.7576
 4940TIP3    H236312   4.497   6.382   6.206  0.8898 -1.9178 -0.9074
 4941TIP3   OH236313   1.547   2.286  14.512 -0.1800  0.1239 -0.1381
 4941TIP3    H136314   1.492   2.327  14.579  1.1148  0.1769  0.9474
 4941TIP3    H236315   1.568   2.200  14.547 -0.7650 -0.4786 -1.2247
 4942TIP3   OH236316   2.401   2.238  12.189 -0.2722 -0.0044 -0.4015
 4942TIP3    H136317   2.361   2.212  12.105 -0.0460 -1.8357  0.0134
 4942TIP3    H236318   2.495   2.239  12.171 -0.2728  0.4354 -0.3804
 4943TIP3   OH236319   2.512   2.253  13.585  0.3410  0.1750  0.0968
 4943TIP3    H136320   2.438   2.305  13.617  0.8765  0.7959  0.3585
 4943TIP3    H236321   2.572   2.318  13.549  1.0409 -0.2683  0.4500
 4944TIP3   OH236322   3.451   5.049  15.417 -0.5860 -0.0614 -0.0231
 4944TIP3    H136323   3.403   5.011  15.490  0.6327 -2.4182 -0.3605
 4944TIP3    H236324   3.432   4.991  15.343  0.9142  0.2798 -0.7166
 4945TIP3   OH236325   2.974   6.053  12.594  0.0914  0.0117  0.1557
 4945TIP3    H136326   2.897   6.050  12.650 -0.0819  0.7649 -0.0329
 4945TIP3    H236327   3.021   5.972  12.614 -0.1088  0.1366  1.1843
 4946TIP3   OH236328   4.410   0.211   4.724 -0.2902  0.3627  0.0721
 4946TIP3    H136329   4.404   0.218   4.819 -2.7856  0.4672 -0.0131
 4946TIP3    H236330   4.503   0.203   4.705  0.1700 -1.4166  2.6510
 4947TIP3   OH236331   6.665   2.092  12.397 -0.4867 -0.3551 -0.2259
 4947TIP3    H136332   6.736   2.133  12.348 -1.3012  2.4723  0.7036
 4947TIP3    H236333   6.698   2.085  12.486 -0.6763 -0.9561 -0.2002
 4948TIP3   OH236334   1.401   2.298  12.356  0.3826  0.0961 -0.1236
 4948TIP3    H136335   1.468   2.303  12.288 -0.5208 -1.9948 -1.2961
 4948TIP3    H236336   1.319   2.288  12.307 -0.2986 -1.3939  1.2211
 4949TIP3   OH236337   2.787   0.532  16.430  0.0224 -0.5379 -0.1909
 4949TIP3    H136338   2.798   0.580  16.512  0.4393  0.1881 -0.6595
 4949TIP3    H236339   2.692   0.522  16.420 -0.0354 -0.4379  0.2695
 4950TIP3   OH236340   6.689   4.371   4.576  0.3300  0.3240  0.2300
 4950TIP3    H136341   6.721   4.283   4.560 -1.7471 -0.1822 -1.6059
 4950TIP3    H236342   6.623   4.361   4.644 -0.5381  0.2657 -0.5913
 4951TIP3   OH236343   6.289   1.821   4.668 -0.4650  0.2071 -0.7299
 4951TIP3    H136344   6.205   1.812   4.713 -0.1555  0.4967 -0.0782
 4951TIP3    H236345   6.347   1.761   4.716 -0.4433 -0.4410 -1.5484
 4952TIP3   OH236346   1.762   6.496  12.269  0.0452 -0.3902  0.0447
 4952TIP3    H136347   1.717   6.579  12.256 -0.4218 -0.7165 -0.4636
 4952TIP3    H236348   1.699   6.441  12.316  1.3353  0.4329  3.0106
 4953TIP3   OH236349   5.346   3.100  11.349  0.3793  0.2235  0.3102
 4953TIP3    H136350   5.427   3.103  11.300  1.3230 -0.4118  1.7622
 4953TIP3    H236351   5.371   3.069  11.436 -1.4507 -0.2655  0.7184
 4954TIP3   OH236352   1.131   1.193  17.079 -0.8745  0.0608  0.1010
 4954TIP3    H136353   1.200   1.135  17.049 -2.5258 -0.6583 -2.6804
 4954TIP3    H236354   1.085   1.144  17.147  0.3242 -0.1068  0.8056
 4955TIP3   OH236355   6.174   3.826   5.471  0.2468 -0.5295  0.0493
 4955TIP3    H136356   6.231   3.828   5.548  4.3976 -0.1332 -2.7072
 4955TIP3    H236357   6.134   3.913   5.468 -0.6422 -0.8193  2.0692
 4956TIP3   OH236358   4.608   5.609  16.080 -0.1004 -0.5914 -0.3983
 4956TIP3    H136359   4.599   5.517  16.105  0.7912 -0.7558 -0.6548
 4956TIP3    H236360   4.549   5.656  16.139  0.3443 -1.2006  0.5544
 4957TIP3   OH236361   6.605   1.824  15.399 -0.4687  0.1284 -0.6441
 4957TIP3    H136362   6.619   1.917  15.413  1.4564 -0.4279  1.8391
 4957TIP3    H236363   6.691   1.791  15.371 -0.9240 -1.0228 -0.7352
 4958TIP3   OH236364   6.572   0.461  14.440  0.5595  0.2154  0.2082
 4958TIP3    H136365   6.620   0.462  14.357  0.0467 -0.7661 -0.1206
 4958TIP3    H236366   6.533   0.548  14.447 -1.2134 -0.3637 -1.6821
 4959TIP3   OH236367   0.195   5.163   0.803 -0.1746  0.5193 -0.2779
 4959TIP3    H136368   0.116   5.168   0.750 -0.5501  2.1660  0.3897
 4959TIP3    H236369   0.266   5.166   0.739 -0.6314 -0.4855 -0.8542
 4960TIP3   OH236370   0.662   3.969   4.446 -0.0986  0.0368  0.2468
 4960TIP3    H136371   0.654   4.005   4.358 -0.7534 -0.8264 -0.0571
 4960TIP3    H236372   0.580   3.920   4.460 -0.2698  0.6321  1.5522
 4961TIP3   OH236373   3.573   1.801  11.228  0.0071  0.1793  0.0049
 4961TIP3    H136374   3.506   1.796  11.160  0.0694  0.4241 -0.0738
 4961TIP3    H236375   3.596   1.894  11.233 -0.0094  0.1660  0.3719
 4962TIP3   OH236376   5.437   4.600   0.716  0.0014 -0.3198  0.1548
 4962TIP3    H136377   5.528   4.572   0.715 -0.0703 -0.5517 -0.9361
 4962TIP3    H236378   5.428   4.652   0.796  0.3579 -2.6185  1.7743
 4963TIP3   OH236379   0.316   5.402   0.013  0.2362  0.5010 -0.0113
 4963TIP3    H136380   0.228   5.365   0.007 -0.1968  1.1054  1.6899
 4963TIP3    H236381   0.336   5.400   0.107  2.0691  0.3396 -0.3651
 4964TIP3   OH236382   6.245   3.833  15.521 -0.0443 -0.4695 -0.7148
 4964TIP3    H136383   6.215   3.770  15.587 -0.1715  0.4069  0.0871
 4964TIP3    H236384   6.199   3.915  15.544  0.0783 -0.0987 -1.7636
 4965TIP3   OH236385   6.818   4.618   2.222  0.2905  0.3425  0.0070
 4965TIP3    H136386   6.821   4.710   2.247  0.1399  0.5516 -0.7123
 4965TIP3    H236387   6.840   4.618   2.128 -1.5682 -0.1444 -0.4696
 4966TIP3   OH236388   3.641   4.661  12.116 -0.0804 -1.1464 -0.0116
 4966TIP3    H136389   3.732   4.635  12.101  0.5682  0.8987  0.1157
 4966TIP3    H236390   3.616   4.708  12.036  0.1177  1.1968  1.2239
 4967TIP3   OH236391   2.588   2.346  12.976 -0.3051  0.2212  0.5543
 4967TIP3    H136392   2.538   2.320  13.053  2.1298 -2.2121  1.4832
 4967TIP3    H236393   2.611   2.264  12.933  0.7617  1.3586 -1.1885
 4968TIP3   OH236394   2.261   0.746   0.319  0.1486 -0.7470  0.6497
 4968TIP3    H136395   2.340   0.784   0.358 -0.2368 -0.2494  0.9737
 4968TIP3    H236396   2.215   0.706   0.392  0.1829 -1.1789  0.4338
 4969TIP3   OH236397   0.893   4.170   4.431 -0.1946 -0.4652 -1.0934
 4969TIP3    H136398   0.892   4.252   4.381 -1.1714 -0.5813 -1.2953
 4969TIP3    H236399   0.801   4.157   4.455  0.2823 -0.2721  0.9844
 4970TIP3   OH236400   3.729   1.200  15.895  0.1838 -0.0225 -0.1846
 4970TIP3    H136401   3.806   1.185  15.950 -0.5305 -3.6690  0.0507
 4970TIP3    H236402   3.729   1.127  15.833 -1.2053  1.8181 -2.5531
 4971TIP3   OH236403   2.217   0.661  10.927  0.0727  0.4540  0.0925
 4971TIP3    H136404   2.251   0.583  10.971 -0.3631  0.7320  0.9355
 4971TIP3    H236405   2.122   0.654  10.934  0.0320  1.1749  0.3842
 4972TIP3   OH236406   5.420   3.804   3.321 -0.8658  0.6154  0.6389
 4972TIP3    H136407   5.479   3.790   3.247 -1.1074  0.2329  0.5187
 4972TIP3    H236408   5.397   3.716   3.351 -0.6604  0.7660  1.2551
 4973TIP3   OH236409   3.817   3.821   0.425  0.5375  0.1885 -0.1090
 4973TIP3    H136410   3.733   3.812   0.469  1.0134 -1.5941  0.5445
 4973TIP3    H236411   3.817   3.751   0.359  1.0928  0.8247 -0.7931
 4974TIP3   OH236412   4.291   0.251   2.547 -0.0252  0.7356 -0.1763
 4974TIP3    H136413   4.291   0.256   2.451 -1.1073  1.3378 -0.1573
 4974TIP3    H236414   4.260   0.337   2.576 -3.7634 -0.6690  0.5899
 4975TIP3   OH236415   2.123   0.389   2.320 -0.3505  0.0304 -0.4789
 4975TIP3    H136416   2.110   0.295   2.331  2.2968 -0.4935 -1.1393
 4975TIP3    H236417   2.134   0.401   2.226  0.6905  0.7662 -0.2830
 4976TIP3   OH236418   1.939   5.166   4.618 -0.4600 -0.3728  0.3321
 4976TIP3    H136419   2.020   5.121   4.598  0.3038  1.0641  0.0596
 4976TIP3    H236420   1.947   5.190   4.711  0.8369  2.3741 -0.3719
 4977TIP3   OH236421   6.508   0.592   5.130 -0.0686  1.0925  0.4555
 4977TIP3    H136422   6.440   0.597   5.196  0.0935 -0.6633  0.8053
 4977TIP3    H236423   6.584   0.556   5.176  0.3368  0.7295 -0.4647
 4978TIP3   OH236424   1.471   1.012   5.660  0.0550  0.0075 -0.1574
 4978TIP3    H136425   1.457   0.979   5.749 -0.0345  1.4138  0.3742
 4978TIP3    H236426   1.434   0.944   5.603  2.1811 -2.0574  0.7378
 4979TIP3   OH236427   0.511   4.969  12.889  0.4747 -0.0612  0.7619
 4979TIP3    H136428   0.584   4.931  12.937  0.3312  0.9431  1.8077
 4979TIP3    H236429   0.439   4.972  12.951 -0.8500 -2.0337 -0.5573
 4980TIP3   OH236430   6.810   0.200  10.954 -0.3634  0.4796  0.4077
 4980TIP3    H136431   6.805   0.137  11.026  0.5190 -0.3813 -0.2508
 4980TIP3    H236432   6.903   0.225  10.951 -0.6368  1.5386  0.4245
 4981TIP3   OH236433   0.645   6.128  11.940  0.5673 -0.2759  0.1532
 4981TIP3    H136434   0.616   6.038  11.926  1.9046 -0.6195 -0.6248
 4981TIP3    H236435   0.639   6.169  11.854 -1.0253  0.7170  0.7016
 4982TIP3   OH236436   0.041   0.597  12.386  0.2102  0.5972  0.8140
 4982TIP3    H136437   0.110   0.537  12.359 -0.3311 -0.1988  1.1684
 4982TIP3    H236438   0.004   0.558  12.465 -1.4181  0.3935 -0.0139
 4983TIP3   OH236439   1.833   2.130  12.573 -0.3380 -0.0649  0.2457
 4983TIP3    H136440   1.807   2.052  12.523  0.4605  0.3762 -0.9235
 4983TIP3    H236441   1.923   2.146  12.545  0.0527  0.3491  1.6950
 4984TIP3   OH236442   1.669   3.643  16.764  0.1217 -0.0348 -0.0435
 4984TIP3    H136443   1.727   3.597  16.704 -0.7699 -1.3809  0.0958
 4984TIP3    H236444   1.583   3.637  16.724 -0.5369 -1.1643  1.4635
 4985TIP3   OH236445   1.185   6.121  15.767 -0.1324  0.6388  0.3201
 4985TIP3    H136446   1.111   6.069  15.736  1.6589 -0.5012 -2.4134
 4985TIP3    H236447   1.149   6.173  15.839 -3.4600 -0.1380 -0.6093
 4986TIP3   OH236448   2.743   4.185   1.271  0.1287 -0.1562  0.0091
 4986TIP3    H136449   2.730   4.116   1.337 -3.1559  0.1558 -0.1664
 4986TIP3    H236450   2.742   4.139   1.187  0.2002 -0.1198 -0.0119
 4987TIP3   OH236451   1.265   4.328   5.623 -0.3889  0.1965  0.5432
 4987TIP3    H136452   1.249   4.406   5.570  0.4180  0.5579  0.8173
 4987TIP3    H236453   1.359   4.314   5.617 -0.6570 -1.4222 -0.4113
 4988TIP3   OH236454   2.298   4.639   5.286 -0.3014 -0.5377 -0.5184
 4988TIP3    H136455   2.237   4.706   5.256 -0.2234 -0.4164 -0.4047
 4988TIP3    H236456   2.244   4.561   5.296 -0.2096 -0.7593 -1.6085
 4989TIP3   OH236457   6.360   4.347   1.394  0.0331 -0.1620 -0.5862
 4989TIP3    H136458   6.406   4.374   1.314  0.1467  0.4878 -0.3050
 4989TIP3    H236459   6.315   4.425   1.423  4.1861  1.3202  2.9162
 4990TIP3   OH236460   4.151   1.913  13.218  0.1438 -0.2482  0.8015
 4990TIP3    H136461   4.246   1.926  13.216 -0.1770  2.6643 -0.5882
 4990TIP3    H236462   4.136   1.840  13.159  1.4431  0.5176 -0.5739
 4991TIP3   OH236463   3.722   5.309   0.997  0.8598  0.0805 -0.3939
 4991TIP3    H136464   3.773   5.255   1.057 -0.1427  1.0198  1.3956
 4991TIP3    H236465   3.658   5.249   0.958  0.7016 -0.3046  0.4546
 4992TIP3   OH236466   4.282   1.076  15.091  0.1519  0.2879  0.2518
 4992TIP3    H136467   4.360   1.031  15.124 -0.6841  0.3673  2.5062
 4992TIP3    H236468   4.265   1.036  15.006  1.4850 -1.1621  0.6294
 4993TIP3   OH236469   5.143   1.957   1.208 -0.3301  0.0645 -0.1543
 4993TIP3    H136470   5.138   1.951   1.112 -0.7234  0.3341 -0.1554
 4993TIP3    H236471   5.190   1.878   1.234 -1.0617 -0.5043 -0.5049
 4994TIP3   OH236472   5.854   2.824  10.423  0.5209 -0.2889  0.3732
 4994TIP3    H136473   5.921   2.874  10.472  0.4363 -1.4821  1.7732
 4994TIP3    H236474   5.774   2.834  10.475 -0.1609  0.2467 -0.7333
 4995TIP3   OH236475   5.256   1.950  13.819  0.4849 -0.1407 -0.9633
 4995TIP3    H136476   5.233   2.030  13.771 -0.5789  0.1966  0.0387
 4995TIP3    H236477   5.327   1.977  13.877 -1.0804  0.6601  0.7248
 4996TIP3   OH236478   1.104   0.842  11.159 -0.2830  0.0132  1.0448
 4996TIP3    H136479   1.187   0.806  11.190  0.0550  0.3846  0.5935
 4996TIP3    H236480   1.095   0.925  11.205  0.4707  0.8110 -0.1703
 4997TIP3   OH236481   2.794   6.764  11.147 -0.5693 -0.2628 -0.0526
 4997TIP3    H136482   2.720   6.705  11.132 -1.1563  0.4463  0.0086
 4997TIP3    H236483   2.862   6.732  11.087 -0.9494 -0.8621 -0.1771
 4998TIP3   OH236484   6.214   0.258   2.407 -0.1037  0.4858 -0.0272
 4998TIP3    H136485   6.261   0.314   2.469 -0.7196 -0.7783  1.6473
 4998TIP3    H236486   6.189   0.181   2.458 -1.9322  0.0538 -1.4716
 4999TIP3   OH236487   6.301   1.550  16.619 -0.2511 -0.1047 -0.1220
 4999TIP3    H136488   6.253   1.628  16.646  2.1665  1.3640  0.2174
 4999TIP3    H236489   6.328   1.508  16.701  1.2355  0.5593 -0.2375
 5000TIP3   OH236490   2.318   5.719   1.924  0.2541 -0.9250 -0.3453
 5000TIP3    H136491   2.231   5.688   1.950  0.0643  0.2169  0.4458
 5000TIP3    H236492   2.374   5.696   1.998 -0.1169  1.5585  0.8001
 5001TIP3   OH236493   6.173   1.669  11.854 -0.7870  0.6972 -0.4185
 5001TIP3    H136494   6.225   1.746  11.834  2.9195 -1.0382  1.4155
 5001TIP3    H236495   6.183   1.658  11.949 -2.8359 -0.9398 -0.3332
 5002TIP3   OH236496   0.310   6.126  16.381 -0.4152  0.2490 -0.0905
 5002TIP3    H136497   0.244   6.060  16.405 -0.2730  0.1740  0.0951
 5002TIP3    H236498   0.393   6.078  16.382 -0.4952  0.0187 -1.6027
 5003TIP3   OH236499   6.084   1.912   2.204 -0.4451 -0.2252 -0.1193
 5003TIP3    H136500   6.134   1.850   2.257  0.0683  0.0074 -0.3244
 5003TIP3    H236501   6.023   1.952   2.266  1.0460  1.0223  0.6240
 5004TIP3   OH236502   5.848   1.160   3.062 -0.2310 -0.6766 -0.2496
 5004TIP3    H136503   5.923   1.220   3.063 -0.0515 -0.8960  0.7347
 5004TIP3    H236504   5.873   1.089   3.121 -1.8911  0.1298  1.5574
 5005TIP3   OH236505   2.522   5.619  12.629  0.3311  0.1240  0.5190
 5005TIP3    H136506   2.563   5.672  12.697  1.5973 -1.2211  0.8618
 5005TIP3    H236507   2.531   5.529  12.661 -1.0629 -0.3706 -0.3983
 5006TIP3   OH236508   5.810   5.825   3.860 -0.5821 -0.1763 -0.3609
 5006TIP3    H136509   5.819   5.890   3.930 -0.6362  1.1008 -1.5052
 5006TIP3    H236510   5.816   5.875   3.779 -1.8706 -1.4274 -1.2866
 5007TIP3   OH236511   0.491   6.263   6.448  0.4346 -0.1538  0.0428
 5007TIP3    H136512   0.563   6.247   6.509  0.0709 -0.6432  0.3495
 5007TIP3    H236513   0.504   6.198   6.379  0.3056 -0.2192  0.0807
 5008TIP3   OH236514   0.807   4.344   2.320  0.7006  0.6487 -0.2540
 5008TIP3    H136515   0.817   4.328   2.414 -0.2417 -0.0407 -0.2543
 5008TIP3    H236516   0.870   4.284   2.279 -0.4067 -0.6762 -0.1172
 5009TIP3   OH236517   6.529   4.653   5.705 -0.1112  0.4994  0.0314
 5009TIP3    H136518   6.510   4.571   5.659  2.0663  0.3326 -0.6583
 5009TIP3    H236519   6.450   4.670   5.756 -0.4169 -2.3947  0.7189
 5010TIP3   OH236520   0.675   4.516   4.233  0.3653  0.1090 -0.1828
 5010TIP3    H136521   0.707   4.528   4.323  1.9062 -0.8312 -0.5726
 5010TIP3    H236522   0.602   4.454   4.243  1.1181 -0.7183  0.3402
 5011TIP3   OH236523   1.198   6.586   5.914  0.2267 -0.8777 -0.2337
 5011TIP3    H136524   1.222   6.676   5.890  0.6065 -0.9968 -0.3054
 5011TIP3    H236525   1.213   6.582   6.008  0.3619 -0.9134 -0.2569
 5012TIP3   OH236526   4.316   0.877   2.772  0.1693  0.3119  0.0270
 5012TIP3    H136527   4.291   0.966   2.749  0.1463  0.4174  0.4375
 5012TIP3    H236528   4.258   0.854   2.845  1.0873  0.4723  0.8319
 5013TIP3   OH236529   3.390   2.187   3.348 -0.7298 -0.2076 -0.4787
 5013TIP3    H136530   3.414   2.177   3.440 -2.3336 -1.3913 -0.1343
 5013TIP3    H236531   3.466   2.227   3.307 -0.6691  2.1823  1.7164
 5014TIP3   OH236532   1.909   4.345  14.313 -0.6439  0.0149  0.4996
 5014TIP3    H136533   1.973   4.296  14.364 -0.1381  0.8524  0.6748
 5014TIP3    H236534   1.916   4.309  14.225 -1.7361 -1.6522  1.0358
 5015TIP3   OH236535   3.627   6.510   4.313 -0.1273 -0.5090  0.4192
 5015TIP3    H136536   3.651   6.572   4.382  0.3358  0.4302 -0.5723
 5015TIP3    H236537   3.538   6.483   4.335  0.2744 -0.8152  1.7965
 5016TIP3   OH236538   2.716   2.484  15.307 -0.1983  0.5044 -0.5742
 5016TIP3    H136539   2.624   2.455  15.310 -0.3828  1.0183 -1.1291
 5016TIP3    H236540   2.719   2.557  15.369  0.0881 -0.1722  0.2345
 5017TIP3   OH236541   3.677   2.703   1.024  0.6725 -0.9579  0.2241
 5017TIP3    H136542   3.632   2.748   1.095  1.8529 -0.0067  0.3934
 5017TIP3    H236543   3.626   2.723   0.946  2.1846  2.3913 -0.0680
 5018TIP3   OH236544   5.152   4.507  12.178 -0.3560  0.0307 -0.6995
 5018TIP3    H136545   5.112   4.495  12.264  1.4709  3.4871  0.8692
 5018TIP3    H236546   5.082   4.542  12.123 -0.7688  1.1480  0.4856
 5019TIP3   OH236547   4.925   1.354  14.893  0.0869  0.0652  0.4084
 5019TIP3    H136548   4.868   1.389  14.961 -0.1667 -0.9613  0.7398
 5019TIP3    H236549   4.865   1.319  14.827  0.3289 -0.2980  0.3766
 5020TIP3   OH236550   5.144   5.195   4.272  0.0273 -0.0223 -0.2122
 5020TIP3    H136551   5.164   5.249   4.349  1.0394  0.3148 -0.7004
 5020TIP3    H236552   5.124   5.257   4.203 -3.1411 -0.3070  0.2712
 5021TIP3   OH236553   3.569   4.401   4.461 -0.4581  0.4663 -1.1486
 5021TIP3    H136554   3.647   4.450   4.486 -0.5209 -0.0893  0.2352
 5021TIP3    H236555   3.601   4.312   4.446 -0.9461 -0.0004  0.4104
 5022TIP3   OH236556   1.209   5.995  10.696 -0.5976  0.3923  0.0705
 5022TIP3    H136557   1.181   5.955  10.613 -1.3010  1.7827 -0.4015
 5022TIP3    H236558   1.213   5.921  10.757 -1.2692 -0.4939 -0.8945
 5023TIP3   OH236559   0.652   6.076   1.666 -0.7634  0.2706  0.2239
 5023TIP3    H136560   0.748   6.073   1.662 -0.7459  0.8414  0.0757
 5023TIP3    H236561   0.632   6.168   1.686 -1.3361  0.8332 -2.4852
 5024TIP3   OH236562   4.214   6.141   5.673 -0.0660  0.1272  0.0630
 5024TIP3    H136563   4.237   6.227   5.637 -0.8979  0.5793  0.6021
 5024TIP3    H236564   4.222   6.152   5.768  3.0449 -1.3171  0.0912
 5025TIP3   OH236565   4.785   6.437   0.088 -0.2997  0.1784 -0.2064
 5025TIP3    H136566   4.762   6.355   0.131 -2.2242  1.1999  0.8715
 5025TIP3    H236567   4.711   6.455   0.030  0.3741  0.8378 -0.8735
 5026TIP3   OH236568   1.488   2.717  16.916  0.3696  0.0461  0.4419
 5026TIP3    H136569   1.487   2.647  16.850 -0.6545  1.0076 -0.6021
 5026TIP3    H236570   1.481   2.671  16.999  2.3929 -1.2519 -0.0239
 5027TIP3   OH236571   2.113   5.775   2.458 -0.1155  0.3708 -0.5892
 5027TIP3    H136572   2.115   5.845   2.523  0.7616 -0.0708 -0.1208
 5027TIP3    H236573   2.084   5.817   2.377 -1.3172  0.9039  0.0997
 5028TIP3   OH236574   0.799   5.790   1.918 -0.3994  0.9263 -0.1778
 5028TIP3    H136575   0.834   5.876   1.894 -1.0012  0.8060 -1.5700
 5028TIP3    H236576   0.806   5.738   1.838  1.3465 -0.8337  1.0250
 5029TIP3   OH236577   3.444   6.423   5.690 -0.5727  0.0518 -0.1537
 5029TIP3    H136578   3.460   6.517   5.699  0.4882 -0.1907  0.7040
 5029TIP3    H236579   3.465   6.405   5.598 -0.5713  0.6033 -0.2689
 5030TIP3   OH236580   2.669   1.387   3.204  0.1462  0.1517 -0.2301
 5030TIP3    H136581   2.689   1.369   3.112 -1.8567 -0.4763 -0.5957
 5030TIP3    H236582   2.656   1.481   3.207  0.1166  0.1641 -0.6138
 5031TIP3   OH236583   3.187   5.805   2.556 -0.0965 -0.2016  0.0658
 5031TIP3    H136584   3.223   5.752   2.485 -0.2291 -0.4913  0.2154
 5031TIP3    H236585   3.260   5.816   2.617 -0.1434 -0.4428  0.1678
 5032TIP3   OH236586   2.049   4.384  15.625  0.0820  0.0895  0.2129
 5032TIP3    H136587   2.134   4.340  15.629  1.9155  3.3493  0.9549
 5032TIP3    H236588   1.999   4.349  15.698  0.4858 -2.2838 -0.5549
 5033TIP3   OH236589   5.460   0.775  14.001  0.3886  0.0897 -0.1230
 5033TIP3    H136590   5.380   0.814  13.966  0.9211  1.4806  0.1247
 5033TIP3    H236591   5.442   0.682  14.006 -0.9520  0.2990 -0.7586
 5034TIP3   OH236592   0.215   4.201   5.469 -0.5081 -0.0521  0.0977
 5034TIP3    H136593   0.152   4.139   5.506 -1.4708  0.8369  0.0188
 5034TIP3    H236594   0.293   4.149   5.452 -1.3962 -1.3204 -0.2732
 5035TIP3   OH236595   0.937   6.682   5.166  0.0059 -0.0073 -0.3737
 5035TIP3    H136596   0.897   6.697   5.252 -1.5190 -0.3403 -0.9886
 5035TIP3    H236597   1.008   6.746   5.162  0.0874  0.0475  1.1091
 5036TIP3   OH236598   0.441   0.903  11.571  0.0460 -0.9144 -0.1815
 5036TIP3    H136599   0.395   0.871  11.648  0.3513 -0.2956  0.2654
 5036TIP3    H236600   0.385   0.877  11.497  0.0632 -2.0530  0.1915
 5037TIP3   OH236601   6.714   2.022  14.071 -0.8286  0.0236  0.1708
 5037TIP3    H136602   6.733   1.935  14.106 -2.6462 -0.1422  0.8684
 5037TIP3    H236603   6.758   2.082  14.131 -1.3890 -0.3670  0.9972
 5038TIP3   OH236604   4.006   6.489  11.871 -0.1766  0.7770 -0.0960
 5038TIP3    H136605   4.056   6.458  11.795  0.3164 -1.7792  1.1791
 5038TIP3    H236606   3.920   6.449  11.861 -0.0366  0.2386  0.7859
 5039TIP3   OH236607   6.662   1.611   3.869 -0.1432 -0.0297 -0.5401
 5039TIP3    H136608   6.697   1.530   3.907 -3.6200 -2.0956 -1.3136
 5039TIP3    H236609   6.692   1.609   3.778  0.8839  0.3162 -0.2286
 5040TIP3   OH236610   0.759   0.131   3.794 -0.2150  0.0896  0.6491
 5040TIP3    H136611   0.800   0.118   3.709 -0.8648  2.7200 -0.1529
 5040TIP3    H236612   0.829   0.166   3.850 -0.3602  0.6297  0.4944
 5041TIP3   OH236613   1.848   1.192  13.941  0.6097  0.0716  0.3764
 5041TIP3    H136614   1.851   1.271  13.888  2.6377  0.2521  0.6916
 5041TIP3    H236615   1.849   1.120  13.878 -0.8231  0.2611  0.1024
 5042TIP3   OH236616   6.441   2.286  15.162  0.1209  0.3004 -0.5309
 5042TIP3    H136617   6.459   2.368  15.115 -1.2275  1.3419  0.6815
 5042TIP3    H236618   6.434   2.312  15.254 -0.1953 -1.2073 -0.1114
 5043TIP3   OH236619   1.817   4.807   2.301  0.3472 -0.0407  0.0073
 5043TIP3    H136620   1.787   4.724   2.263 -2.9945  0.0675  2.0406
 5043TIP3    H236621   1.869   4.780   2.377  3.0331 -0.1819 -1.7376
 5044TIP3   OH236622   3.379   5.160   1.687 -0.7013  0.1753 -0.0201
 5044TIP3    H136623   3.303   5.103   1.671  0.5616 -1.4176 -0.6635
 5044TIP3    H236624   3.451   5.116   1.642  0.3812  2.2559 -0.4104
 5045TIP3   OH236625   3.826   2.677  12.759  0.0250  0.7352 -0.1512
 5045TIP3    H136626   3.874   2.597  12.779  0.7487  0.9145 -1.1018
 5045TIP3    H236627   3.734   2.651  12.760  0.2379 -0.0431 -0.1645
 5046TIP3   OH236628   5.040   1.454   5.828  0.4087  0.8140 -0.2462
 5046TIP3    H136629   5.040   1.544   5.859 -0.9521  0.5255  0.6682
 5046TIP3    H236630   5.079   1.404   5.900 -0.2718  0.4918 -0.0882
 5047TIP3   OH236631   4.033   1.185   0.653 -0.8798  0.1930 -0.4007
 5047TIP3    H136632   3.978   1.110   0.629 -1.5177  0.2304  0.8272
 5047TIP3    H236633   3.987   1.225   0.727  1.2283 -0.2937  1.2832
 5048TIP3   OH236634   4.150   6.314   2.425  0.7123  0.3657 -0.3127
 5048TIP3    H136635   4.155   6.218   2.432  0.7856  0.3872 -0.0546
 5048TIP3    H236636   4.236   6.344   2.455  0.2517  0.5712  0.8288
 5049TIP3   OH236637   3.313   2.648  15.368  0.0533 -0.0424  0.8270
 5049TIP3    H136638   3.311   2.733  15.323 -0.6345 -0.8547 -0.7635
 5049TIP3    H236639   3.394   2.650  15.418  1.6363  0.4085 -1.5768
 5050TIP3   OH236640   0.303   1.901   0.148  0.3303 -0.0819  0.3467
 5050TIP3    H136641   0.228   1.955   0.173  0.0860  0.1960 -0.8959
 5050TIP3    H236642   0.292   1.819   0.196 -1.3367 -0.4371 -0.5870
 5051TIP3   OH236643   3.035   5.086  17.119 -0.1635 -0.1828 -0.4893
 5051TIP3    H136644   2.970   5.061  17.054  1.2489 -3.5841 -0.7984
 5051TIP3    H236645   3.119   5.063  17.079  1.1706  2.3699  0.6106
 5052TIP3   OH236646   0.947   2.265   0.290 -0.2100 -0.1801  0.0893
 5052TIP3    H136647   0.915   2.253   0.200  0.3874  2.2298 -0.5169
 5052TIP3    H236648   0.905   2.346   0.320 -0.8211 -1.2103  2.2347
 5053TIP3   OH236649   2.411   3.197   0.983  0.1156  0.0270 -0.0287
 5053TIP3    H136650   2.445   3.160   1.064  3.3002 -0.9412 -1.6084
 5053TIP3    H236651   2.459   3.279   0.972  0.3434 -0.2495 -1.2827
 5054TIP3   OH236652   0.945   2.852  13.029 -0.4788  0.0230 -0.3597
 5054TIP3    H136653   1.017   2.898  13.072 -0.0287 -1.9431  1.1646
 5054TIP3    H236654   0.877   2.918  13.019  0.2256  1.1179  1.4308
 5055TIP3   OH236655   5.967   2.291  16.367  0.0917 -0.0342 -0.0389
 5055TIP3    H136656   5.977   2.231  16.293  1.6613  1.1787 -0.8721
 5055TIP3    H236657   5.988   2.238  16.444 -1.1206 -1.2009 -0.4885
 5056TIP3   OH236658   5.734   5.223   6.728  0.4416  0.0340  0.5603
 5056TIP3    H136659   5.814   5.232   6.677  1.0611  2.5231  1.7823
 5056TIP3    H236660   5.703   5.313   6.740 -2.3831 -0.8045  0.4293
 5057TIP3   OH236661   3.226   2.604  14.817  0.0378  0.0154  0.1758
 5057TIP3    H136662   3.270   2.657  14.750 -0.3697  0.1050 -0.0280
 5057TIP3    H236663   3.191   2.669  14.878 -0.7704  0.0070 -0.2662
 5058TIP3   OH236664   3.840   3.021  12.840 -0.0739 -0.0224 -0.4603
 5058TIP3    H136665   3.893   2.990  12.767 -1.2303 -0.5660 -1.0948
 5058TIP3    H236666   3.892   3.002  12.918  0.9747  0.1427 -1.1063
 5059TIP3   OH236667   0.816   3.979  13.204  0.3315  0.2874 -0.2512
 5059TIP3    H136668   0.894   3.976  13.147 -0.1057 -0.7716 -0.8376
 5059TIP3    H236669   0.747   3.939  13.150 -0.7338  1.6211  0.0950
 5060TIP3   OH236670   6.529   1.846  13.068  0.3249 -0.1279  0.4796
 5060TIP3    H136671   6.554   1.795  13.145  1.2452 -1.2873 -0.5327
 5060TIP3    H236672   6.607   1.846  13.013  0.1567  1.9364  0.1700
 5061TIP3   OH236673   1.363   5.919  12.953  0.1102 -0.2156  0.3457
 5061TIP3    H136674   1.376   5.949  12.863  0.0307  0.8931  0.6851
 5061TIP3    H236675   1.297   5.850  12.947  0.1926 -0.2328 -0.4541
 5062TIP3   OH236676   2.092   4.639   4.276 -0.2314  0.1503 -0.2096
 5062TIP3    H136677   2.102   4.544   4.269  0.2748  0.1035  0.8789
 5062TIP3    H236678   2.082   4.655   4.370  0.4636  1.2306 -0.2971
 5063TIP3   OH236679   1.215   1.826  13.844 -0.2834  0.5173 -0.2587
 5063TIP3    H136680   1.216   1.871  13.928 -2.1266  0.4726 -0.1734
 5063TIP3    H236681   1.226   1.895  13.779  2.9283  0.3705  0.0037
 5064TIP3   OH236682   6.372   2.738   4.558 -0.5206 -0.2345 -0.2533
 5064TIP3    H136683   6.388   2.648   4.588 -0.7426 -1.2007 -2.7721
 5064TIP3    H236684   6.344   2.728   4.467 -1.0598  2.3862 -0.4526
 5065TIP3   OH236685   5.728   0.470   5.770  0.5216 -0.3640 -0.3138
 5065TIP3    H136686   5.780   0.397   5.803 -1.2692 -1.9527 -0.8685
 5065TIP3    H236687   5.741   0.468   5.675  0.0357 -0.3236 -0.3848
 5066TIP3   OH236688   1.197   1.802  13.092 -0.0968 -0.2662 -0.1652
 5066TIP3    H136689   1.189   1.766  13.004  2.6673 -0.2452 -0.5093
 5066TIP3    H236690   1.291   1.807  13.108 -0.4473  2.0182  1.8647
 5067TIP3   OH236691   3.093   4.796   4.082  0.4701 -0.0741  0.1444
 5067TIP3    H136692   3.031   4.747   4.136 -0.2919 -1.0542 -1.5253
 5067TIP3    H236693   3.179   4.769   4.112  0.0609 -0.6231  0.8337
 5068TIP3   OH236694   1.858   0.090  11.906  0.0552  0.6875  0.2685
 5068TIP3    H136695   1.869   0.113  11.814  0.0092  3.5696  0.8979
 5068TIP3    H236696   1.770   0.053  11.911 -1.2967  3.5614 -0.4131
 5069TIP3   OH236697   6.226   1.912   2.667  0.8783  0.4946 -0.4585
 5069TIP3    H136698   6.311   1.917   2.711  0.7493  0.4993 -0.2093
 5069TIP3    H236699   6.243   1.944   2.578  1.8420 -2.4584 -1.4585
 5070TIP3   OH236700   5.333   3.875  15.797  0.8550 -0.3626  0.2878
 5070TIP3    H136701   5.299   3.840  15.714  0.4089  0.0305  0.3025
 5070TIP3    H236702   5.267   3.938  15.826  1.1182 -0.3274  0.8299
 5071TIP3   OH236703   0.627   4.343   5.523 -0.0415 -0.1377 -0.0315
 5071TIP3    H136704   0.664   4.324   5.609  0.5367 -0.8406 -0.4213
 5071TIP3    H236705   0.574   4.266   5.503 -0.7888  0.3577  0.0194
 5072TIP3   OH236706   0.157   5.573  12.793 -0.3638 -0.2349 -0.2293
 5072TIP3    H136707   0.249   5.600  12.793 -0.7157  1.1937 -1.8192
 5072TIP3    H236708   0.138   5.549  12.883  1.2850  0.4734  0.3411
 5073TIP3   OH236709   2.330   2.940   5.865 -0.0165 -0.1667 -0.1141
 5073TIP3    H136710   2.253   2.996   5.854 -0.2079 -0.5333 -0.7145
 5073TIP3    H236711   2.362   2.960   5.953 -0.0008  0.9805 -0.3596
 5074TIP3   OH236712   0.331   3.006  14.729  0.1292  0.1945 -0.2769
 5074TIP3    H136713   0.340   2.917  14.696  2.3571  0.6023 -0.9701
 5074TIP3    H236714   0.317   3.060  14.652  1.9128  0.7477 -0.2783
 5075TIP3   OH236715   4.127   5.491   2.272 -0.0596 -0.5640  0.1904
 5075TIP3    H136716   4.177   5.430   2.327 -1.1689  0.6814  2.7256
 5075TIP3    H236717   4.039   5.453   2.267 -0.8555  0.8979  2.0803
 5076TIP3   OH236718   1.195   2.198  16.496  0.0680  0.2121 -0.3295
 5076TIP3    H136719   1.275   2.211  16.447 -0.0776 -0.7055 -0.8414
 5076TIP3    H236720   1.223   2.188  16.587  0.8959 -3.0180 -0.8157
 5077TIP3   OH236721   4.687   0.246  12.334 -0.6365 -0.0149  0.1028
 5077TIP3    H136722   4.667   0.153  12.344  0.2468 -0.2053  0.1767
 5077TIP3    H236723   4.641   0.271  12.253  0.3927 -0.9050 -0.7819
 5078TIP3   OH236724   5.665   0.347   0.242  0.3494  0.3697 -0.3916
 5078TIP3    H136725   5.758   0.343   0.221  0.1391  0.4543 -1.3802
 5078TIP3    H236726   5.662   0.383   0.331  1.2531  0.3533 -0.3474
 5079TIP3   OH236727   3.989   6.107  17.220 -0.1479  0.2294  0.3530
 5079TIP3    H136728   3.970   6.178  17.159  0.6607 -0.5229 -0.8195
 5079TIP3    H236729   3.904   6.067  17.237 -0.7789  2.0686  1.8545
 5080TIP3   OH236730   5.365   5.017   3.428 -0.5139  0.1371 -0.6177
 5080TIP3    H136731   5.445   5.057   3.394 -0.8324  0.6691 -0.7415
 5080TIP3    H236732   5.320   4.984   3.350  0.2095 -1.3449 -0.4412
 5081TIP3   OH236733   1.067   3.801   3.210  0.0014 -0.0862  0.4828
 5081TIP3    H136734   1.123   3.779   3.135 -0.4676  2.8770 -0.8721
 5081TIP3    H236735   1.020   3.720   3.229  1.5568 -1.4684 -1.1356
 5082TIP3   OH236736   5.521   6.283  13.217 -0.0280  0.4506 -0.0234
 5082TIP3    H136737   5.561   6.196  13.216 -0.7694  0.0851  0.8185
 5082TIP3    H236738   5.595   6.343  13.206  0.4464 -0.2835 -1.0741
 5083TIP3   OH236739   4.629   0.611   1.003  0.0466 -0.7525 -0.4744
 5083TIP3    H136740   4.700   0.663   0.966 -0.0832 -1.5055 -1.8423
 5083TIP3    H236741   4.668   0.526   1.021 -0.7592 -1.6322 -2.5305
 5084TIP3   OH236742   5.209   3.237   4.316 -0.1315 -0.4503 -0.3310
 5084TIP3    H136743   5.262   3.263   4.391  1.1843  1.3294 -1.7971
 5084TIP3    H236744   5.120   3.262   4.340 -0.0314 -1.4205  1.2521
 5085TIP3   OH236745   3.819   1.026  15.695  0.3068  0.1781  0.0786
 5085TIP3    H136746   3.759   1.032  15.621  1.2527 -0.6970 -0.7945
 5085TIP3    H236747   3.906   1.023  15.655  1.0343  2.2351  1.3335
 5086TIP3   OH236748   1.381   1.863   2.367  0.6391 -0.0432 -0.0788
 5086TIP3    H136749   1.387   1.958   2.355 -0.2495  0.2564  1.5618
 5086TIP3    H236750   1.466   1.838   2.402  1.0024  0.0743 -0.8538
 5087TIP3   OH236751   3.752   3.704   1.578  0.1507 -0.0579  0.0572
 5087TIP3    H136752   3.716   3.791   1.557 -3.6739 -1.2812  0.6919
 5087TIP3    H236753   3.764   3.662   1.493  1.8967  0.9688 -0.2509
 5088TIP3   OH236754   1.807   5.731  16.734 -0.2434 -0.3399 -0.3804
 5088TIP3    H136755   1.874   5.689  16.680 -0.4848 -1.2215  0.0036
 5088TIP3    H236756   1.731   5.737  16.677 -0.5804 -1.5102 -0.0610
 5089TIP3   OH236757   0.683   3.543  12.768 -0.4890  0.5208  0.4047
 5089TIP3    H136758   0.756   3.604  12.766  0.1380 -0.2111 -1.6209
 5089TIP3    H236759   0.607   3.594  12.738 -0.2041  0.5950 -0.2019
 5090TIP3   OH236760   5.455   3.452   1.302 -0.0719  0.0095 -0.3304
 5090TIP3    H136761   5.404   3.374   1.280  1.1211 -0.3418 -2.0269
 5090TIP3    H236762   5.406   3.524   1.262  0.6242 -0.3083 -1.8231
 5091TIP3   OH236763   3.429   0.107   5.385  0.0376 -0.4080 -0.1043
 5091TIP3    H136764   3.390   0.150   5.461  0.9434 -0.1943  0.2488
 5091TIP3    H236765   3.523   0.102   5.405 -0.0092 -2.5297 -0.1208
 5092TIP3   OH236766   4.230   3.012   1.223  0.1857 -0.5978 -0.3581
 5092TIP3    H136767   4.177   3.084   1.255 -0.1825 -0.8527 -0.3829
 5092TIP3    H236768   4.320   3.037   1.241  0.0832  0.0350 -0.7137
 5093TIP3   OH236769   2.889   0.409  15.518  0.0166 -0.2424  0.3298
 5093TIP3    H136770   2.828   0.351  15.564  0.4035 -0.6553  0.3292
 5093TIP3    H236771   2.913   0.475  15.583 -0.4577 -0.0520  0.3184
 5094TIP3   OH236772   2.666   6.740   6.042  0.4901  0.5230 -0.1826
 5094TIP3    H136773   2.643   6.726   6.134  1.0883 -0.2519 -0.1456
 5094TIP3    H236774   2.738   6.680   6.025  0.4305  0.7028 -1.1485
 5095TIP3   OH236775   1.563   4.988   5.906 -1.1215 -0.3460  0.0436
 5095TIP3    H136776   1.476   4.982   5.945 -1.5246 -1.9772 -0.9856
 5095TIP3    H236777   1.560   4.929   5.830  1.0884 -1.0206  0.3840
 5096TIP3   OH236778   3.424   5.775  14.670  0.6785  0.0184  0.0501
 5096TIP3    H136779   3.456   5.685  14.670 -1.4941 -0.8140 -0.2560
 5096TIP3    H236780   3.400   5.792  14.579  1.0007  0.8801  0.1204
 5097TIP3   OH236781   2.670   3.058   4.090 -0.2079  0.4573  0.1735
 5097TIP3    H136782   2.724   2.983   4.064 -2.7134 -1.0020 -1.2252
 5097TIP3    H236783   2.594   3.018   4.132 -3.1061  1.8656 -3.2628
 5098TIP3   OH236784   0.412   6.610  11.540  0.2742  0.1426 -0.7526
 5098TIP3    H136785   0.451   6.527  11.513  0.5384  0.0893 -0.2061
 5098TIP3    H236786   0.329   6.614  11.491  0.0331 -0.6649 -0.4307
 5099TIP3   OH236787   5.836   6.616   6.355  0.1636  0.4832 -0.4041
 5099TIP3    H136788   5.869   6.561   6.284 -0.9337 -0.0571 -0.5073
 5099TIP3    H236789   5.915   6.659   6.390  0.7490  0.6052 -1.7983
 5100TIP3   OH236790   5.938   2.354   0.879  0.2974 -0.2439 -0.2298
 5100TIP3    H136791   5.858   2.397   0.850 -0.5951 -0.9248  1.1160
 5100TIP3    H236792   5.935   2.359   0.974  1.6321 -0.6994 -0.1432
 5101TIP3   OH236793   5.077   0.234  10.819 -0.1029  1.0399  0.9929
 5101TIP3    H136794   5.077   0.187  10.735  0.8799  1.3417  0.8165
 5101TIP3    H236795   5.109   0.171  10.883 -1.9976  0.4210  1.3919
 5102TIP3   OH236796   4.023   0.871   1.259 -0.2096 -0.0506  0.2798
 5102TIP3    H136797   4.071   0.893   1.179 -1.4381 -1.3215 -0.8487
 5102TIP3    H236798   4.091   0.852   1.323  0.8001  0.6343 -0.5457
 5103TIP3   OH236799   1.959   5.953   3.087  0.0772  0.1185  0.1107
 5103TIP3    H136800   1.917   6.032   3.053 -0.1668 -0.1267 -0.1651
 5103TIP3    H236801   2.053   5.972   3.082  0.0745 -0.1151 -1.2331
 5104TIP3   OH236802   4.088   5.746  12.432  0.5361 -0.1317  0.3492
 5104TIP3    H136803   4.098   5.790  12.517  2.4546 -1.3611  0.8305
 5104TIP3    H236804   4.088   5.653  12.454  0.2532 -0.4521 -0.9565
 5105TIP3   OH236805   5.610   6.093   2.427 -0.3899  0.0895  0.3104
 5105TIP3    H136806   5.577   6.139   2.350 -1.2617 -0.6916  0.1998
 5105TIP3    H236807   5.534   6.048   2.463  0.4659 -1.4888  0.2432
 5106TIP3   OH236808   0.892   3.508  16.244  0.0171  0.7771  0.0742
 5106TIP3    H136809   0.976   3.495  16.201 -1.1196 -1.2550 -1.7744
 5106TIP3    H236810   0.892   3.447  16.318  0.2223  0.9038  0.1790
 5107TIP3   OH236811   5.415   6.601  16.787  0.6727  0.5978 -0.2223
 5107TIP3    H136812   5.377   6.685  16.813  1.3260  1.2483 -1.2692
 5107TIP3    H236813   5.382   6.538  16.851  0.2744  1.6748  0.6588
 5108TIP3   OH236814   4.230   0.748   1.387 -0.3117  0.0962  0.1616
 5108TIP3    H136815   4.294   0.678   1.375 -0.7341 -0.4071  0.7693
 5108TIP3    H236816   4.145   0.703   1.392 -0.8910  0.8461 -1.9054
 5109TIP3   OH236817   2.790   6.572   1.712  0.3328  0.2093  0.2562
 5109TIP3    H136818   2.839   6.648   1.746  0.8406  0.1677 -0.3568
 5109TIP3    H236819   2.858   6.508   1.691  0.2110  0.8173 -2.3082
 5110TIP3   OH236820   5.854   6.447   0.273  0.7567 -0.1993 -0.2634
 5110TIP3    H136821   5.838   6.358   0.240  0.1356  0.0157 -0.5604
 5110TIP3    H236822   5.769   6.476   0.305  1.1262 -0.0017  0.5713
 5111TIP3   OH236823   0.900   6.158   0.510  0.4462  0.2260  0.1145
 5111TIP3    H136824   0.951   6.107   0.448  0.6690  0.0617  0.4262
 5111TIP3    H236825   0.882   6.240   0.465  2.7735  1.1635  0.7032
 5112TIP3   OH236826   5.601   4.467   2.204  0.2616 -0.3247 -0.7260
 5112TIP3    H136827   5.617   4.382   2.244  1.4495  0.3334  0.2854
 5112TIP3    H236828   5.635   4.460   2.115  1.0802 -0.6660 -0.3913
 5113TIP3   OH236829   1.740   4.175   1.159 -0.3934 -0.0796  0.1943
 5113TIP3    H136830   1.791   4.096   1.174  1.1167  0.8105 -0.0439
 5113TIP3    H236831   1.748   4.224   1.241 -1.9771 -0.5031  0.6267
 5114TIP3   OH236832   0.495   6.685  13.806 -0.1982 -0.1765  0.6482
 5114TIP3    H136833   0.550   6.744  13.755  1.0928 -1.1033  0.9136
 5114TIP3    H236834   0.446   6.636  13.740 -0.2631  0.2429  0.3822
 5115TIP3   OH236835   4.877   0.239   0.242 -0.2281 -0.0967  0.2829
 5115TIP3    H136836   4.959   0.280   0.215 -0.7188  0.1147 -0.9407
 5115TIP3    H236837   4.877   0.154   0.196 -1.0598  0.2499 -0.3837
 5116TIP3   OH236838   3.851   3.309   5.497 -0.0301  0.8607 -0.6056
 5116TIP3    H136839   3.860   3.332   5.589 -0.5063  2.9625 -1.0300
 5116TIP3    H236840   3.762   3.336   5.474 -0.6483 -1.4768 -1.2288
 5117TIP3   OH236841   3.590   6.352   0.960  0.4054 -0.5292  0.5977
 5117TIP3    H136842   3.594   6.349   1.056 -0.6395  0.8953  0.7195
 5117TIP3    H236843   3.656   6.416   0.935  0.3285 -0.5260  0.3999
 5118TIP3   OH236844   2.321   1.357  12.995 -0.0059 -0.3693 -0.4289
 5118TIP3    H136845   2.280   1.442  12.981  0.5122 -0.3950 -2.4806
 5118TIP3    H236846   2.409   1.368  12.959  2.1243 -0.1766  4.1850
 5119TIP3   OH236847   0.666   4.807  16.878  0.2679 -0.0942  0.4655
 5119TIP3    H136848   0.723   4.775  16.809  2.0558  0.9510  1.3784
 5119TIP3    H236849   0.578   4.808  16.839  1.1370 -0.0159 -1.6001
 5120TIP3   OH236850   5.281   4.732   5.526 -0.0661 -0.0485  0.5909
 5120TIP3    H136851   5.192   4.765   5.517  0.5278  1.9622  1.2989
 5120TIP3    H236852   5.279   4.676   5.604 -0.4153  1.3520  1.6344
 5121TIP3   OH236853   1.636   3.096   3.317 -0.0292 -0.3544 -0.3727
 5121TIP3    H136854   1.726   3.073   3.342 -0.0604  0.1613  0.2456
 5121TIP3    H236855   1.603   3.146   3.391 -0.4254  0.4645 -1.0744
 5122TIP3   OH236856   5.002   3.025  15.948 -0.5519 -1.1255  0.1093
 5122TIP3    H136857   5.077   3.081  15.931 -1.2388 -0.1239  0.2624
 5122TIP3    H236858   5.000   2.963  15.874 -0.6076 -0.0212 -0.8382
 5123TIP3   OH236859   0.653   1.504   5.238  0.1076  0.0966 -0.1994
 5123TIP3    H136860   0.738   1.462   5.228 -0.2852 -1.2583  1.6500
 5123TIP3    H236861   0.655   1.543   5.326 -0.8101  0.9696 -0.5333
 5124TIP3   OH236862   4.179   3.224  11.128  0.2738 -0.3555  0.2368
 5124TIP3    H136863   4.273   3.206  11.133  0.4932  0.5187 -0.5610
 5124TIP3    H236864   4.169   3.281  11.052 -0.7379  0.6048  1.0513
 5125TIP3   OH236865   4.112   3.213  12.929 -0.3389  0.6302  0.5425
 5125TIP3    H136866   4.061   3.194  12.850  1.6001 -1.3320 -0.3287
 5125TIP3    H236867   4.131   3.306  12.923  0.1440  0.4534 -1.5860
 5126TIP3   OH236868   3.608   2.997   3.601  0.0053 -0.4456  0.5630
 5126TIP3    H136869   3.526   2.977   3.645  1.2714 -3.4570  1.8328
 5126TIP3    H236870   3.633   3.083   3.636 -2.0980  0.1281  0.8170
 5127TIP3   OH236871   3.079   0.018   3.939 -0.0873  0.2357  0.0994
 5127TIP3    H136872   3.077   0.113   3.923 -1.3975  0.0696 -0.9069
 5127TIP3    H236873   3.019   0.006   4.012  1.6116  0.3639  1.5896
 5128TIP3   OH236874   6.275   2.154   2.335 -0.4854 -0.5383 -0.2285
 5128TIP3    H136875   6.181   2.156   2.350 -0.8190  1.0484 -2.0864
 5128TIP3    H236876   6.291   2.068   2.295 -1.5127 -0.0969 -1.6887
 5129TIP3   OH236877   1.185   4.724   6.399  0.2502 -0.1486  0.1553
 5129TIP3    H136878   1.090   4.729   6.400  0.1634 -1.1108  2.2388
 5129TIP3    H236879   1.213   4.795   6.457  0.7676 -0.2949  0.0887
 5130TIP3   OH236880   1.410   4.485  12.598  0.1464  0.0196 -0.0567
 5130TIP3    H136881   1.393   4.527  12.514  1.1229  1.0872  0.2559
 5130TIP3    H236882   1.393   4.392  12.582 -0.8401  0.3574 -1.0989
 5131TIP3   OH236883   6.637   0.850  14.226  0.1962  0.0896 -0.0115
 5131TIP3    H136884   6.608   0.779  14.169  2.5218 -0.1071 -1.0785
 5131TIP3    H236885   6.654   0.808  14.310  2.5449 -0.9318 -0.9115
 5132TIP3   OH236886   5.597   0.665   3.777 -0.4528 -0.2387 -0.0948
 5132TIP3    H136887   5.614   0.751   3.739  1.6696  0.0081  1.2351
 5132TIP3    H236888   5.657   0.660   3.852  0.1069 -3.1838 -0.6058
 5133TIP3   OH236889   0.092   0.891   1.206 -0.1590 -0.0169 -0.4744
 5133TIP3    H136890   0.008   0.891   1.159 -0.6899 -1.9684  0.3737
 5133TIP3    H236891   0.068   0.892   1.298  0.8512  2.2989 -0.1799
 5134TIP3   OH236892   3.620   6.229  13.050  0.2464  0.0642 -0.2130
 5134TIP3    H136893   3.596   6.168  12.980 -1.7729 -0.9880  1.2854
 5134TIP3    H236894   3.692   6.185  13.096 -0.3571 -0.6331  0.0922
 5135TIP3   OH236895   1.020   3.089  12.307 -0.0245 -0.3305 -0.5259
 5135TIP3    H136896   1.081   3.161  12.288  1.2406 -1.0637  0.5685
 5135TIP3    H236897   1.022   3.035  12.228  3.2425 -2.0112  0.5310
 5136TIP3   OH236898   0.553   5.104  14.509 -0.5645  0.0739  0.0733
 5136TIP3    H136899   0.532   5.150  14.428 -1.9857 -1.5376 -0.5448
 5136TIP3    H236900   0.646   5.084  14.503 -1.0360 -1.8619 -2.2391
 5137TIP3   OH236901   3.916   3.390  11.223 -0.4124  0.5432 -0.2335
 5137TIP3    H136902   3.886   3.299  11.226 -4.5645  1.7239  0.9905
 5137TIP3    H236903   3.963   3.397  11.140 -0.0517 -2.6442 -0.4172
 5138TIP3   OH236904   1.169   0.743  13.956 -0.1313 -0.1037  0.0292
 5138TIP3    H136905   1.174   0.674  13.889  2.3072  0.0851 -0.0766
 5138TIP3    H236906   1.172   0.824  13.906 -0.3061  0.0615  0.2880
 5139TIP3   OH236907   2.450   2.130   2.413  0.5224  0.1505  0.3355
 5139TIP3    H136908   2.535   2.089   2.396  0.3972 -1.0982  2.3943
 5139TIP3    H236909   2.472   2.218   2.444  1.0858 -0.1909  0.9344
 5140TIP3   OH236910   2.819   2.335   0.606 -0.2621  0.1812  0.2479
 5140TIP3    H136911   2.816   2.257   0.660  0.6556 -1.0997 -1.4439
 5140TIP3    H236912   2.843   2.303   0.519  2.6564  2.5676  0.0011
 5141TIP3   OH236913   4.590   0.020  16.000 -0.1558  0.0866 -0.1851
 5141TIP3    H136914   4.624   0.011  16.090  1.2845 -0.7593 -0.7727
 5141TIP3    H236915   4.540   0.102  16.002  1.5693  1.1978  0.9042
 5142TIP3   OH236916   1.886   5.843  16.073  0.4578  0.0580  0.0117
 5142TIP3    H136917   1.955   5.901  16.106  2.2058 -0.5301 -2.3357
 5142TIP3    H236918   1.903   5.759  16.115  3.1500 -0.9035 -2.6242
 5143TIP3   OH236919   3.263   1.236   3.491  0.0377 -1.0917  0.4333
 5143TIP3    H136920   3.277   1.203   3.403 -1.1355 -0.3715 -0.0532
 5143TIP3    H236921   3.227   1.162   3.540  0.2613 -1.3643  0.1875
 5144TIP3   OH236922   3.742   2.798  15.258  0.4051 -0.0470  0.3695
 5144TIP3    H136923   3.750   2.771  15.167  1.6850 -0.0676  0.4699
 5144TIP3    H236924   3.785   2.729  15.308  1.6216  0.9815  0.8134
 5145TIP3   OH236925   2.236   2.640   0.099 -0.3541 -0.1809  0.0271
 5145TIP3    H136926   2.227   2.731   0.069  0.9591 -0.1220 -0.2734
 5145TIP3    H236927   2.158   2.624   0.151 -0.6235  1.1260  0.0672
 5146TIP3   OH236928   2.289   3.014  11.772 -0.6285 -0.4531  0.0673
 5146TIP3    H136929   2.221   3.081  11.771 -0.8265 -0.6217  1.3924
 5146TIP3    H236930   2.247   2.936  11.807 -0.2599 -1.1523 -0.9724
 5147TIP3   OH236931   2.550   1.493  12.241  0.1262 -0.0947 -0.1908
 5147TIP3    H136932   2.525   1.407  12.206 -1.0285  0.4540 -0.7697
 5147TIP3    H236933   2.587   1.539  12.166 -3.4119  1.5045 -1.1823
 5148TIP3   OH236934   0.253   3.730  11.720 -0.0827 -0.0958  0.3831
 5148TIP3    H136935   0.235   3.663  11.654  1.1648 -2.6491  2.4801
 5148TIP3    H236936   0.175   3.729  11.776 -0.1773  0.4416  0.2645
 5149TIP3   OH236937   0.531   5.814   5.456  0.2153  0.1981  0.2643
 5149TIP3    H136938   0.481   5.856   5.387 -1.4003  0.7081  1.6881
 5149TIP3    H236939   0.578   5.743   5.412 -0.5341  0.6884 -1.3818
 5150TIP3   OH236940   0.477   4.714   3.214 -0.0942 -0.5863  0.3795
 5150TIP3    H136941   0.464   4.640   3.273 -1.1889 -1.6295 -1.1138
 5150TIP3    H236942   0.398   4.767   3.225 -0.8382 -1.3827 -0.9427
 5151TIP3   OH236943   2.123   1.662  11.332 -0.3826  0.4695 -0.7278
 5151TIP3    H136944   2.083   1.727  11.274 -1.8303 -0.0441 -0.3565
 5151TIP3    H236945   2.049   1.626  11.381  0.5806 -0.4377  0.0960
 5152TIP3   OH236946   6.437   4.523  12.943 -0.1058 -0.2071  0.0082
 5152TIP3    H136947   6.511   4.567  12.986  0.7725  0.5956 -2.2005
 5152TIP3    H236948   6.381   4.594  12.913 -0.4791 -0.7161 -0.5311
 5153TIP3   OH236949   5.573   3.602   3.099  0.3729  0.4206  0.3816
 5153TIP3    H136950   5.666   3.590   3.114  0.3242 -0.6685 -0.0554
 5153TIP3    H236951   5.533   3.519   3.127 -0.2961  0.3661 -0.6564
 5154TIP3   OH236952   0.483   5.914   4.286  0.4919 -0.2719 -0.0551
 5154TIP3    H136953   0.447   5.883   4.368 -0.2106 -0.9774 -0.6155
 5154TIP3    H236954   0.411   5.961   4.244  0.7323 -0.2300 -0.4310
 5155TIP3   OH236955   4.803   1.125   5.837 -0.4072 -0.1813 -0.1783
 5155TIP3    H136956   4.894   1.128   5.867 -0.5845 -1.9566  0.6430
 5155TIP3    H236957   4.806   1.165   5.750  0.8161  1.4144  0.5445
 5156TIP3   OH236958   2.435   2.478   0.001 -0.0219  0.6044 -0.2362
 5156TIP3    H136959   2.401   2.465  -0.088 -1.1759 -0.7545  0.3810
 5156TIP3    H236960   2.373   2.538   0.042  0.1441  0.7033 -0.1265
 5157TIP3   OH236961   2.546   5.592  11.295  0.2529 -0.2122 -0.3582
 5157TIP3    H136962   2.629   5.566  11.254  1.5532  3.2172 -0.2681
 5157TIP3    H236963   2.495   5.630  11.224 -0.1458  0.0177  0.0491
 5158TIP3   OH236964   6.234   0.425  14.511 -0.4989  0.2489 -0.2023
 5158TIP3    H136965   6.245   0.443  14.604 -0.0869  0.1481 -0.2289
 5158TIP3    H236966   6.310   0.371  14.488 -1.3944 -1.0347 -0.2439
 5159TIP3   OH236967   1.817   6.151  16.521  0.0983  0.1349 -0.1379
 5159TIP3    H136968   1.787   6.137  16.431  3.0894 -1.0225 -1.0871
 5159TIP3    H236969   1.793   6.242  16.540  1.4350  1.2232 -3.0438
 5160TIP3   OH236970   2.545   1.276   1.986  0.0444  0.2590  0.2702
 5160TIP3    H136971   2.508   1.338   2.049 -0.9803 -0.7502  0.7099
 5160TIP3    H236972   2.632   1.310   1.966 -0.7968  2.2727 -0.1384
 5161TIP3   OH236973   3.229   4.751   3.007 -0.4643 -0.2437 -0.3829
 5161TIP3    H136974   3.140   4.784   2.997 -0.6590 -0.0771  1.6587
 5161TIP3    H236975   3.219   4.656   3.012 -0.8456 -0.1135  2.3619
 5162TIP3   OH236976   2.343   5.517  13.744  0.0446 -0.6148 -0.0971
 5162TIP3    H136977   2.347   5.593  13.802  0.2640  0.9038 -1.9947
 5162TIP3    H236978   2.254   5.482  13.756 -0.7842  1.1785 -0.6242
 5163TIP3   OH236979   5.787   4.107  17.168  0.0538  0.4433  0.4415
 5163TIP3    H136980   5.707   4.152  17.194 -0.3946 -0.4054  0.5744
 5163TIP3    H236981   5.761   4.052  17.094  0.8863  1.3697 -0.5656
 5164TIP3   OH236982   6.366   5.569   3.373 -0.5869 -0.2249 -0.9273
 5164TIP3    H136983   6.403   5.508   3.309 -0.2549 -0.6882 -0.3009
 5164TIP3    H236984   6.400   5.654   3.346 -0.4459 -0.4144 -1.3679
 5165TIP3   OH236985   4.869   0.437  15.302 -0.1867  0.3045  0.1864
 5165TIP3    H136986   4.895   0.422  15.211 -0.3245 -0.7951  0.3059
 5165TIP3    H236987   4.888   0.529  15.319  1.7635  0.0439 -0.3335
 5166TIP3   OH236988   1.298   2.002   3.490  0.2495 -0.0605 -0.3252
 5166TIP3    H136989   1.321   2.066   3.423  0.3160  0.1242 -0.1265
 5166TIP3    H236990   1.376   1.949   3.500  0.9341  1.1271  0.9954
 5167TIP3   OH236991   1.610   2.511  16.729 -0.3231  0.1660  0.3060
 5167TIP3    H136992   1.650   2.460  16.659  1.3193  2.0579 -0.2220
 5167TIP3    H236993   1.646   2.475  16.810 -0.1734 -0.3230  0.0196
 5168TIP3   OH236994   6.070   1.595  14.778 -0.1446 -0.4222 -0.0970
 5168TIP3    H136995   5.975   1.609  14.787 -0.1894 -0.6978 -0.1316
 5168TIP3    H236996   6.107   1.683  14.780 -0.2579 -0.3955  1.5524
 5169TIP3   OH236997   1.473   6.189  15.414  0.2895  0.4416  0.3209
 5169TIP3    H136998   1.515   6.127  15.354 -0.3449  1.2249 -0.9712
 5169TIP3    H236999   1.503   6.274  15.385  3.0314  0.7802  3.4995
 5170TIP3   OH237000   3.178   3.184  12.176  0.1328 -0.6381  0.1901
 5170TIP3    H137001   3.161   3.255  12.239  1.5572 -0.7504  0.7256
 5170TIP3    H237002   3.197   3.230  12.094 -3.1346 -0.4971 -0.6482
 5171TIP3   OH237003   5.721   1.052   0.022  0.4808  0.2516  0.2191
 5171TIP3    H137004   5.703   1.053  -0.072  0.9576  1.4165  0.1250
 5171TIP3    H237005   5.815   1.035   0.028  0.8111  1.9130  0.3815
 5172TIP3   OH237006   2.323   2.531   0.991 -0.2639 -0.8079 -0.1216
 5172TIP3    H137007   2.310   2.579   0.909 -0.2895  1.2865  1.0576
 5172TIP3    H237008   2.411   2.554   1.019 -0.5771 -0.7955  0.8844
 5173TIP3   OH237009   4.869   5.795  17.042  0.3267  0.2436  0.0285
 5173TIP3    H137010   4.887   5.741  16.965  1.0527 -0.1492  0.4615
 5173TIP3    H237011   4.840   5.879  17.007 -3.0017 -1.0401 -0.6989
 5174TIP3   OH237012   5.962   5.633   5.290 -0.2033  0.1296 -0.3425
 5174TIP3    H137013   5.925   5.598   5.371  1.8863  0.2710  0.7364
 5174TIP3    H237014   6.007   5.559   5.250 -0.7037  0.2115 -1.0729
 5175TIP3   OH237015   5.485   3.862   4.158 -0.0651  0.2258 -0.1958
 5175TIP3    H137016   5.565   3.897   4.198  0.0407 -1.0014  0.7452
 5175TIP3    H237017   5.470   3.917   4.081  0.5062  1.8100  0.7723
 5176TIP3   OH237018   4.304   0.210  12.150  0.2174  0.5084  0.5267
 5176TIP3    H137019   4.305   0.178  12.060 -0.9586  3.0582 -0.4624
 5176TIP3    H237020   4.384   0.261  12.159  0.9281 -0.6764  1.3749
 5177TIP3   OH237021   6.684   3.916  11.610 -0.2232 -0.2595 -0.1329
 5177TIP3    H137022   6.701   3.842  11.669 -0.2559  1.4419  2.1411
 5177TIP3    H237023   6.592   3.908  11.588 -0.2380 -0.8736  0.1206
 5178TIP3   OH237024   4.806   0.269   4.383  0.3893 -0.3374 -0.1448
 5178TIP3    H137025   4.898   0.246   4.391  1.1757  2.5607  0.4342
 5178TIP3    H237026   4.802   0.360   4.412 -3.0153 -0.9975  2.0387
 5179TIP3   OH237027   1.411   0.562   5.600 -0.0721 -0.2798 -0.3538
 5179TIP3    H137028   1.473   0.577   5.672 -1.0195  0.2479  0.3693
 5179TIP3    H237029   1.403   0.467   5.595 -0.7245 -0.3075  0.8844
 5180TIP3   OH237030   1.316   1.558  13.810  0.4651 -0.3177 -0.3671
 5180TIP3    H137031   1.381   1.524  13.748  0.3862 -0.5568 -0.3205
 5180TIP3    H237032   1.308   1.651  13.788  0.0260 -0.5122 -1.0858
 5181TIP3   OH237033   4.111   6.592  15.483  0.1896 -0.2198  0.3539
 5181TIP3    H137034   4.125   6.610  15.577  1.4252 -0.2956  0.2004
 5181TIP3    H237035   4.115   6.678  15.442  3.2855 -0.4181 -0.0315
 5182TIP3   OH237036   5.463   6.267   3.395 -0.2049 -0.2200 -0.8895
 5182TIP3    H137037   5.481   6.350   3.352  0.2986 -0.2983 -0.8364
 5182TIP3    H237038   5.549   6.233   3.420 -0.4837 -0.1632  0.2130
 5183TIP3   OH237039   6.216   3.144   2.273 -0.4218  0.2198  0.3764
 5183TIP3    H137040   6.281   3.089   2.229  0.1892  0.3954  1.0524
 5183TIP3    H237041   6.150   3.082   2.305 -1.5251  0.1777 -1.7983
 5184TIP3   OH237042   2.297   4.978  14.529 -0.0012  0.0100 -0.3267
 5184TIP3    H137043   2.327   5.068  14.535  0.4734 -0.1278 -0.6043
 5184TIP3    H237044   2.266   4.969  14.439 -1.0376  0.1988  0.0020
 5185TIP3   OH237045   5.504   1.519  15.267 -0.6205 -0.1130  0.3407
 5185TIP3    H137046   5.525   1.492  15.356  1.0725 -0.7966 -0.2161
 5185TIP3    H237047   5.451   1.447  15.232 -1.5443  0.3005  0.8881
 5186TIP3   OH237048   0.427   4.954  11.928 -0.0866  0.1671  0.0461
 5186TIP3    H137049   0.393   4.864  11.928  0.3617 -0.0658 -2.2594
 5186TIP3    H237050   0.350   5.009  11.916 -0.1956 -0.0123 -0.0750
 5187TIP3   OH237051   3.419   5.018  11.028  0.3011  0.0466  0.1540
 5187TIP3    H137052   3.374   4.937  11.051 -0.8234 -0.1974 -2.5447
 5187TIP3    H237053   3.490   4.990  10.971  2.5961  0.6649  2.4935
 5188TIP3   OH237054   3.314   6.228   4.873 -0.2087  0.4996 -0.0616
 5188TIP3    H137055   3.394   6.221   4.820  1.0140 -0.1315  1.7563
 5188TIP3    H237056   3.319   6.316   4.910  1.8152 -0.7665  3.1256
 5189TIP3   OH237057   1.478   1.499   1.332 -0.3869 -0.0266 -0.2648
 5189TIP3    H137058   1.411   1.456   1.385 -0.9014 -0.1086 -0.9683
 5189TIP3    H237059   1.534   1.427   1.302 -1.3262 -0.2600 -1.5532
 5190TIP3   OH237060   3.950   2.292  11.846 -0.4447 -0.0487 -0.0551
 5190TIP3    H137061   3.974   2.341  11.925 -0.7936 -0.1728  0.1326
 5190TIP3    H237062   4.018   2.313  11.783 -0.5104  0.5748  0.0708
 5191TIP3   OH237063   1.982   4.709  12.151  0.4327  0.1003 -0.4854
 5191TIP3    H137064   2.042   4.667  12.089  2.2468  1.8738 -0.0346
 5191TIP3    H237065   2.007   4.675  12.237 -1.1182 -1.2490 -0.5118
 5192TIP3   OH237066   1.434   2.764   3.870  0.0870 -0.1725  0.2009
 5192TIP3    H137067   1.516   2.794   3.831 -1.0130  1.8046 -0.7510
 5192TIP3    H237068   1.383   2.730   3.796  0.6701 -3.1335  1.0333
 5193TIP3   OH237069   2.881   3.884   4.268 -0.3839  0.4329 -0.3162
 5193TIP3    H137070   2.842   3.971   4.273 -1.1713  0.1114 -0.7083
 5193TIP3    H237071   2.882   3.864   4.174 -0.4523 -0.0923 -0.2054
 5194TIP3   OH237072   5.212   2.848  11.762  0.0389 -0.4854 -0.4131
 5194TIP3    H137073   5.161   2.850  11.681  0.4453  0.9278 -0.6495
 5194TIP3    H237074   5.212   2.755  11.788 -2.3572 -0.5931 -0.5808
 5195TIP3   OH237075   0.783   1.492  14.769  0.0082 -0.1720  0.1261
 5195TIP3    H137076   0.866   1.514  14.728  0.2389 -1.1283  0.0644
 5195TIP3    H237077   0.803   1.488  14.863 -0.5498  2.1649  0.4310
 5196TIP3   OH237078   2.094   2.136  16.252  0.0542  0.4187  0.2111
 5196TIP3    H137079   2.170   2.106  16.301  0.1654  1.6660  0.8319
 5196TIP3    H237080   2.109   2.104  16.162  2.7731  3.0218 -0.4254
 5197TIP3   OH237081   1.018   0.672  10.968 -0.1620 -0.4318 -0.0360
 5197TIP3    H137082   0.925   0.692  10.970 -0.0569  0.1090 -0.3664
 5197TIP3    H237083   1.055   0.719  11.043  0.0532  0.4975 -0.6989
 5198TIP3   OH237084   5.804   5.335   4.783 -0.0338  0.2901  0.5708
 5198TIP3    H137085   5.736   5.376   4.837  0.4997 -0.9232  2.2547
 5198TIP3    H237086   5.798   5.242   4.804  3.0983  0.2586  2.0101
 5199TIP3   OH237087   5.952   0.885  14.240 -0.2132 -0.1308  0.3998
 5199TIP3    H137088   5.876   0.872  14.183 -0.1753 -1.3325  0.5988
 5199TIP3    H237089   5.958   0.804  14.291 -0.4678  1.0412  2.3900
 5200TIP3   OH237090   4.029   6.552  13.343  0.0792 -0.6951 -0.3618
 5200TIP3    H137091   3.976   6.631  13.334  3.1416  1.7874  1.2298
 5200TIP3    H237092   4.074   6.544  13.258  0.0666 -0.4687 -0.3903
 5201TIP3   OH237093   0.041   4.121  17.287  0.3675  0.1590  0.7134
 5201TIP3    H137094   0.090   4.173  17.224 -0.6152 -0.7324 -0.8358
 5201TIP3    H237095   0.106   4.094  17.352  1.7853 -0.4301 -0.8860
 5202TIP3   OH237096   3.666   1.271  16.737  0.4684  0.0631 -0.1029
 5202TIP3    H137097   3.581   1.250  16.699  0.1027 -0.4167  0.9521
 5202TIP3    H237098   3.675   1.212  16.812  0.9140  1.3734  0.9203
 5203TIP3   OH237099   3.515   1.340  15.815 -0.2306  0.3332 -0.6265
 5203TIP3    H137100   3.541   1.432  15.820  0.8020  0.0645 -0.8748
 5203TIP3    H237101   3.590   1.292  15.848 -1.6429 -0.3336  1.8817
 5204TIP3   OH237102   5.466   0.444  10.965  0.2321 -0.6033 -0.5870
 5204TIP3    H137103   5.506   0.360  10.988 -0.1991 -0.7561 -0.3795
 5204TIP3    H237104   5.538   0.497  10.932  0.5529 -0.9702 -0.4805
 5205TIP3   OH237105   1.846   6.792   2.185 -0.5819  0.2307  0.7176
 5205TIP3    H137106   1.808   6.853   2.247 -2.0615 -0.0598  0.1558
 5205TIP3    H237107   1.840   6.707   2.228  0.3671  0.3066  1.0181
 5206TIP3   OH237108   2.289   1.983   0.766 -0.5013 -0.3535 -0.5427
 5206TIP3    H137109   2.341   1.906   0.741  1.2915  0.4479  0.5439
 5206TIP3    H237110   2.315   2.002   0.856  0.8561  2.8155 -1.4434
 5207TIP3   OH237111   0.705   4.191  13.824  0.0831  0.9682 -0.3726
 5207TIP3    H137112   0.723   4.130  13.896 -0.4805  1.5042  0.2317
 5207TIP3    H237113   0.790   4.203  13.782  0.5353  1.0858  0.5553
 5208TIP3   OH237114   1.061   5.253  15.810 -0.3254  0.5708 -0.0525
 5208TIP3    H137115   1.152   5.250  15.780 -0.9549 -0.4840 -2.0596
 5208TIP3    H237116   1.047   5.169  15.853 -0.5242  0.4511 -0.3454
 5209TIP3   OH237117   4.274   1.537  12.232 -0.3385 -0.1138  0.4294
 5209TIP3    H137118   4.278   1.621  12.278 -1.2479  0.7418 -0.9870
 5209TIP3    H237119   4.363   1.503  12.237  0.3646  1.5381 -0.0324
 5210TIP3   OH237120   1.201   2.223   3.938  0.4069  0.2713  0.0714
 5210TIP3    H137121   1.135   2.161   3.969  1.8281 -1.0299  0.5585
 5210TIP3    H237122   1.187   2.301   3.993  0.2241 -0.5253  1.1835
 5211TIP3   OH237123   6.763   1.727  13.672 -0.1377 -0.2364  0.0412
 5211TIP3    H137124   6.744   1.754  13.582  0.5950 -0.8014 -0.2975
 5211TIP3    H237125   6.682   1.745  13.720 -0.8047 -0.6375 -0.8947
 5212TIP3   OH237126   1.475   3.883  16.414  0.5069  0.4383 -0.0614
 5212TIP3    H137127   1.425   3.915  16.490 -0.0775  0.8873 -0.6266
 5212TIP3    H237128   1.550   3.838  16.453 -0.5790 -0.6907  0.8201
 5213TIP3   OH237129   4.326   6.093  10.889 -0.0799 -0.5433  0.6862
 5213TIP3    H137130   4.295   6.153  10.822 -1.0526 -0.6536  1.0168
 5213TIP3    H237131   4.419   6.079  10.869 -0.4394 -0.8711 -0.8475
 5214TIP3   OH237132   1.561   1.864   0.893  0.2797 -0.2359  0.0959
 5214TIP3    H137133   1.549   1.866   0.798  2.3127  1.6651 -0.2052
 5214TIP3    H237134   1.649   1.827   0.904  1.1527  1.9473  1.0121
 5215TIP3   OH237135   5.072   6.415  12.552 -0.2342  0.1028  0.4057
 5215TIP3    H137136   5.081   6.326  12.585 -3.7093  0.3727  2.6006
 5215TIP3    H237137   4.990   6.415  12.503  0.8497  1.6192 -1.5510
 5216TIP3   OH237138   1.475   1.827  12.274 -0.0327  1.0241 -0.2777
 5216TIP3    H137139   1.420   1.857  12.201 -1.9227  0.3420  0.8019
 5216TIP3    H237140   1.413   1.791  12.337  1.7287 -0.3430  0.7517
 5217TIP3   OH237141   3.976   4.555  12.961 -0.0692 -0.3239 -0.6099
 5217TIP3    H137142   3.905   4.618  12.977 -1.0440 -1.1487 -1.5665
 5217TIP3    H237143   3.931   4.475  12.934  1.1956 -1.1737 -0.2653
 5218TIP3   OH237144   1.014   2.616  13.160  0.4221 -0.0376  0.1618
 5218TIP3    H137145   1.025   2.534  13.113 -2.8104  0.2279 -1.2641
 5218TIP3    H237146   0.995   2.681  13.092  1.0306  1.5238  1.4107
 5219TIP3   OH237147   3.657   5.173  13.788 -0.2401 -0.4500 -0.2764
 5219TIP3    H137148   3.716   5.183  13.863  0.3508 -1.6058 -0.5628
 5219TIP3    H237149   3.570   5.193  13.823  0.2821  1.1284  0.1885
 5220TIP3   OH237150   5.277   5.869  11.540 -0.1951 -0.2348  0.0175
 5220TIP3    H137151   5.304   5.798  11.598 -2.1835  0.1027  1.4519
 5220TIP3    H237152   5.182   5.864  11.538 -0.3689  2.0885 -0.2341
 5221TIP3   OH237153   4.008   1.200  12.759  0.4674 -0.0662 -0.2873
 5221TIP3    H137154   4.017   1.125  12.699  1.7922  1.4570 -2.0990
 5221TIP3    H237155   4.061   1.177  12.835  1.4308 -0.6794 -1.1320
 5222TIP3   OH237156   1.422   3.700   0.855  0.2464 -0.3542  0.7359
 5222TIP3    H137157   1.393   3.717   0.945 -1.8372 -1.7323  0.4064
 5222TIP3    H237158   1.344   3.665   0.811  1.0007  0.9543 -1.8273
 5223TIP3   OH237159   5.657   6.114   0.686  0.0010  0.0289 -0.6165
 5223TIP3    H137160   5.589   6.181   0.681 -1.1001 -0.8802  1.0167
 5223TIP3    H237161   5.739   6.162   0.681 -0.7659  1.3971 -0.5449
 5224TIP3   OH237162   3.866   0.663   2.534 -0.4063  0.1456 -0.3068
 5224TIP3    H137163   3.849   0.643   2.442 -0.0681 -1.8833  0.0396
 5224TIP3    H237164   3.845   0.756   2.542 -1.1768  0.1844 -2.2511
 5225TIP3   OH237165   6.358   6.149   3.519  1.3219  0.0349  0.0492
 5225TIP3    H137166   6.351   6.072   3.576  0.6250 -0.1727 -0.3083
 5225TIP3    H237167   6.445   6.142   3.480  1.3860 -0.3972  0.2629
 5226TIP3   OH237168   0.811   4.623  15.892  0.5806 -0.1512  0.2069
 5226TIP3    H137169   0.801   4.532  15.865 -0.2499  0.2412 -0.9078
 5226TIP3    H237170   0.874   4.621  15.963  1.7443 -1.4339 -0.8142
 5227TIP3   OH237171   5.956   2.278  14.367  0.1806 -0.2754 -0.3365
 5227TIP3    H137172   6.047   2.307  14.371 -0.1429  0.8675 -0.9789
 5227TIP3    H237173   5.955   2.194  14.414  1.0794  0.8775  1.8252
 5228TIP3   OH237174   6.268   5.729  15.256  0.2164  0.2589  0.3324
 5228TIP3    H137175   6.181   5.718  15.217  0.1246  0.1414  0.5671
 5228TIP3    H237176   6.327   5.735  15.181  0.0816 -0.2872  0.1715
 5229TIP3   OH237177   2.809   4.005  12.347 -0.0455  0.8704  0.0495
 5229TIP3    H137178   2.838   3.985  12.436 -0.3284  2.8470  0.6317
 5229TIP3    H237179   2.884   3.985  12.291  0.2338 -0.0945  0.7491
 5230TIP3   OH237180   3.563   5.515   1.991  1.1690 -0.1880 -0.5713
 5230TIP3    H137181   3.627   5.585   1.980  1.4258 -0.4284 -0.6229
 5230TIP3    H237182   3.485   5.559   2.023  1.1236  0.2059 -1.2101
 5231TIP3   OH237183   4.452   5.615   1.405 -0.0418 -0.2546 -0.4279
 5231TIP3    H137184   4.470   5.702   1.441 -0.5610 -0.8704  1.3837
 5231TIP3    H237185   4.361   5.619   1.377  0.0022 -0.1644 -0.5636
 5232TIP3   OH237186   0.217   2.600   4.884 -0.3624 -0.2635  0.6565
 5232TIP3    H137187   0.208   2.695   4.895  0.2706  0.2050 -2.1326
 5232TIP3    H237188   0.145   2.576   4.826  0.8286 -1.0327 -0.5641
 5233TIP3   OH237189   4.599   6.196  11.703 -0.0035  0.1186 -0.0336
 5233TIP3    H137190   4.607   6.253  11.779  0.6255  0.1361 -0.1084
 5233TIP3    H237191   4.578   6.110  11.740  1.7133 -0.2030  0.2848
 5234TIP3   OH237192   0.878   6.578   0.448 -0.7644 -0.4555 -0.3207
 5234TIP3    H137193   0.961   6.591   0.495 -1.4457  1.2875  0.4698
 5234TIP3    H237194   0.812   6.616   0.505 -1.8686 -0.0617 -1.8190
 5235TIP3   OH237195   4.133   1.453   6.427  0.0106  0.2420  0.1569
 5235TIP3    H137196   4.059   1.422   6.374  0.5415 -0.0436 -0.4190
 5235TIP3    H237197   4.181   1.512   6.369 -0.2938  1.1818  0.8423
 5236TIP3   OH237198   4.449   2.762  12.665 -0.4969 -0.5548  0.0667
 5236TIP3    H137199   4.474   2.688  12.719 -1.1367 -0.1982  0.8715
 5236TIP3    H237200   4.484   2.741  12.578 -0.8160 -1.8867  0.2275
 5237TIP3   OH237201   5.177   3.691  12.831  0.2557 -0.0094 -0.1558
 5237TIP3    H137202   5.113   3.649  12.774 -0.6114  0.1278  0.6836
 5237TIP3    H237203   5.244   3.724  12.772 -1.2937  1.3493 -1.2833
 5238TIP3   OH237204   4.403   0.133  12.841 -0.0922 -0.0446 -0.7132
 5238TIP3    H137205   4.406   0.045  12.804 -1.2666  0.5857 -2.4547
 5238TIP3    H237206   4.481   0.177  12.807  0.6181 -0.4558  0.3455
 5239TIP3   OH237207   3.977   2.248  15.209  0.5612 -0.2575 -0.1722
 5239TIP3    H137208   4.048   2.242  15.273  0.9698  4.0817  0.0867
 5239TIP3    H237209   4.005   2.318  15.149 -1.1721 -2.0713 -3.3480
 5240TIP3   OH237210   1.505   5.324   3.921 -0.4925 -0.4262  0.1130
 5240TIP3    H137211   1.414   5.312   3.948 -1.0322  1.4880 -0.7207
 5240TIP3    H237212   1.556   5.310   4.001 -1.7721  1.6993  1.3921
 5241TIP3   OH237213   1.509   3.294  12.932 -0.2082  0.1589  0.7918
 5241TIP3    H137214   1.522   3.220  12.992  0.5764 -1.3608 -1.1651
 5241TIP3    H237215   1.584   3.292  12.873 -2.2410 -0.1375 -1.9911
 5242TIP3   OH237216   5.771   2.812   3.590 -0.0997  0.0514  0.0231
 5242TIP3    H137217   5.802   2.879   3.529 -0.1502  0.3924  0.3661
 5242TIP3    H237218   5.850   2.765   3.617 -0.0483  0.0497 -0.1343
 5243TIP3   OH237219   1.570   3.206   5.823  0.8386 -0.2632 -0.3794
 5243TIP3    H137220   1.508   3.224   5.894  0.5426 -2.0723 -0.1282
 5243TIP3    H237221   1.649   3.175   5.867  1.5950  1.0455 -0.7525
 5244TIP3   OH237222   1.074   0.873   1.836  0.4245 -0.9457 -0.6943
 5244TIP3    H137223   1.096   0.814   1.908 -2.1724  0.8460  1.8276
 5244TIP3    H237224   1.009   0.826   1.785  1.3582 -1.7587 -1.1594
 5245TIP3   OH237225   0.486   3.120  11.957 -0.4678 -0.4430  0.3371
 5245TIP3    H137226   0.502   3.038  11.911  1.0867 -0.5191  0.9742
 5245TIP3    H237227   0.559   3.128  12.019 -1.2661  0.8017  1.1573
 5246TIP3   OH237228   1.194   0.635   3.834  0.2431  0.0766  0.0665
 5246TIP3    H137229   1.120   0.574   3.840  0.2974 -0.0835 -0.7669
 5246TIP3    H237230   1.211   0.643   3.740  2.7120 -1.6137  0.2887
 5247TIP3   OH237231   2.939   5.761  13.473  0.3058  0.1055  0.2964
 5247TIP3    H137232   2.955   5.801  13.388 -0.8566  0.0365  0.0189
 5247TIP3    H237233   2.883   5.685  13.453 -1.4082  1.0593  1.2721
 5248TIP3   OH237234   6.106   3.351  14.600  0.3811  0.0112 -0.1757
 5248TIP3    H137235   6.058   3.415  14.651 -0.4586 -0.5654 -0.2176
 5248TIP3    H237236   6.126   3.395  14.517  2.3044  1.1671  0.8362
 5249TIP3   OH237237   0.234   4.356   4.989  0.9906 -0.0627 -0.6774
 5249TIP3    H137238   0.252   4.263   4.977  3.2624  0.2099  0.2304
 5249TIP3    H237239   0.242   4.370   5.084 -0.1310  0.9366 -0.6944
 5250TIP3   OH237240   6.339   4.778   4.177  0.4744  0.0888  0.2920
 5250TIP3    H137241   6.270   4.723   4.141 -0.3001  0.3820  1.2775
 5250TIP3    H237242   6.402   4.716   4.214  1.2873 -0.2140 -1.5145
 5251TIP3   OH237243   5.716   5.949   1.407 -0.1269  0.3026  0.2884
 5251TIP3    H137244   5.692   5.901   1.328 -1.0793  0.9332  0.1779
 5251TIP3    H237245   5.716   5.882   1.476  0.1974 -0.1507 -0.1407
 5252TIP3   OH237246   6.185   4.921  12.464 -0.0955 -0.2935  0.0807
 5252TIP3    H137247   6.136   4.863  12.406  0.8029 -0.9324 -0.0788
 5252TIP3    H237248   6.170   5.009  12.430  0.0530 -0.6164 -0.8634
 5253TIP3   OH237249   0.355   2.194  15.026  0.4105  0.7205  0.0130
 5253TIP3    H137250   0.357   2.100  15.048  0.5045  0.9723  1.1404
 5253TIP3    H237251   0.363   2.196  14.931 -1.6017 -0.5141 -0.2392
 5254TIP3   OH237252   3.660   1.458   3.594 -0.3360  0.1218 -0.6242
 5254TIP3    H137253   3.751   1.440   3.617 -0.1033 -0.3467 -1.8171
 5254TIP3    H237254   3.646   1.408   3.513 -0.5461  2.9809 -2.4782
 5255TIP3   OH237255   2.813   3.950   5.210 -0.1071 -0.1442 -0.2591
 5255TIP3    H137256   2.813   3.983   5.120 -3.4180  0.0743 -0.2955
 5255TIP3    H237257   2.723   3.920   5.224  0.6141 -1.2426  2.6309
 5256TIP3   OH237258   1.572   1.871  10.698 -0.0065 -0.0052  0.2957
 5256TIP3    H137259   1.625   1.811  10.751 -0.5659 -0.0281  0.8314
 5256TIP3    H237260   1.501   1.817  10.664  0.3640  0.0017 -0.5116
 5257TIP3   OH237261   0.720   0.092   2.391 -0.0978  0.7125 -0.2486
 5257TIP3    H137262   0.741   0.182   2.366  1.6261  0.3091 -0.3460
 5257TIP3    H237263   0.753   0.038   2.318  0.6022 -0.1196  0.6520
 5258TIP3   OH237264   0.165   6.593  17.175  0.1349  0.3899 -0.0478
 5258TIP3    H137265   0.221   6.652  17.226  1.0902  0.1283 -0.7632
 5258TIP3    H237266   0.079   6.602  17.215  0.7314  0.6063  1.2614
 5259TIP3   OH237267   4.144   1.620   4.685  0.0940 -0.4460  0.2895
 5259TIP3    H137268   4.216   1.632   4.624 -1.5384 -1.2577 -1.8967
 5259TIP3    H237269   4.078   1.571   4.636 -1.1934 -1.4055  2.8050
 5260TIP3   OH237270   0.681   4.407  13.430 -0.3345  0.0842 -0.2153
 5260TIP3    H137271   0.626   4.428  13.354 -0.2471  1.0169 -0.0314
 5260TIP3    H237272   0.661   4.316  13.449 -0.2707 -0.2104 -1.4396
 5261TIP3   OH237273   5.072   0.381  16.622 -0.6591  0.0598 -0.5552
 5261TIP3    H137274   5.043   0.402  16.533  1.3415 -0.8236 -1.4805
 5261TIP3    H237275   5.022   0.303  16.646 -0.2545 -0.4940 -1.4622
 5262TIP3   OH237276   3.980   3.958   3.096 -0.0666 -0.1159  0.2199
 5262TIP3    H137277   3.916   3.972   3.166 -1.3883 -1.6025 -0.6384
 5262TIP3    H237278   4.023   3.876   3.120  0.5118  0.1282  0.0281
 5263TIP3   OH237279   5.771   5.572   0.458 -0.2105 -0.4153 -0.4216
 5263TIP3    H137280   5.689   5.620   0.451 -0.5891 -0.9125  0.3632
 5263TIP3    H237281   5.745   5.480   0.454 -0.0367 -0.6771  2.4216
 5264TIP3   OH237282   5.522   0.381  13.842 -0.0472  0.4317  0.2136
 5264TIP3    H137283   5.581   0.400  13.769 -0.9884  0.3071 -0.5996
 5264TIP3    H237284   5.554   0.299  13.878  1.2708  1.1911  0.8476
 5265TIP3   OH237285   6.676   3.256   0.346 -0.3754 -0.0905 -0.7622
 5265TIP3    H137286   6.655   3.340   0.387 -0.0592 -0.0762 -0.6284
 5265TIP3    H237287   6.591   3.212   0.335 -0.5543  0.3084 -0.9702
 5266TIP3   OH237288   1.167   1.769  11.099 -0.1541  0.0678  0.1280
 5266TIP3    H137289   1.139   1.818  11.022 -2.0721 -1.3240 -0.1439
 5266TIP3    H237290   1.175   1.834  11.168  0.0573  1.1268 -0.8703
 5267TIP3   OH237291   1.219   0.925   5.549 -0.3473  0.4494 -0.4000
 5267TIP3    H137292   1.129   0.913   5.518 -0.4274 -1.3508  0.3627
 5267TIP3    H237293   1.248   1.007   5.509 -2.0913  0.7281 -1.1952
 5268TIP3   OH237294   5.497   2.821  16.062  0.3012  0.1442 -0.1956
 5268TIP3    H137295   5.412   2.802  16.021  0.1083  0.6012 -0.0239
 5268TIP3    H237296   5.533   2.736  16.085 -0.8393  0.0079  1.1784
 5269TIP3   OH237297   1.493   1.032  13.458 -0.4206  0.0154 -0.0381
 5269TIP3    H137298   1.455   1.113  13.493 -0.2462  0.1232 -0.0959
 5269TIP3    H237299   1.456   1.024  13.370  0.2843  0.5321 -0.3884
 5270TIP3   OH237300   5.627   0.006  11.165  0.2892  0.1090  0.4151
 5270TIP3    H137301   5.620  -0.055  11.239 -2.2459 -3.0732 -2.1394
 5270TIP3    H237302   5.706  -0.022  11.118 -0.7481 -1.1754 -0.6304
 5271TIP3   OH237303   1.085   5.780  12.989  0.2672 -0.0125 -0.0069
 5271TIP3    H137304   1.123   5.692  13.000 -0.3338 -0.7150 -2.6921
 5271TIP3    H237305   1.004   5.777  13.039  1.4797 -0.0589  2.0394
 5272TIP3   OH237306   1.468   6.560  16.639 -0.5479 -0.2061  0.1640
 5272TIP3    H137307   1.378   6.531  16.623 -0.7019 -0.2251  1.0243
 5272TIP3    H237308   1.469   6.583  16.732 -0.0588  1.2163 -0.1619
 5273TIP3   OH237309   6.697   4.786  13.513 -0.4952  0.4107 -0.0097
 5273TIP3    H137310   6.722   4.779  13.605  2.4369  1.6902 -0.5975
 5273TIP3    H237311   6.681   4.879  13.499 -1.4406  0.1605 -0.7252
 5274TIP3   OH237312   5.000   4.321   5.429 -0.3178 -0.1538 -0.4060
 5274TIP3    H137313   5.079   4.369   5.401  1.2306 -2.3802 -0.0742
 5274TIP3    H237314   5.001   4.327   5.524 -1.8572  1.6696 -0.4323
 5275TIP3   OH237315   5.257   0.269   5.611  0.5163  0.2702 -0.5673
 5275TIP3    H137316   5.299   0.196   5.656  1.3423  0.9240 -0.2461
 5275TIP3    H237317   5.244   0.237   5.522  1.5028 -0.0405 -0.6189
 5276TIP3   OH237318   0.425   3.796   1.846 -0.3318 -0.1739 -0.6372
 5276TIP3    H137319   0.380   3.869   1.804  1.3609  1.1697 -0.2132
 5276TIP3    H237320   0.450   3.829   1.932  1.1023 -0.9837 -0.7182
 5277TIP3   OH237321   6.455   2.909   4.233 -0.3605  0.6534  0.0579
 5277TIP3    H137322   6.396   2.952   4.295 -0.9785  0.6065 -0.4828
 5277TIP3    H237323   6.425   2.938   4.147  0.1160  0.2567 -0.2512
 5278TIP3   OH237324   1.403   1.479   5.090  0.2194  0.9436  0.2604
 5278TIP3    H137325   1.316   1.514   5.107  0.7771  2.1684  0.6989
 5278TIP3    H237326   1.388   1.400   5.038 -1.0846  1.8091 -0.7158
 5279TIP3   OH237327   0.154   5.322  14.886 -0.3731 -0.4445 -0.5361
 5279TIP3    H137328   0.210   5.383  14.934 -0.6727 -1.1037  0.6754
 5279TIP3    H237329   0.210   5.288  14.816  0.3937 -0.2387 -0.0336
 5280TIP3   OH237330   3.133   2.312   6.313 -0.0992  0.4770 -0.1326
 5280TIP3    H137331   3.151   2.403   6.338  1.7944 -0.0362  0.5618
 5280TIP3    H237332   3.056   2.287   6.364 -1.5055  2.0828 -1.3643
 5281TIP3   OH237333   2.078   0.433  16.587 -0.1718 -0.1978  0.1794
 5281TIP3    H137334   2.159   0.436  16.536 -0.9691  0.9827 -1.0980
 5281TIP3    H237335   2.009   0.438  16.521 -1.2783  4.0602  1.3469
 5282TIP3   OH237336   0.335   6.349   4.733  0.3946 -0.7561  0.1212
 5282TIP3    H137337   0.413   6.402   4.714 -0.6628 -0.1182 -2.9554
 5282TIP3    H237338   0.298   6.389   4.811  2.3533 -0.2092  0.8495
 5283TIP3   OH237339   4.075   5.927  16.824  0.2177 -0.2194  0.3283
 5283TIP3    H137340   4.099   5.910  16.733  0.7829 -1.1594  0.6372
 5283TIP3    H237341   3.981   5.908  16.828  0.4001 -1.2174  0.1652
 5284TIP3   OH237342   2.469   2.233  13.898 -0.0799  0.2064  0.0089
 5284TIP3    H137343   2.503   2.196  13.979 -1.7190 -1.7644 -0.1041
 5284TIP3    H237344   2.428   2.315  13.923  1.0639  0.5425  0.8271
 5285TIP3   OH237345   3.020   1.836  12.540  0.2377  0.3454 -0.2435
 5285TIP3    H137346   2.984   1.793  12.462 -1.0078  0.2217  0.3871
 5285TIP3    H237347   3.062   1.765  12.588 -1.0705 -0.0291  0.3701
 5286TIP3   OH237348   5.682   1.901   5.237 -0.3699 -0.5064  0.2167
 5286TIP3    H137349   5.740   1.955   5.291  0.1106  0.5721 -1.3140
 5286TIP3    H237350   5.731   1.886   5.156 -2.1736  0.4123 -1.1112
 5287TIP3   OH237351   5.513   1.848  11.565  0.4301 -0.4211  0.6489
 5287TIP3    H137352   5.608   1.845  11.555  0.4887  1.1458  0.4262
 5287TIP3    H237353   5.493   1.941  11.579 -1.3177 -0.2540 -2.0751
 5288TIP3   OH237354   4.995   4.513   6.662 -0.0566  0.0571 -0.1873
 5288TIP3    H137355   5.041   4.489   6.742 -0.6326 -1.9159 -0.3912
 5288TIP3    H237356   5.015   4.606   6.650  2.3737 -0.2646  0.7017
 5289TIP3   OH237357   5.345   1.581   4.267  0.4668  0.1853 -0.5475
 5289TIP3    H137358   5.278   1.590   4.198 -2.7732  0.5483  2.3688
 5289TIP3    H237359   5.330   1.494   4.303  1.8273  0.1692  0.0060
 5290TIP3   OH237360   4.371   6.471  13.275  0.0839  0.1985 -0.4060
 5290TIP3    H137361   4.322   6.551  13.255  2.7658  1.7989 -1.1444
 5290TIP3    H237362   4.345   6.409  13.208 -2.4656  0.1553  0.4914
 5291TIP3   OH237363   4.930   0.900   0.015  0.3757 -0.2335 -1.1190
 5291TIP3    H137364   4.957   0.810   0.037  0.8649  0.2942  0.6253
 5291TIP3    H237365   4.835   0.900   0.025  0.5844  0.0546  1.6056
 5292TIP3   OH237366   5.250   4.766  11.014 -0.1277 -0.4007  0.3452
 5292TIP3    H137367   5.234   4.734  10.925  0.8064  1.3160 -0.4851
 5292TIP3    H237368   5.162   4.772  11.052 -0.7709  0.7601 -1.1823
 5293TIP3   OH237369   3.600   3.831   5.944 -0.2490  1.2654  0.1686
 5293TIP3    H137370   3.505   3.842   5.945 -0.5769 -1.0258  0.5266
 5293TIP3    H237371   3.635   3.920   5.945 -2.3782  2.1517  0.8248
 5294TIP3   OH237372   6.184   3.644  16.491 -0.3145  0.0137  0.0733
 5294TIP3    H137373   6.274   3.643  16.457  0.5405 -1.1318  2.2191
 5294TIP3    H237374   6.190   3.694  16.572 -1.8907  0.9473 -0.3421
 5295TIP3   OH237375   5.183   0.412   5.106  0.1533  0.3020 -0.2077
 5295TIP3    H137376   5.269   0.379   5.131  0.2814  0.9497  0.2140
 5295TIP3    H237377   5.122   0.344   5.134  0.5690 -0.4703 -1.1080
 5296TIP3   OH237378   0.516   0.930  16.913  0.3873 -0.2752  0.5384
 5296TIP3    H137379   0.519   0.876  16.834  3.2830  1.5947 -0.8013
 5296TIP3    H237380   0.593   0.904  16.963  1.6639  2.1958  0.0254
 5297TIP3   OH237381   5.878   1.842  12.571 -0.5491  0.9322 -0.0985
 5297TIP3    H137382   5.893   1.922  12.623 -0.2714 -0.2564  1.7467
 5297TIP3    H237383   5.965   1.817  12.540 -0.1178 -0.2928  1.9261
 5298TIP3   OH237384   3.681   0.243  17.250 -0.1196  0.3068 -0.2605
 5298TIP3    H137385   3.644   0.156  17.235 -0.6326  0.2363  1.3118
 5298TIP3    H237386   3.738   0.258  17.174  0.3092 -1.5710 -0.3448
 5299TIP3   OH237387   5.508   3.646   1.908 -0.1712  0.9511 -0.1273
 5299TIP3    H137388   5.524   3.563   1.955 -0.7809  1.2424  0.6169
 5299TIP3    H237389   5.595   3.684   1.898  0.1542  0.0764 -0.7552
 5300TIP3   OH237390   1.635   4.851  15.813 -0.5277 -0.7584 -0.2222
 5300TIP3    H137391   1.661   4.820  15.899  1.8304 -1.7845 -1.2117
 5300TIP3    H237392   1.547   4.815  15.800 -0.5229 -1.4200  1.3427
 5301TIP3   OH237393   6.744   3.019   1.218 -0.1587 -0.1766 -0.6782
 5301TIP3    H137394   6.830   3.060   1.226  0.5264 -1.8122  0.7907
 5301TIP3    H237395   6.754   2.957   1.146 -0.6613  0.8156 -1.6516
 5302TIP3   OH237396   2.912   5.827   4.838  0.4695 -0.2444 -0.5477
 5302TIP3    H137397   2.847   5.760   4.814  1.1304 -0.7717 -0.9105
 5302TIP3    H237398   2.985   5.812   4.777  1.8892 -1.1166  1.2720
 5303TIP3   OH237399   0.161   3.710   6.075 -0.3748  0.4854  0.3619
 5303TIP3    H137400   0.080   3.751   6.044 -1.0137 -1.3592 -0.5228
 5303TIP3    H237401   0.138   3.672   6.159 -0.6194 -0.5687 -0.1718
 5304TIP3   OH237402   0.010   5.754  13.273 -0.0629 -0.2313 -0.0713
 5304TIP3    H137403  -0.005   5.846  13.291  1.7263  0.0036  0.4083
 5304TIP3    H237404   0.100   5.738  13.299  0.1516 -1.7724 -1.5106
 5305TIP3   OH237405   3.045   6.250   2.984 -0.5586 -0.1086  0.2089
 5305TIP3    H137406   3.037   6.296   3.068  0.5637  0.2764  0.1216
 5305TIP3    H237407   3.053   6.320   2.919  0.6049 -0.4025  0.0151
 5306TIP3   OH237408   2.838   3.301   4.112 -0.0870  0.1900 -0.2316
 5306TIP3    H137409   2.750   3.272   4.089 -0.7109 -0.3384  2.4492
 5306TIP3    H237410   2.896   3.238   4.070 -1.1791 -1.6048  0.8186
 5307TIP3   OH237411   0.401   3.662  13.001  0.0344 -0.1038 -0.1788
 5307TIP3    H137412   0.401   3.586  13.060  0.9223 -0.3853 -0.5263
 5307TIP3    H237413   0.321   3.652  12.950 -0.7586  0.1564  0.9797
 5308TIP3   OH237414   4.390   6.155   2.923 -0.3450 -0.6721  0.4202
 5308TIP3    H137415   4.446   6.120   2.992  0.3430  0.2800  0.3710
 5308TIP3    H237416   4.450   6.180   2.853 -0.7585  0.8506  0.5689
 5309TIP3   OH237417   4.381   0.818   4.473  0.4770 -0.3772 -0.0630
 5309TIP3    H137418   4.358   0.884   4.407 -1.0719 -0.5041  0.3119
 5309TIP3    H237419   4.418   0.869   4.546  1.6722 -0.1853 -0.7800
 5310TIP3   OH237420   0.237   3.794   3.351  0.5112 -0.6208  0.2151
 5310TIP3    H137421   0.154   3.800   3.399  0.4115 -1.5942  0.1745
 5310TIP3    H237422   0.212   3.758   3.266  0.7363  0.7485 -0.4608
 5311TIP3   OH237423   6.729   2.079  13.638 -0.4321  0.0662  0.3748
 5311TIP3    H137424   6.650   2.084  13.692 -0.8017 -0.4157 -0.1173
 5311TIP3    H237425   6.699   2.048  13.553  0.5204 -2.0411  0.7237
 5312TIP3   OH237426   2.783   5.782   5.459  0.3248  0.0477  0.4960
 5312TIP3    H137427   2.755   5.704   5.413  0.7185  0.2778 -0.1566
 5312TIP3    H237428   2.875   5.792   5.435  0.0119  1.2888 -0.2866
 5313TIP3   OH237429   3.290   5.067   2.084 -0.4131 -0.1038 -0.4296
 5313TIP3    H137430   3.204   5.040   2.117 -0.2399 -0.0696  0.0508
 5313TIP3    H237431   3.344   4.989   2.089 -0.1407  0.1246  0.1919
 5314TIP3   OH237432   2.740   0.220  15.689  0.1107  0.3725  0.0989
 5314TIP3    H137433   2.655   0.189  15.658  0.3496  0.8930 -1.1268
 5314TIP3    H237434   2.796   0.142  15.689  0.1940  0.4107 -1.1454
 5315TIP3   OH237435   1.421   2.345  14.262 -0.0246  0.3247 -0.2476
 5315TIP3    H137436   1.454   2.313  14.346  1.0536  1.2524 -0.2958
 5315TIP3    H237437   1.500   2.373  14.215 -0.7183  0.8038 -1.1486
 5316TIP3   OH237438   6.666   5.158   0.302 -0.2707  0.0035 -0.4103
 5316TIP3    H137439   6.759   5.152   0.321 -0.3715 -0.8153 -0.1357
 5316TIP3    H237440   6.646   5.078   0.253 -0.6363  0.6252 -1.3091
 5317TIP3   OH237441   5.847   3.449  16.052  0.2157 -0.1269 -0.2766
 5317TIP3    H137442   5.769   3.419  16.006  0.2077  0.9152 -0.9856
 5317TIP3    H237443   5.814   3.481  16.137 -0.0328 -0.3503 -0.2869
 5318TIP3   OH237444   0.970   4.452  14.830 -0.1229 -0.3858 -0.2163
 5318TIP3    H137445   1.032   4.519  14.858  1.2933 -1.6066 -0.2835
 5318TIP3    H237446   1.024   4.388  14.782 -1.3572 -1.7207  0.1052
 5319TIP3   OH237447   3.378   0.188   4.455 -0.1748  0.6583  0.3408
 5319TIP3    H137448   3.312   0.178   4.386 -2.0192  0.0646  2.0889
 5319TIP3    H237449   3.373   0.281   4.478 -0.7860  0.5257  0.7860
 5320TIP3   OH237450   1.096   5.350   5.416 -0.1869  0.2369 -0.3312
 5320TIP3    H137451   1.113   5.407   5.491  1.1536  0.6754 -0.9398
 5320TIP3    H237452   1.181   5.339   5.374 -0.8076 -0.4667 -1.4699
 5321TIP3   OH237453   3.248   5.541   5.773  0.3644  0.0992  0.4703
 5321TIP3    H137454   3.212   5.487   5.843  0.6572  0.2468  0.7397
 5321TIP3    H237455   3.342   5.521   5.772  0.1671 -0.8344 -0.7244
 5322TIP3   OH237456   5.549   3.042  13.995  0.1916 -0.5512 -0.6423
 5322TIP3    H137457   5.473   3.101  14.000  0.8005  0.2256 -0.2075
 5322TIP3    H237458   5.579   3.049  13.905 -0.5116 -1.2105 -0.9385
 5323TIP3   OH237459   3.269   5.352  16.578 -0.3727  0.4336  0.2522
 5323TIP3    H137460   3.208   5.292  16.535  0.4071 -1.0336  1.1202
 5323TIP3    H237461   3.344   5.357  16.518  0.9240 -1.9878  1.5193
 5324TIP3   OH237462   3.438   6.408   3.936  0.3907  0.6844 -0.4195
 5324TIP3    H137463   3.397   6.337   3.887  0.0427  0.8495 -0.3676
 5324TIP3    H237464   3.379   6.482   3.926 -1.1141 -0.0011  2.4688
 5325TIP3   OH237465   0.829   4.442  16.645  0.2874  0.2031  0.1657
 5325TIP3    H137466   0.879   4.388  16.584  1.9711  1.0688  0.7227
 5325TIP3    H237467   0.862   4.417  16.732 -2.1007 -1.0455  0.8021
 5326TIP3   OH237468   0.546   2.702   3.868 -0.2626 -0.7956  0.0444
 5326TIP3    H137469   0.490   2.750   3.808 -0.0748  0.0046  0.4914
 5326TIP3    H237470   0.553   2.614   3.830 -0.4796 -0.4236 -0.8739
 5327TIP3   OH237471   0.070   4.118  13.439 -0.4721  0.9822 -0.3640
 5327TIP3    H137472   0.152   4.103  13.486 -1.1704 -1.1882  0.2855
 5327TIP3    H237473   0.040   4.204  13.470 -0.3786  0.1040  2.4337
 5328TIP3   OH237474   2.356   1.273  11.643 -0.3963  0.2207 -0.0168
 5328TIP3    H137475   2.312   1.251  11.725 -0.6118 -0.9384 -0.4144
 5328TIP3    H237476   2.294   1.247  11.574  0.1917  0.2197 -0.5570
 5329TIP3   OH237477   3.618   1.507  14.362 -0.4532  0.1775 -0.1916
 5329TIP3    H137478   3.584   1.516  14.273 -0.2131 -0.9969 -0.4258
 5329TIP3    H237479   3.677   1.581  14.373  2.3545 -1.5149 -2.3568
 5330TIP3   OH237480   3.754   0.476   2.286 -0.4690  0.2598  0.7865
 5330TIP3    H137481   3.696   0.437   2.221  0.5710 -0.8393  0.4799
 5330TIP3    H237482   3.772   0.406   2.348  2.3941 -0.2127 -0.4182
 5331TIP3   OH237483   5.356   6.076  13.068  0.1205  0.0455 -0.1027
 5331TIP3    H137484   5.432   6.124  13.034  0.2152  0.0498  0.1160
 5331TIP3    H237485   5.387   5.985  13.072  0.4657  0.1972  0.9872
 5332TIP3   OH237486   5.780   1.519  16.868 -0.5363 -0.3284  0.0741
 5332TIP3    H137487   5.710   1.456  16.884  0.3367 -1.6571 -1.0530
 5332TIP3    H237488   5.860   1.476  16.899  0.0872  0.2018 -0.7166
 5333TIP3   OH237489   5.432   5.484  12.915  0.2176 -0.0036  0.3424
 5333TIP3    H137490   5.342   5.466  12.889  0.9001 -1.3983 -1.2323
 5333TIP3    H237491   5.433   5.469  13.010 -1.0366 -0.7230  0.2573
 5334TIP3   OH237492   1.016   1.806  16.205 -0.6402  0.4317  0.3801
 5334TIP3    H137493   1.095   1.781  16.158  1.3624  0.8940  3.2211
 5334TIP3    H237494   0.965   1.857  16.142  1.0790 -0.2544 -1.6847
 5335TIP3   OH237495   4.963   2.868   2.454 -0.4239 -0.1561 -0.2272
 5335TIP3    H137496   4.958   2.780   2.415  1.2649  0.2051 -1.3602
 5335TIP3    H237497   4.921   2.925   2.390 -0.1498  0.0669 -0.2099
 5336TIP3   OH237498   2.269   5.856  13.496 -0.3757 -0.0145 -0.6910
 5336TIP3    H137499   2.203   5.914  13.457 -1.0649  0.5819  1.2274
 5336TIP3    H237500   2.267   5.877  13.589 -0.1057 -2.6283 -0.0178
 5337TIP3   OH237501   1.723   3.323  17.181  0.8256 -0.1859  0.1995
 5337TIP3    H137502   1.658   3.314  17.110  2.2000 -1.3008 -0.9692
 5337TIP3    H237503   1.679   3.288  17.258 -0.5746  0.6994 -0.1487
 5338TIP3   OH237504   1.658   2.646  12.166 -0.1894 -0.6415 -0.1785
 5338TIP3    H137505   1.641   2.577  12.102 -1.4825 -0.9818  0.4925
 5338TIP3    H237506   1.668   2.600  12.249  0.8308 -0.1518 -0.0037
 5339TIP3   OH237507   5.930   1.769  14.331 -0.3297  0.4390 -0.1084
 5339TIP3    H137508   5.954   1.684  14.369 -1.3072  0.8399  1.5039
 5339TIP3    H237509   5.835   1.770  14.332 -0.3758  0.8619 -1.7960
 5340TIP3   OH237510   1.146   3.386  16.213 -0.6390  0.1310 -0.3735
 5340TIP3    H137511   1.236   3.399  16.242 -1.1076  1.0692  0.7589
 5340TIP3    H237512   1.145   3.416  16.122  0.3051 -0.4362 -0.5804
 5341TIP3   OH237513   5.988   1.958  14.722  0.7902 -0.4692  0.1941
 5341TIP3    H137514   6.037   1.918  14.794  0.1948  0.4017  1.1112
 5341TIP3    H237515   5.896   1.946  14.746  0.5836  1.6263  0.6312
 5342TIP3   OH237516   2.832   1.305   1.488 -0.4664 -0.5423  0.0097
 5342TIP3    H137517   2.781   1.382   1.512  1.3444  0.6031  0.3866
 5342TIP3    H237518   2.852   1.262   1.572 -2.1543 -1.9416 -0.2472
 5343TIP3   OH237519   1.066   3.557  11.001 -0.1580  0.5419 -0.4256
 5343TIP3    H137520   1.118   3.478  10.990 -0.1861  0.1531  1.9047
 5343TIP3    H237521   1.124   3.628  10.975  0.4599 -0.1058 -0.8398
 5344TIP3   OH237522   5.451   0.053  12.577 -0.2535  0.1716 -0.0445
 5344TIP3    H137523   5.368   0.078  12.617 -0.2817 -0.5728  0.3944
 5344TIP3    H237524   5.446   0.086  12.487 -0.2558  1.7340  0.4981
 5345TIP3   OH237525   4.469   5.605   2.822 -0.1481  0.0987 -0.3216
 5345TIP3    H137526   4.442   5.696   2.811 -0.2058 -0.2031 -3.4729
 5345TIP3    H237527   4.507   5.602   2.910 -1.1524  2.8769  0.3105
 5346TIP3   OH237528   6.679   0.002  10.303  0.7475 -0.7206 -0.0269
 5346TIP3    H137529   6.666  -0.090  10.328  0.8885 -0.7028  0.1105
 5346TIP3    H237530   6.608   0.048  10.348  1.9713 -0.4536  1.7344
 5347TIP3   OH237531   2.784   6.000  13.985  0.3568 -0.3510 -0.5201
 5347TIP3    H137532   2.692   6.026  13.987  0.4131  0.0389 -1.7876
 5347TIP3    H237533   2.826   6.057  14.049 -0.2063 -0.1784 -0.2949
 5348TIP3   OH237534   6.105   3.070   3.488 -0.0428  0.4930  0.5703
 5348TIP3    H137535   6.082   3.079   3.581 -0.3328 -1.4704  0.7444
 5348TIP3    H237536   6.201   3.065   3.488  0.0220  1.6019  0.6299
 5349TIP3   OH237537   2.262   1.862  15.459  0.8027  0.1637  0.6382
 5349TIP3    H137538   2.237   1.824  15.543  3.1740  1.2399  1.9467
 5349TIP3    H237539   2.322   1.799  15.421  0.5689  0.1731  0.2479
 5350TIP3   OH237540   2.233   4.783   6.274  0.1791  0.4377 -0.4409
 5350TIP3    H137541   2.211   4.739   6.355 -1.5218  0.4398 -0.8726
 5350TIP3    H237542   2.285   4.859   6.301  0.6314 -0.2057  0.5292
 5351TIP3   OH237543   2.228   6.527  16.964  0.1231  0.0506 -0.1581
 5351TIP3    H137544   2.322   6.530  16.982  0.4499  1.0299 -1.8076
 5351TIP3    H237545   2.186   6.539  17.050  1.4820 -1.0254  0.6885
 5352TIP3   OH237546   5.143   2.251   1.252  0.5809 -0.1302 -0.6319
 5352TIP3    H137547   5.178   2.323   1.305  0.4234 -0.4543 -0.0844
 5352TIP3    H237548   5.211   2.184   1.256 -0.2275 -0.9218  0.7619
 5353TIP3   OH237549   1.024   2.317   0.749  1.1032  0.1805 -0.4774
 5353TIP3    H137550   1.104   2.265   0.747  1.0884  0.1346  0.0306
 5353TIP3    H237551   0.971   2.277   0.817  0.5861  0.1251 -0.9117
 5354TIP3   OH237552   5.023   2.881   1.256 -0.4357 -0.3164  0.0928
 5354TIP3    H137553   5.068   2.935   1.192 -1.8378  0.5599 -0.2105
 5354TIP3    H237554   5.092   2.850   1.314  0.5405  1.1094 -0.2404
 5355TIP3   OH237555   1.200   5.021  13.626 -0.0292 -0.1647 -0.5928
 5355TIP3    H137556   1.156   5.105  13.639  0.3922  0.1926 -1.3877
 5355TIP3    H237557   1.153   4.981  13.552  0.5118 -0.0899 -0.9864
 5356TIP3   OH237558   4.114   6.420   1.676  0.3064 -0.0311 -0.4581
 5356TIP3    H137559   4.032   6.395   1.632 -1.3827  3.5120  0.2917
 5356TIP3    H237560   4.128   6.351   1.741  0.4434 -3.0346 -3.3962
 5357TIP3   OH237561   1.489   3.263   6.338 -0.3934  0.1380 -0.0677
 5357TIP3    H137562   1.529   3.261   6.251  0.0985 -2.6324  0.1207
 5357TIP3    H237563   1.546   3.320   6.389 -0.2392  1.1749 -1.3479
 5358TIP3   OH237564   2.931   0.762   3.461  0.1693  0.3415  0.0352
 5358TIP3    H137565   2.954   0.706   3.535  1.7390 -0.1281 -0.7613
 5358TIP3    H237566   2.878   0.706   3.404 -0.2532  0.4160  0.3474
 5359TIP3   OH237567   3.760   4.692  15.988  0.6025  0.1009 -0.3224
 5359TIP3    H137568   3.699   4.628  16.025 -0.7900  0.3693 -2.0118
 5359TIP3    H237569   3.829   4.639  15.947  1.4051 -0.2128  1.3753
 5360TIP3   OH237570   5.470   5.147   4.975  0.7255 -0.2985  0.4124
 5360TIP3    H137571   5.554   5.101   4.969  0.9847  0.0476  1.3154
 5360TIP3    H237572   5.418   5.109   4.904  1.4391 -0.9323  0.2071
 5361TIP3   OH237573   5.385   0.047   0.176  0.0115  0.4258 -0.0359
 5361TIP3    H137574   5.342   0.090   0.250  0.3741 -0.6368  0.8333
 5361TIP3    H237575   5.457   0.105   0.153  0.5675  0.2647  1.1932
 5362TIP3   OH237576   6.011   6.196   0.944  0.1952  0.0316  0.1228
 5362TIP3    H137577   5.984   6.247   1.021 -1.1327  2.1489 -1.6245
 5362TIP3    H237578   5.942   6.131   0.933 -0.5341  0.8486 -0.2407
 5363TIP3   OH237579   3.800   0.204  14.611  0.6304  0.2163 -0.3407
 5363TIP3    H137580   3.706   0.205  14.594  0.4396 -0.3054  0.6232
 5363TIP3    H237581   3.834   0.134  14.554  0.7090  1.4933 -1.9237
 5364TIP3   OH237582   2.483   5.161   1.471  0.5586  0.3303 -0.1868
 5364TIP3    H137583   2.402   5.205   1.499  0.5698 -0.9177  2.0224
 5364TIP3    H237584   2.485   5.174   1.376 -2.6710 -0.2537 -0.4704
 5365TIP3   OH237585   2.177   0.370  12.092 -0.5587 -0.0907  0.5385
 5365TIP3    H137586   2.257   0.337  12.134  0.2684  0.2154 -0.7267
 5365TIP3    H237587   2.112   0.302  12.106 -0.3113 -0.0134  2.2497
 5366TIP3   OH237588   5.375   3.271   4.876 -0.3422  0.0172  0.4546
 5366TIP3    H137589   5.323   3.202   4.835 -0.3640  0.2292  0.1247
 5366TIP3    H237590   5.330   3.289   4.959 -0.2124 -0.5149  0.6453
 5367TIP3   OH237591   0.194   2.023  12.626  0.6779 -0.0097  0.2616
 5367TIP3    H137592   0.273   2.013  12.679  2.0309  0.8980 -1.4794
 5367TIP3    H237593   0.217   1.983  12.541 -0.8559 -0.0386 -0.1670
 5368TIP3   OH237594   4.542   3.878   2.710 -0.0490  0.6037  0.0877
 5368TIP3    H137595   4.483   3.846   2.778 -0.3342 -1.7808 -1.1506
 5368TIP3    H237596   4.512   3.966   2.690 -2.7180 -0.2596  0.0158
 5369TIP3   OH237597   2.051   0.740   5.835  1.1051 -0.4820  0.4616
 5369TIP3    H137598   2.035   0.775   5.923  2.1795 -2.2414  1.4060
 5369TIP3    H237599   2.048   0.817   5.778  0.6331  0.7347  2.0602
 5370TIP3   OH237600   6.491   4.385   6.526  0.1434 -0.0404  0.6185
 5370TIP3    H137601   6.441   4.363   6.605 -1.4215  0.1834 -0.2699
 5370TIP3    H237602   6.444   4.342   6.455  1.7210 -0.5176 -0.1873
 5371TIP3   OH237603   1.697   0.465  16.077 -0.3106  0.3169  0.8231
 5371TIP3    H137604   1.776   0.415  16.098 -0.7842  0.0712  2.1413
 5371TIP3    H237605   1.696   0.535  16.143 -1.2608  0.2217  0.9215
 5372TIP3   OH237606   0.822   4.000   5.892  0.0614  0.2421 -0.0908
 5372TIP3    H137607   0.912   4.023   5.872 -0.3624  1.4962 -0.6392
 5372TIP3    H237608   0.787   3.964   5.811  0.0565 -0.2436  0.1212
 5373TIP3   OH237609   5.235   0.489   6.019 -0.2552  0.1485 -0.2642
 5373TIP3    H137610   5.228   0.458   6.109  0.1650 -0.9218 -0.5746
 5373TIP3    H237611   5.248   0.583   6.026 -0.1400  0.0592  0.7968
 5374TIP3   OH237612   3.112   0.781   0.314  0.1866  0.1886  0.0867
 5374TIP3    H137613   3.167   0.705   0.333  1.1326 -0.1201 -3.2210
 5374TIP3    H237614   3.150   0.852   0.367  1.4100 -0.8793  0.6990
 5375TIP3   OH237615   6.740   0.919   5.885  0.4741 -0.2069 -0.3566
 5375TIP3    H137616   6.801   0.865   5.835 -0.8474 -2.0287 -0.0853
 5375TIP3    H237617   6.793   0.957   5.954  1.3204 -1.8402 -0.0545
 5376TIP3   OH237618   1.573   2.685  13.942  0.0350  0.0189 -0.2938
 5376TIP3    H137619   1.529   2.600  13.947  2.5596 -1.5437 -2.3068
 5376TIP3    H237620   1.621   2.692  14.024 -1.6954  0.5076  0.7393
 5377TIP3   OH237621   2.737   5.118   5.326  0.1041  0.1066 -0.8629
 5377TIP3    H137622   2.720   5.041   5.272  1.3007  0.7062 -2.1578
 5377TIP3    H237623   2.807   5.164   5.280  0.2177  1.3623  0.5056
 5378TIP3   OH237624   5.909   5.438  17.093 -0.1255 -0.8216  0.4087
 5378TIP3    H137625   5.817   5.421  17.071 -0.0147 -1.1793  0.2085
 5378TIP3    H237626   5.952   5.448  17.009 -0.0291 -0.3620  0.5075
 5379TIP3   OH237627   0.611   3.450  16.897  0.2148 -0.0997  0.1183
 5379TIP3    H137628   0.697   3.481  16.924  0.4643 -0.0304 -0.7096
 5379TIP3    H237629   0.549   3.495  16.954  0.5496  2.0520 -1.1088
 5380TIP3   OH237630   5.598   3.326  12.419  0.4563  0.6875  0.1598
 5380TIP3    H137631   5.632   3.406  12.460  1.0973 -0.0598  1.1248
 5380TIP3    H237632   5.504   3.327  12.437  0.4896  1.1340  0.3205
 5381TIP3   OH237633   6.706   4.477  10.878  0.0668 -0.1449 -0.1319
 5381TIP3    H137634   6.737   4.551  10.826 -0.1607 -1.1624 -1.7692
 5381TIP3    H237635   6.758   4.481  10.959  0.4418  1.4524 -0.4198
 5382TIP3   OH237636   3.491   6.397  11.013  0.2456  0.1851  0.1493
 5382TIP3    H137637   3.551   6.325  11.031 -1.1089 -0.9730  0.1586
 5382TIP3    H237638   3.512   6.424  10.923 -1.4019 -2.4857 -1.1685
 5383TIP3   OH237639   4.697   4.494  15.531  0.0998  0.4509 -0.3683
 5383TIP3    H137640   4.701   4.544  15.612 -0.9423 -1.9792  1.3135
 5383TIP3    H237641   4.605   4.495  15.506  0.2343  0.2318 -0.9046
 5384TIP3   OH237642   5.762   4.106   3.654  0.5569 -0.1757 -0.0036
 5384TIP3    H137643   5.697   4.130   3.720  2.0478  1.6141  0.9271
 5384TIP3    H237644   5.739   4.159   3.578  0.4281 -0.1578  0.0471
 5385TIP3   OH237645   3.455   4.208  12.048  0.2706 -0.6233 -0.0975
 5385TIP3    H137646   3.469   4.245  11.961  0.0474  1.0855  0.5461
 5385TIP3    H237647   3.455   4.284  12.106  2.1100 -1.8375  1.6278
 5386TIP3   OH237648   1.299   6.798  11.839 -0.0336  0.0335  0.0023
 5386TIP3    H137649   1.282   6.807  11.745  0.6552 -0.1454 -0.1421
 5386TIP3    H237650   1.280   6.706  11.859  2.1726 -0.5710 -0.4725
 5387TIP3   OH237651   5.326   3.879   1.228  0.5023  0.0997 -0.1050
 5387TIP3    H137652   5.419   3.876   1.209  0.0343 -1.2640 -2.5755
 5387TIP3    H237653   5.320   3.929   1.310  3.4086 -0.4157  0.5329
 5388TIP3   OH237654   2.322   5.736  15.373 -0.1393  0.2559 -0.0066
 5388TIP3    H137655   2.280   5.786  15.303  1.3692  1.5308 -0.0839
 5388TIP3    H237656   2.376   5.671  15.327 -1.8468 -1.3010  0.0879
 5389TIP3   OH237657   2.261   0.957   5.482 -0.1603  0.0444 -0.4968
 5389TIP3    H137658   2.306   1.040   5.466 -0.5166  0.0439 -1.6234
 5389TIP3    H237659   2.239   0.925   5.394 -0.1640 -1.1680 -0.0674
 5390TIP3   OH237660   4.855   0.321   0.991 -0.5530 -0.0849 -0.3592
 5390TIP3    H137661   4.869   0.325   1.085 -1.3688 -0.1225 -0.2322
 5390TIP3    H237662   4.835   0.229   0.973 -1.0202  0.0410 -0.4804
 5391TIP3   OH237663   2.076   5.296   5.486  0.3722 -0.5002 -0.4401
 5391TIP3    H137664   2.073   5.303   5.581  0.7231 -1.0201 -0.3929
 5391TIP3    H237665   2.117   5.378   5.457 -0.8439  0.2137 -0.2298
 5392TIP3   OH237666   3.177   6.553  11.448 -0.2773  0.1224  0.1915
 5392TIP3    H137667   3.122   6.614  11.399 -0.5144  1.2917  1.8388
 5392TIP3    H237668   3.206   6.489  11.383 -0.7887  1.4495 -1.3975
 5393TIP3   OH237669   0.496   1.533   0.460  0.1442 -0.5758 -0.2947
 5393TIP3    H137670   0.531   1.474   0.393  1.0143  1.3744 -1.6358
 5393TIP3    H237671   0.415   1.567   0.422 -0.4710 -1.0472  0.5621
 5394TIP3   OH237672   0.154   3.415  16.570 -0.2168 -0.1189 -0.1205
 5394TIP3    H137673   0.073   3.366  16.557  0.2949 -0.4950 -2.2537
 5394TIP3    H237674   0.163   3.467  16.491  2.3762 -1.2408 -0.6575
 5395TIP3   OH237675   4.083   1.862   2.422  0.0384  0.7421 -0.1008
 5395TIP3    H137676   4.064   1.785   2.368  0.7142  0.0941  0.5604
 5395TIP3    H237677   4.007   1.869   2.480  0.6961 -0.4626  0.9766
 5396TIP3   OH237678   1.012   6.136   4.694 -0.5827  0.3295  0.0423
 5396TIP3    H137679   0.976   6.050   4.716 -1.5917  0.5634 -0.6322
 5396TIP3    H237680   1.102   6.118   4.669 -1.1092 -0.7024 -1.1964
 5397TIP3   OH237681   1.687   5.153   1.096  0.1935  0.1621 -0.6167
 5397TIP3    H137682   1.757   5.094   1.125 -0.5207  0.1170  1.1701
 5397TIP3    H237683   1.638   5.172   1.176 -0.1255  2.5056 -1.3117
 5398TIP3   OH237684   4.230   0.205  13.731 -0.5051  0.1927 -0.4374
 5398TIP3    H137685   4.295   0.200  13.660  0.3459  0.3746  0.3072
 5398TIP3    H237686   4.154   0.247  13.690 -0.1171  0.0830 -1.3045
 5399TIP3   OH237687   4.885   3.242  14.884  0.2309 -0.9262 -0.0960
 5399TIP3    H137688   4.952   3.193  14.837  0.8713  0.1757 -0.3745
 5399TIP3    H237689   4.819   3.177  14.907  1.9276 -2.3063  1.2277
 5400TIP3   OH237690   5.975   6.724  16.402 -0.1383  0.0382  0.0690
 5400TIP3    H137691   6.067   6.731  16.377 -0.7573  0.5890 -2.3338
 5400TIP3    H237692   5.963   6.790  16.470  1.0491  0.5840 -0.2357
 5401TIP3   OH237693   5.088   1.440  16.804  0.0107 -0.7662  0.1984
 5401TIP3    H137694   5.004   1.438  16.850 -0.7746 -2.5921 -1.1487
 5401TIP3    H237695   5.075   1.380  16.730  2.6563 -1.4932  0.2242
 5402TIP3   OH237696   2.442   3.291   1.969  0.0298  0.5732 -0.3199
 5402TIP3    H137697   2.476   3.372   2.007 -2.0372  1.4351 -0.1584
 5402TIP3    H237698   2.396   3.319   1.889 -1.6972 -0.2227  0.3320
 5403TIP3   OH237699   0.160   3.413  13.726 -0.1093 -0.1882  0.8887
 5403TIP3    H137700   0.249   3.431  13.758 -0.1056  0.1137  0.7083
 5403TIP3    H237701   0.122   3.499  13.710  0.1464 -0.3438 -0.6406
 5404TIP3   OH237702   5.075   0.841   4.170 -0.2884 -0.6944  0.0688
 5404TIP3    H137703   4.980   0.834   4.170 -0.4828  0.9500 -1.7358
 5404TIP3    H237704   5.105   0.769   4.114 -0.7406  0.5527 -1.8573
 5405TIP3   OH237705   0.323   3.069  17.185  0.4772  0.2574 -0.1627
 5405TIP3    H137706   0.260   3.066  17.256  1.0738 -0.0391  0.3624
 5405TIP3    H237707   0.283   3.017  17.115 -0.2630  0.8351 -0.1843
 5406TIP3   OH237708   6.775   4.063  16.847 -0.4452 -0.3966  0.4483
 5406TIP3    H137709   6.715   4.066  16.772  0.0260 -1.7533 -0.0183
 5406TIP3    H237710   6.717   4.059  16.923 -0.9921  3.6159  0.4549
 5407TIP3   OH237711   5.064   5.114  15.182 -0.0129  0.4055 -0.1909
 5407TIP3    H137712   5.139   5.169  15.203 -0.1969  1.1508 -1.4237
 5407TIP3    H237713   4.991   5.175  15.173 -0.1277  0.0614 -2.0556
 5408TIP3   OH237714   2.776   1.774   0.282  0.1099 -0.4791 -0.3295
 5408TIP3    H137715   2.775   1.848   0.221 -0.6048  0.8880  1.2387
 5408TIP3    H237716   2.836   1.802   0.351  0.0286 -1.4943  0.1565
 5409TIP3   OH237717   3.365   2.863  17.287 -0.2757 -0.1490  0.3918
 5409TIP3    H137718   3.358   2.938  17.347 -0.0227 -0.6760  1.0959
 5409TIP3    H237719   3.431   2.807  17.327  0.7500  0.0352 -0.9885
 5410TIP3   OH237720   1.615   6.605  15.456  0.6032  0.2046 -0.1718
 5410TIP3    H137721   1.697   6.597  15.407  0.8042  1.3304 -0.0513
 5410TIP3    H237722   1.549   6.567  15.399  1.0017  0.5383 -0.8685
 5411TIP3   OH237723   4.528   0.311   0.235  0.7330  0.6123  0.3388
 5411TIP3    H137724   4.510   0.320   0.328  0.3562  1.3051  0.2137
 5411TIP3    H237725   4.571   0.226   0.226 -1.2322 -0.5117  0.8624
 5412TIP3   OH237726   6.696   1.681   5.165 -0.3965 -0.6309 -0.7888
 5412TIP3    H137727   6.621   1.713   5.215 -0.9592 -0.7558 -1.5298
 5412TIP3    H237728   6.771   1.731   5.198 -1.2151  1.3462 -1.8106
 5413TIP3   OH237729   5.832   1.518   4.147  0.1001 -0.2694  0.2732
 5413TIP3    H137730   5.918   1.496   4.182  0.7223  1.8167  0.2030
 5413TIP3    H237731   5.827   1.613   4.155 -1.2213 -0.0884 -1.9689
 5414TIP3   OH237732   6.501   6.178   6.099 -0.1469  0.5805 -0.1234
 5414TIP3    H137733   6.572   6.165   6.037  0.3311  2.5379 -0.0504
 5414TIP3    H237734   6.431   6.218   6.048 -0.1927  1.0968  0.3304
 5415TIP3   OH237735   5.184   3.913  16.855 -0.1433  0.1335 -0.0595
 5415TIP3    H137736   5.230   3.836  16.889 -0.2898 -0.3005 -0.8187
 5415TIP3    H237737   5.130   3.880  16.784  0.3203  1.0344 -0.8699
 5416TIP3   OH237738   3.596   2.998   0.141  0.3754  0.1882 -0.3704
 5416TIP3    H137739   3.630   2.909   0.137  0.8756  0.2952  0.9252
 5416TIP3    H237740   3.554   3.003   0.227 -0.8533  0.7921 -0.9792
 5417TIP3   OH237741   2.437   2.511   6.682  0.0473 -0.2043 -0.0984
 5417TIP3    H137742   2.408   2.442   6.622 -0.2283 -0.4707  0.3295
 5417TIP3    H237743   2.362   2.523   6.741  0.9131 -1.1384  1.2509
 5418TIP3   OH237744   6.547   1.293   6.471 -0.2030  0.0370 -0.2850
 5418TIP3    H137745   6.485   1.345   6.522  0.3481  0.9859 -0.5577
 5418TIP3    H237746   6.503   1.209   6.457 -1.3867  0.6731 -0.4186
 5419TIP3   OH237747   3.985   4.106  14.052  0.3078 -0.2885  0.2486
 5419TIP3    H137748   4.058   4.046  14.038  0.6135 -0.2469  1.5571
 5419TIP3    H237749   3.935   4.067  14.123  1.1328  1.5249  1.8943
 5420TIP3   OH237750   5.953   0.593  11.766  0.4149 -0.1148 -0.2947
 5420TIP3    H137751   5.925   0.676  11.727 -0.7195 -0.7988 -1.0163
 5420TIP3    H237752   5.909   0.590  11.850  0.8231  0.2166 -0.0669
 5421TIP3   OH237753   0.595   3.300   4.279 -0.5486 -0.6387  0.1378
 5421TIP3    H137754   0.530   3.367   4.257  0.2357 -1.0371 -4.2911
 5421TIP3    H237755   0.675   3.350   4.296 -0.8120 -0.3267  0.4812
 5422TIP3   OH237756   5.987   3.577   5.074  0.2127 -0.5902 -0.1207
 5422TIP3    H137757   6.019   3.491   5.047  0.7261 -0.7346  0.8845
 5422TIP3    H237758   6.048   3.639   5.033 -0.5763 -0.6520 -1.4266
 5423TIP3   OH237759   5.798   4.734   1.176 -0.0016 -0.3856  0.1780
 5423TIP3    H137760   5.835   4.666   1.232 -0.2456 -1.8770 -1.3751
 5423TIP3    H237761   5.782   4.689   1.093  0.2887  1.7112 -1.0655
 5424TIP3   OH237762   4.359   1.312   4.754  0.4090  0.4904 -1.1182
 5424TIP3    H137763   4.432   1.350   4.705  0.6803  0.0421 -1.0723
 5424TIP3    H237764   4.397   1.283   4.837  0.1664  0.3238 -1.0610
 5425TIP3   OH237765   5.210   1.904   2.572  0.2208 -0.0136  0.0994
 5425TIP3    H137766   5.270   1.968   2.611 -0.8071  0.3728  1.1001
 5425TIP3    H237767   5.126   1.950   2.567 -0.4541 -1.1737  0.5213
 5426TIP3   OH237768   2.130   0.060  12.376 -0.2643 -0.0740 -0.0731
 5426TIP3    H137769   2.217   0.037  12.343 -0.7743 -0.6461 -1.0449
 5426TIP3    H237770   2.081   0.086  12.298 -1.1244 -0.2578  0.4020
 5427TIP3   OH237771   0.676   0.754  15.315 -0.1462  0.4140 -0.2844
 5427TIP3    H137772   0.685   0.776  15.407 -0.3573  1.4739 -0.5059
 5427TIP3    H237773   0.591   0.790  15.289 -0.3822 -0.4278 -0.7499
 5428TIP3   OH237774   5.629   2.013  11.888  0.2597  0.5123  0.1116
 5428TIP3    H137775   5.655   2.040  11.976 -1.1402  0.3329  0.6037
 5428TIP3    H237776   5.668   2.079  11.831  1.2734  0.5788  0.8508
 5429TIP3   OH237777   3.503   0.118  12.203  0.6951 -0.4089  0.3980
 5429TIP3    H137778   3.553   0.101  12.283  3.2980 -0.7343 -1.1782
 5429TIP3    H237779   3.440   0.046  12.198  0.6165 -0.4878  2.0416
 5430TIP3   OH237780   1.255   5.129  11.678 -0.6066  0.3464  0.3399
 5430TIP3    H137781   1.161   5.109  11.670 -0.8389  1.1490  0.9262
 5430TIP3    H237782   1.297   5.043  11.687 -1.3273  0.0008  0.5080
 5431TIP3   OH237783   2.365   4.367  11.287  0.5731  0.2458  0.1437
 5431TIP3    H137784   2.301   4.358  11.358 -0.0645 -1.0198 -0.5653
 5431TIP3    H237785   2.353   4.457  11.257 -1.5475 -0.1998 -0.5482
 5432TIP3   OH237786   1.734   3.377  16.308 -0.1244 -0.2285 -0.2296
 5432TIP3    H137787   1.650   3.350  16.346  0.5898 -0.5455  1.2059
 5432TIP3    H237788   1.716   3.391  16.215 -1.3963 -1.8993 -0.2680
 5433TIP3   OH237789   3.825   1.395   2.631 -0.1121 -0.0608  0.1793
 5433TIP3    H137790   3.788   1.385   2.543  1.7189 -0.4741 -0.6009
 5433TIP3    H237791   3.904   1.340   2.630 -0.4399 -0.6608  2.3433
 5434TIP3   OH237792   3.569   1.740   4.095 -0.3286  0.1747  0.4868
 5434TIP3    H137793   3.548   1.677   4.025  1.8432 -0.3426  0.2094
 5434TIP3    H237794   3.654   1.710   4.129  0.1536  2.2075  1.2366
 5435TIP3   OH237795   2.479   1.163   2.302 -0.0354  0.1282 -0.0799
 5435TIP3    H137796   2.486   1.125   2.214 -0.4269 -0.3583  0.0958
 5435TIP3    H237797   2.563   1.143   2.343 -0.3948 -0.9653  0.1657
 5436TIP3   OH237798   5.669   5.798   6.509 -0.5586  0.2859  0.5566
 5436TIP3    H137799   5.671   5.733   6.439 -2.7534  0.5516  0.1744
 5436TIP3    H237800   5.595   5.771   6.564 -0.8442  1.8689  0.9896
 5437TIP3   OH237801   2.701   4.661   1.738 -0.6469  0.5453  0.0442
 5437TIP3    H137802   2.752   4.730   1.695  0.9813 -1.0741 -0.7666
 5437TIP3    H237803   2.676   4.602   1.667 -0.1184 -0.8534  0.9777
 5438TIP3   OH237804   4.508   1.270  12.217  0.2942  0.1522 -0.4873
 5438TIP3    H137805   4.429   1.277  12.163  0.1647 -0.3976 -0.3765
 5438TIP3    H237806   4.493   1.192  12.271 -0.4128  1.6922  1.7077
 5439TIP3   OH237807   3.253   0.193   0.592  0.0496  0.2182 -0.3057
 5439TIP3    H137808   3.158   0.190   0.596  0.1044  0.2059  1.9636
 5439TIP3    H237809   3.277   0.119   0.535 -1.2396 -0.8479  0.4873
 5440TIP3   OH237810   1.192   4.097  14.179  0.3764 -0.0944 -0.4572
 5440TIP3    H137811   1.148   4.029  14.229 -1.9431  0.7715 -1.1750
 5440TIP3    H237812   1.217   4.163  14.243 -1.5221  0.4654 -0.2369
 5441TIP3   OH237813   4.314   4.713  16.935 -0.1074 -0.0582 -0.5311
 5441TIP3    H137814   4.271   4.628  16.927  0.3687 -0.2965 -0.6062
 5441TIP3    H237815   4.279   4.764  16.863 -0.1496 -0.2972 -0.6813
 5442TIP3   OH237816   5.918   3.360   4.634 -0.2071 -0.0385  0.3391
 5442TIP3    H137817   5.913   3.452   4.608 -2.1018 -0.0537  0.5140
 5442TIP3    H237818   5.870   3.313   4.566  2.0788 -1.1346 -0.6043
 5443TIP3   OH237819   0.302   1.885   4.831  0.4030  0.2887  0.5133
 5443TIP3    H137820   0.237   1.835   4.781  2.0858  1.0300 -2.6076
 5443TIP3    H237821   0.369   1.821   4.853  0.3896  0.2660  0.4889
 5444TIP3   OH237822   6.442   2.652  15.686 -0.0377  0.2064  0.3296
 5444TIP3    H137823   6.435   2.733  15.736 -3.9811  1.6952 -2.1203
 5444TIP3    H237824   6.486   2.678  15.605 -1.1453 -0.0522 -0.3851
 5445TIP3   OH237825   3.888   6.230  14.700 -0.1822 -0.5499  0.5061
 5445TIP3    H137826   3.807   6.241  14.750 -0.2082  0.4980  0.2646
 5445TIP3    H237827   3.951   6.193  14.762 -0.7024 -0.8872  0.8336
 5446TIP3   OH237828   0.201   6.222   0.743  0.0240  0.5083  0.2082
 5446TIP3    H137829   0.211   6.184   0.655 -1.5292 -0.5790  0.4653
 5446TIP3    H237830   0.112   6.256   0.744 -0.4335 -0.6310  1.7638
 5447TIP3   OH237831   2.876   3.331  12.147  0.3533  0.6989  0.4586
 5447TIP3    H137832   2.904   3.262  12.087 -0.8196 -0.6140  1.3581
 5447TIP3    H237833   2.825   3.391  12.092  0.1751  0.0822 -0.0648
 5448TIP3   OH237834   3.113   0.670   1.003 -0.1238 -0.5095 -0.1617
 5448TIP3    H137835   3.149   0.738   0.946 -0.1859 -0.3256  0.0220
 5448TIP3    H237836   3.019   0.671   0.985 -0.1376 -0.4810 -0.0852
 5449TIP3   OH237837   1.289   6.423   5.412  0.3080  0.0884 -0.1003
 5449TIP3    H137838   1.373   6.378   5.406 -0.3174 -1.2382  0.6392
 5449TIP3    H237839   1.281   6.447   5.504 -0.5735 -0.7304  0.0470
 5450TIP3   OH237840   6.709   1.400   3.432  0.0802  0.2237  0.4056
 5450TIP3    H137841   6.617   1.375   3.446  0.3488 -0.1230  1.6587
 5450TIP3    H237842   6.735   1.353   3.353 -1.1029  1.1280 -0.5852
 5451TIP3   OH237843   1.884   1.357  16.488  0.1987  0.6145  0.1884
 5451TIP3    H137844   1.873   1.287  16.552  0.8415  0.6371  0.3261
 5451TIP3    H237845   1.809   1.415  16.502  0.2308  0.5127  0.7780
 5452TIP3   OH237846   5.706   1.151  11.947  0.4120 -0.4205 -0.3615
 5452TIP3    H137847   5.695   1.081  11.883  0.4399 -0.2511 -0.5526
 5452TIP3    H237848   5.757   1.111  12.017  2.1734 -0.0528 -1.3700
 5453TIP3   OH237849   3.923   6.216  15.960 -0.7626 -0.1872  0.2522
 5453TIP3    H137850   3.872   6.185  15.885 -0.4549  0.5269 -0.2642
 5453TIP3    H237851   3.927   6.311  15.950 -0.5760 -0.0960  1.0887
 5454TIP3   OH237852   1.036   0.998  14.428  0.4803 -0.4042 -0.0596
 5454TIP3    H137853   1.105   1.055  14.393  1.4599 -0.6151  1.4569
 5454TIP3    H237854   1.083   0.931  14.478 -0.7717 -1.2896 -0.0259
 5455TIP3   OH237855   5.597   2.583  16.151  0.7941 -0.7293  0.2949
 5455TIP3    H137856   5.648   2.621  16.222 -0.6667  1.6723  0.1924
 5455TIP3    H237857   5.524   2.539  16.195 -0.4818  1.3244  0.3911
 5456TIP3   OH237858   6.741   4.341   3.721  0.4701 -0.5836 -0.1044
 5456TIP3    H137859   6.706   4.336   3.632 -0.4923  0.7577  0.1826
 5456TIP3    H237860   6.702   4.420   3.758 -1.3343 -2.5323  2.4662
 5457TIP3   OH237861   1.847   1.852   4.792  0.3500  0.5116 -0.1280
 5457TIP3    H137862   1.862   1.936   4.834  1.3408 -0.0071  0.5825
 5457TIP3    H237863   1.795   1.873   4.714  0.9120  1.8143 -0.1677
 5458TIP3   OH237864   2.807   5.039   5.796 -0.0315 -0.5061 -0.4769
 5458TIP3    H137865   2.749   4.963   5.788 -0.9926  0.3700 -2.5900
 5458TIP3    H237866   2.895   5.005   5.777 -0.2204 -1.3596  0.1428
 5459TIP3   OH237867   5.368   0.930  13.137  1.0607  0.0703  0.3976
 5459TIP3    H137868   5.429   0.976  13.195  1.7592 -1.4037  0.8688
 5459TIP3    H237869   5.410   0.846  13.120 -0.0707 -0.3071 -0.6535
 5460TIP3   OH237870   4.820   1.216  14.002  0.0212  0.1273  0.6440
 5460TIP3    H137871   4.896   1.168  14.034 -0.4860 -0.7515  0.5569
 5460TIP3    H237872   4.828   1.303  14.042 -1.2137 -1.2236  4.2793
 5461TIP3   OH237873   1.986   0.903   1.349 -0.3374  0.7720  0.2884
 5461TIP3    H137874   2.009   0.868   1.435 -1.7285  0.5946  0.6138
 5461TIP3    H237875   1.891   0.909   1.350 -0.3722  0.9035 -1.1970
 5462TIP3   OH237876   1.126   5.382   3.520 -0.3975  0.7283  0.0019
 5462TIP3    H137877   1.094   5.468   3.547 -0.3295  0.1439  2.1405
 5462TIP3    H237878   1.072   5.320   3.570  2.4562 -0.3411  1.9857
 5463TIP3   OH237879   2.946   5.145  11.525  0.4318  0.1707 -0.2828
 5463TIP3    H137880   2.934   5.204  11.600 -0.4280  0.5915 -0.7321
 5463TIP3    H237881   2.919   5.197  11.449 -1.1771 -1.0487 -0.6062
 5464TIP3   OH237882   1.951   5.266   1.342  0.1419 -0.4233  0.4172
 5464TIP3    H137883   2.031   5.317   1.336 -0.4331  0.4575 -0.0510
 5464TIP3    H237884   1.902   5.304   1.415 -0.5889  0.1621 -0.3511
 5465TIP3   OH237885   5.269   0.160  16.237  0.1462 -0.2868  0.0747
 5465TIP3    H137886   5.318   0.089  16.279 -0.9615 -0.5911  0.8828
 5465TIP3    H237887   5.199   0.116  16.189 -0.3210  0.2318  0.2710
 5466TIP3   OH237888   0.801   2.794   2.006 -0.0547  0.2875  0.8442
 5466TIP3    H137889   0.742   2.720   2.021  1.4237 -1.1922 -0.2188
 5466TIP3    H237890   0.744   2.866   1.978 -1.4621 -0.6871  1.1176
 5467TIP3   OH237891   0.478   0.181   3.862 -0.1984 -0.3350 -0.2785
 5467TIP3    H137892   0.445   0.234   3.789  1.0508  0.8824  0.0090
 5467TIP3    H237893   0.567   0.157   3.836  0.4130  0.4548  0.9920
 5468TIP3   OH237894   5.541   6.054   1.831  0.0272 -0.3131 -0.9789
 5468TIP3    H137895   5.494   6.109   1.894  1.0943 -1.0101  0.4904
 5468TIP3    H237896   5.491   5.973   1.827 -0.2353 -0.1388 -1.3233
 5469TIP3   OH237897   3.764   1.116   0.320 -0.4455  0.1129  0.7323
 5469TIP3    H137898   3.840   1.118   0.262 -1.8205 -1.2301 -1.2403
 5469TIP3    H237899   3.742   1.208   0.333 -0.7841  0.4812 -1.9101
 5470TIP3   OH237900   4.684   1.073  14.554  0.3323  0.0854  0.4844
 5470TIP3    H137901   4.750   1.022  14.602 -1.0003 -1.1846  1.0477
 5470TIP3    H237902   4.657   1.015  14.483 -1.1659  0.0002  1.0951
 5471TIP3   OH237903   2.729   2.443   4.679 -0.0819  0.5204 -0.4154
 5471TIP3    H137904   2.808   2.496   4.684  0.0978  0.2049  0.1180
 5471TIP3    H237905   2.701   2.431   4.770 -0.9038  0.8676 -0.6068
 5472TIP3   OH237906   2.806   1.723   5.044  0.2993  0.2324  0.1574
 5472TIP3    H137907   2.757   1.703   5.124  0.0714  0.9356  0.2104
 5472TIP3    H237908   2.871   1.787   5.071  2.2391 -1.7246  0.3730
 5473TIP3   OH237909   2.168   2.321  15.732  0.1078 -0.0188 -0.1081
 5473TIP3    H137910   2.095   2.373  15.765 -1.2232 -1.6692 -0.3079
 5473TIP3    H237911   2.128   2.261  15.669  1.4564 -1.6322  0.5050
 5474TIP3   OH237912   4.399   3.681  13.553 -0.2828 -0.2052  0.0569
 5474TIP3    H137913   4.357   3.607  13.508  0.2255 -0.6590  0.3204
 5474TIP3    H237914   4.382   3.756  13.496 -1.1231 -0.4509 -0.0318
 5475TIP3   OH237915   0.460   3.587   4.750 -0.3738  0.0197 -0.0843
 5475TIP3    H137916   0.467   3.508   4.695  0.0240 -0.5988  0.8329
 5475TIP3    H237917   0.368   3.614   4.741 -0.8226 -1.2303  0.4987
 5476TIP3   OH237918   3.497   4.664   6.599  0.1037 -0.5923 -0.1123
 5476TIP3    H137919   3.581   4.657   6.646  0.0519 -1.2634 -0.1163
 5476TIP3    H237920   3.518   4.640   6.509 -0.3621 -2.1384  0.1779
 5477TIP3   OH237921   5.398   0.049   5.643 -0.2312  0.1533 -0.6751
 5477TIP3    H137922   5.487   0.062   5.611 -0.1128 -0.7684 -0.7241
 5477TIP3    H237923   5.407  -0.008   5.719 -0.6352  1.3205  0.2753
 5478TIP3   OH237924   1.509   5.849  11.474  0.0531 -0.5113 -0.4720
 5478TIP3    H137925   1.604   5.846  11.485 -0.0959 -3.5759  1.0169
 5478TIP3    H237926   1.489   5.776  11.416 -1.4995 -0.9341  0.5385
 5479TIP3   OH237927   5.977   1.907   3.496 -0.1018 -0.0143 -0.0257
 5479TIP3    H137928   5.931   1.831   3.462  0.4872 -0.7093  0.6939
 5479TIP3    H237929   6.064   1.875   3.519  0.8999  1.3383 -1.6462
 5480TIP3   OH237930   1.918   2.315   3.529  0.1560  0.4818  0.2863
 5480TIP3    H137931   1.888   2.237   3.576  0.5274  0.7545  1.0033
 5480TIP3    H237932   1.989   2.349   3.584  0.8717  0.5877 -0.6885
 5481TIP3   OH237933   6.612   0.567   1.857  0.2870 -0.1506 -0.6966
 5481TIP3    H137934   6.627   0.482   1.817 -0.5183 -1.0091  0.7418
 5481TIP3    H237935   6.522   0.563   1.889  1.3784 -0.1975  2.6832
 5482TIP3   OH237936   3.857   0.026  11.452 -0.7191  1.1567 -0.8048
 5482TIP3    H137937   3.793  -0.012  11.393 -1.4875  1.7280 -0.3494
 5482TIP3    H237938   3.839  -0.014  11.537  1.0330 -0.4325 -1.1207
 5483TIP3   OH237939   0.449   4.780  13.932  0.1881  0.1199  1.0016
 5483TIP3    H137940   0.539   4.804  13.909  0.6021 -2.2005 -0.1523
 5483TIP3    H237941   0.395   4.850  13.894  1.3198 -0.3411 -1.7361
 5484TIP3   OH237942   3.466   2.046   0.141 -0.0001  0.1124  0.2797
 5484TIP3    H137943   3.484   2.001   0.224 -2.8676 -0.1035  0.9095
 5484TIP3    H237944   3.455   2.138   0.166  0.9265  0.3658 -0.1994
 5485TIP3   OH237945   6.154   0.602   4.697  0.0561  0.1757  0.2781
 5485TIP3    H137946   6.247   0.604   4.722 -0.6221 -1.4702  3.5003
 5485TIP3    H237947   6.119   0.526   4.743 -2.9238  0.7742 -0.8244
 5486TIP3   OH237948   0.038   6.789  12.077 -0.4802  0.5260 -0.1144
 5486TIP3    H137949   0.129   6.772  12.100 -0.4832 -0.2147 -0.6003
 5486TIP3    H237950   0.015   6.868  12.125  0.3143  0.5246  0.2831
 5487TIP3   OH237951   3.818   6.194   2.959  0.6115  0.0095 -0.3358
 5487TIP3    H137952   3.833   6.259   2.890  1.8804  0.0345 -0.0671
 5487TIP3    H237953   3.876   6.121   2.936 -1.5264 -1.5198 -1.1911
 5488TIP3   OH237954   3.148   0.772  15.021  1.1348  0.1291 -0.0215
 5488TIP3    H137955   3.101   0.825  15.085  0.7766 -0.5444  0.2879
 5488TIP3    H237956   3.220   0.733  15.070  0.0572 -1.4984  0.3569
 5489TIP3   OH237957   0.436   2.657  11.874  0.2451  0.2132  0.1903
 5489TIP3    H137958   0.348   2.679  11.905 -0.4187  0.7294 -1.9146
 5489TIP3    H237959   0.426   2.571  11.833  0.5299  0.6315 -0.7774
 5490TIP3   OH237960   1.454   0.855   3.451 -0.1801 -0.4664 -0.7997
 5490TIP3    H137961   1.539   0.848   3.408 -0.6600 -1.3392 -1.6210
 5490TIP3    H237962   1.435   0.767   3.482 -1.1093 -0.4369 -1.2561
 5491TIP3   OH237963   3.149   2.873   2.876  0.2313  0.3423  0.0845
 5491TIP3    H137964   3.231   2.909   2.908  1.1849 -0.9202 -0.8382
 5491TIP3    H237965   3.106   2.838   2.955  1.2354 -0.2182  0.3963
 5492TIP3   OH237966   2.862   1.319   2.704  0.2292  0.0609 -0.2983
 5492TIP3    H137967   2.822   1.288   2.623  0.6919  0.0849 -0.5441
 5492TIP3    H237968   2.918   1.392   2.676  1.7582 -1.0219 -0.2334
 5493TIP3   OH237969   1.694   1.716   4.449  0.0859  0.1439 -0.2173
 5493TIP3    H137970   1.669   1.643   4.392  0.4471 -0.1153 -0.0456
 5493TIP3    H237971   1.616   1.731   4.503 -0.3265  0.5153 -0.8978
 5494TIP3   OH237972   0.678   1.449   0.079 -0.2534 -0.3922 -0.2065
 5494TIP3    H137973   0.707   1.366   0.041 -0.2096 -0.2903 -0.4019
 5494TIP3    H237974   0.614   1.483   0.017  1.9509  1.2029 -1.7807
 5495TIP3   OH237975   5.838   3.039  11.610  0.1751 -0.1343 -0.2920
 5495TIP3    H137976   5.819   3.001  11.696 -1.9028 -0.1485 -0.7071
 5495TIP3    H237977   5.896   3.112  11.628 -0.1937 -0.1707  1.1314
 5496TIP3   OH237978   4.427   3.493   3.399 -0.3455  0.5794  0.2393
 5496TIP3    H137979   4.434   3.586   3.421 -2.4150  0.9878 -0.5218
 5496TIP3    H237980   4.352   3.462   3.450  0.1153 -0.5880  0.2272
 5497TIP3   OH237981   6.612   6.624  11.387 -0.7888 -0.2939 -0.3186
 5497TIP3    H137982   6.525   6.661  11.372 -1.2199 -1.5930 -1.2178
 5497TIP3    H237983   6.668   6.669  11.324 -0.6108  1.1217  0.8022
 5498TIP3   OH237984   6.579   3.588   2.249  0.4337  0.4838  0.0275
 5498TIP3    H137985   6.675   3.595   2.246  0.4540  0.7281  0.9860
 5498TIP3    H237986   6.558   3.524   2.181  1.1891  1.2538 -0.9579
 5499TIP3   OH237987   4.724   2.851   5.476  0.2007 -0.3345  0.3189
 5499TIP3    H137988   4.774   2.929   5.500 -1.5211  0.7165  0.7325
 5499TIP3    H237989   4.638   2.885   5.449 -0.4659 -2.0631  0.1151
 5500TIP3   OH237990   4.232   6.513  10.316  0.2620  0.2032 -0.6212
 5500TIP3    H137991   4.208   6.447  10.381  0.3446 -0.5329 -1.3231
 5500TIP3    H237992   4.200   6.596  10.353 -1.0094 -0.3952 -0.3145
 5501TIP3   OH237993   6.305   1.723   5.854  0.0299 -0.0940 -0.5684
 5501TIP3    H137994   6.342   1.635   5.860 -0.2176 -0.2348 -1.0753
 5501TIP3    H237995   6.211   1.710   5.862 -0.1384 -0.0479 -2.2714
 5502TIP3   OH237996   4.822   5.499  12.831 -0.7056 -0.6978 -0.3190
 5502TIP3    H137997   4.816   5.415  12.877 -0.4438 -0.5722 -0.0559
 5502TIP3    H237998   4.801   5.477  12.740 -0.2945 -1.1180 -0.3207
 5503TIP3   OH237999   0.613   1.479  16.956 -0.2724  0.1099 -0.1337
 5503TIP3    H138000   0.596   1.509  17.045 -0.3117  1.2134 -0.4847
 5503TIP3    H238001   0.536   1.508  16.906 -0.7199 -1.3835 -0.3479
 5504TIP3   OH238002   1.233   2.947  14.785  0.3377  0.6087 -0.3225
 5504TIP3    H138003   1.191   3.026  14.751  1.8477  1.0799 -1.2020
 5504TIP3    H238004   1.166   2.906  14.840 -0.8135  1.9705 -0.6399
 5505TIP3   OH238005   4.770   1.541  12.420 -0.1202  0.5845  0.1705
 5505TIP3    H138006   4.784   1.629  12.454  1.2673  0.4916 -0.1036
 5505TIP3    H238007   4.847   1.492  12.449 -1.2211 -0.7636  0.9948
 5506TIP3   OH238008   5.319   3.162  16.313 -0.2036 -0.5968  0.3001
 5506TIP3    H138009   5.226   3.181  16.311 -0.0260  0.2873 -1.1062
 5506TIP3    H238010   5.361   3.248  16.316  0.5680 -0.8784 -1.3532
 5507TIP3   OH238011   4.978   2.862   0.907  0.2074 -0.4866 -0.5694
 5507TIP3    H138012   5.024   2.890   0.827  0.2906 -0.1494 -0.4056
 5507TIP3    H238013   5.002   2.770   0.917  0.6899 -0.3698 -0.5999
 5508TIP3   OH238014   3.844   6.150   2.524  0.2044  0.2631  0.7942
 5508TIP3    H138015   3.935   6.121   2.532  0.1106 -1.7055 -2.9735
 5508TIP3    H238016   3.830   6.159   2.429 -3.4474  0.8603  1.2483
 5509TIP3   OH238017   3.018   4.841   2.559 -0.2602 -0.1733 -0.2885
 5509TIP3    H138018   3.053   4.785   2.628  0.8905  0.1159 -0.6112
 5509TIP3    H238019   2.933   4.804   2.538 -0.8144 -0.0110  1.5692
 5510TIP3   OH238020   6.063   1.060   6.063  0.1623  0.3236 -0.0015
 5510TIP3    H138021   6.102   1.055   6.150  1.0585  0.5045 -0.3771
 5510TIP3    H238022   6.137   1.074   6.004 -0.4848  0.7095 -0.7471
 5511TIP3   OH238023   2.705   6.373  12.155 -0.0726  0.0802 -0.1168
 5511TIP3    H138024   2.747   6.400  12.237 -1.7421  0.1698  0.7619
 5511TIP3    H238025   2.761   6.303  12.121 -0.0326 -0.9278  1.8420
 5512TIP3   OH238026   3.267   1.761   6.218 -0.0081 -0.3139  0.2159
 5512TIP3    H138027   3.243   1.694   6.283  0.3993  0.0753  0.7748
 5512TIP3    H238028   3.244   1.844   6.260  1.2874  0.0075  0.3326
 5513TIP3   OH238029   0.287   5.816  10.882  0.0673 -0.1779 -0.3393
 5513TIP3    H138030   0.315   5.904  10.855  1.4276 -0.5996 -0.3982
 5513TIP3    H238031   0.286   5.766  10.800  2.4242 -0.9962  0.0561
 5514TIP3   OH238032   1.068   1.726   2.537  0.3569  0.2945 -0.0081
 5514TIP3    H138033   1.129   1.797   2.557 -0.4054  1.3012 -1.0789
 5514TIP3    H238034   1.073   1.717   2.442 -1.5738  0.8281 -0.2028
 5515TIP3   OH238035   2.773   6.719  17.189 -0.3350  0.4218 -0.3482
 5515TIP3    H138036   2.768   6.630  17.225 -1.9431  1.5263  2.5364
 5515TIP3    H238037   2.866   6.741  17.194  0.2353 -1.3401 -1.9583
 5516TIP3   OH238038   5.081   6.320   4.001  0.4109 -0.2518  0.2309
 5516TIP3    H138039   5.017   6.349   3.936  0.7266 -1.9947 -0.9481
 5516TIP3    H238040   5.157   6.376   3.987  0.4020 -0.4745 -0.8059
 5517TIP3   OH238041   5.283   6.307  15.635  0.0773  0.1874  0.9012
 5517TIP3    H138042   5.354   6.298  15.571 -0.0455  0.3965  0.7381
 5517TIP3    H238043   5.227   6.376  15.601 -0.6263 -0.4949  0.6392
 5518TIP3   OH238044   0.090   4.433  16.913 -0.7214 -0.3274  0.5651
 5518TIP3    H138045   0.162   4.460  16.856 -0.9953  1.0917  0.8566
 5518TIP3    H238046   0.029   4.387  16.855 -1.8710  2.6001 -0.7748
 5519TIP3   OH238047   6.190   2.716  16.607  0.2133 -0.1137 -0.1776
 5519TIP3    H138048   6.169   2.758  16.523 -0.2369 -0.0558 -0.0345
 5519TIP3    H238049   6.197   2.623  16.586 -0.6644 -0.1938 -0.1379
 5520TIP3   OH238050   5.387   3.963   4.885 -0.0649 -0.2218  0.1284
 5520TIP3    H138051   5.424   3.900   4.946  0.7266  0.3129  0.2124
 5520TIP3    H238052   5.314   4.003   4.932  0.6550  0.3182  0.7972
 5521TIP3   OH238053   5.160   1.314   4.029 -0.2885  0.1270 -0.3655
 5521TIP3    H138054   5.101   1.274   4.093  0.5828  0.8635  0.9437
 5521TIP3    H238055   5.246   1.279   4.052 -0.1156 -0.5528 -1.9448
 5522TIP3   OH238056   2.564   0.727   0.847  0.0835  0.5732  0.2642
 5522TIP3    H138057   2.509   0.662   0.803 -0.1397  0.0715  1.2525
 5522TIP3    H238058   2.503   0.783   0.893  0.3912 -0.3549  1.8698
 5523TIP3   OH238059   3.647   2.376  13.815 -0.3835  0.3742  0.0440
 5523TIP3    H138060   3.628   2.470  13.807 -0.2995  0.3271 -0.7880
 5523TIP3    H238061   3.571   2.333  13.777 -0.9072  0.0610  1.3671
 5524TIP3   OH238062   2.122   5.816  14.310  0.1712 -0.0687  0.3767
 5524TIP3    H138063   2.195   5.819  14.249 -1.9961  0.8049 -2.3913
 5524TIP3    H238064   2.086   5.728  14.300  0.0231 -0.0517  0.7338
 5525TIP3   OH238065   3.026   0.911  13.579 -0.4672 -0.7522  0.2442
 5525TIP3    H138066   2.950   0.963  13.555 -0.3980 -0.8679 -0.2320
 5525TIP3    H238067   3.081   0.912  13.501  0.1090 -0.5155  0.6419
 5526TIP3   OH238068   4.849   6.043   4.650 -0.4249 -0.0998  0.3907
 5526TIP3    H138069   4.858   6.051   4.555 -0.5965  0.9657  0.4524
 5526TIP3    H238070   4.916   5.980   4.676 -0.2785 -0.2822 -0.4214
 5527TIP3   OH238071   2.201   5.958  14.892 -0.0004 -0.3782 -0.0503
 5527TIP3    H138072   2.134   5.895  14.865  0.4724 -0.9808  0.1513
 5527TIP3    H238073   2.169   6.042  14.862 -0.7745 -0.6848 -0.0898
 5528TIP3   OH238074   0.539   3.989   2.283 -0.1417  0.6982 -0.2956
 5528TIP3    H138075   0.447   3.982   2.257 -0.4777  0.3369  0.9535
 5528TIP3    H238076   0.587   3.956   2.207 -1.1207 -1.1099 -0.1920
 5529TIP3   OH238077   4.688   6.811  14.595 -1.2290  0.5958 -0.3820
 5529TIP3    H138078   4.649   6.830  14.680 -1.0353 -0.9285  0.0712
 5529TIP3    H238079   4.782   6.807  14.611 -1.2787 -1.0447 -0.3568
 5530TIP3   OH238080   0.720   1.272  16.604  0.3041  0.1475 -0.4986
 5530TIP3    H138081   0.795   1.213  16.611 -0.6379 -0.9796  0.4887
 5530TIP3    H238082   0.677   1.245  16.523  0.3694  0.0676 -0.5066
 5531TIP3   OH238083   2.323   3.869  11.210 -0.6114  0.0941  0.0118
 5531TIP3    H138084   2.352   3.949  11.253 -2.2929 -0.9849  3.5367
 5531TIP3    H238085   2.263   3.898  11.142 -0.4992  1.8589  0.6176
 5532TIP3   OH238086   3.272   3.757  15.093  1.0188 -0.1405 -0.1253
 5532TIP3    H138087   3.207   3.797  15.036  1.0843 -1.1864 -0.9576
 5532TIP3    H238088   3.221   3.724  15.167  0.7717  0.1306 -0.1709
 5533TIP3   OH238089   2.022   1.589   2.169 -0.3050  0.2001 -0.2448
 5533TIP3    H138090   2.042   1.647   2.243 -0.5625  0.4244 -0.3440
 5533TIP3    H238091   2.049   1.639   2.091 -0.6589  0.2473 -0.3396
 5534TIP3   OH238092   4.755   3.544   0.898 -0.8299  0.1604  0.2995
 5534TIP3    H138093   4.799   3.463   0.923 -1.9581 -0.4850  0.2255
 5534TIP3    H238094   4.823   3.612   0.907  1.2720 -1.2189 -3.1651
 5535TIP3   OH238095   3.021   2.543  13.016 -0.4811  0.4962 -0.1386
 5535TIP3    H138096   2.981   2.623  12.982 -0.1361  0.1274 -1.5206
 5535TIP3    H238097   2.971   2.472  12.975  0.3686  0.0312 -0.3965
 5536TIP3   OH238098   6.419   1.505  13.428 -1.1816  0.5164  0.5590
 5536TIP3    H138099   6.413   1.483  13.521  0.4621 -1.1654  0.3160
 5536TIP3    H238100   6.337   1.552  13.410 -2.3341 -0.6295  2.4345
 5537TIP3   OH238101   5.633   3.765   1.456  0.3911  0.1373 -0.7800
 5537TIP3    H138102   5.605   3.732   1.370  0.1351  0.1554 -0.7061
 5537TIP3    H238103   5.563   3.738   1.515 -0.2703  1.5319 -0.8582
 5538TIP3   OH238104   0.143   2.418   5.080 -0.1743  0.3379 -0.1137
 5538TIP3    H138105   0.063   2.395   5.033  0.4077  0.6670 -1.3061
 5538TIP3    H238106   0.176   2.495   5.035  0.6095  0.4432  0.6126
 5539TIP3   OH238107   4.589   5.778  13.854  0.0924 -0.1870  0.7309
 5539TIP3    H138108   4.557   5.840  13.788 -0.3652 -1.1567  0.0106
 5539TIP3    H238109   4.511   5.730  13.881  0.4336 -0.4115  1.3236
 5540TIP3   OH238110   3.642   1.729   5.107 -0.3115  0.6776  0.2542
 5540TIP3    H138111   3.680   1.798   5.162  1.3999  0.0384 -0.0654
 5540TIP3    H238112   3.555   1.715   5.144  0.6855  0.4204  2.7279
 5541TIP3   OH238113   5.711   3.947  16.971  0.3991  0.2552 -0.7746
 5541TIP3    H138114   5.620   3.950  16.941  0.3635  0.7430 -0.6396
 5541TIP3    H238115   5.755   3.891  16.908 -0.0313 -0.1256 -0.7435
 5542TIP3   OH238116   0.594   4.796   1.369 -0.2725 -0.0095 -0.3935
 5542TIP3    H138117   0.679   4.761   1.395  0.0288  0.5868 -0.5551
 5542TIP3    H238118   0.556   4.829   1.450  0.1059  0.6624 -0.4762
 5543TIP3   OH238119   2.061   5.965  13.114 -0.3249 -0.1177 -0.4159
 5543TIP3    H138120   2.089   5.875  13.133  1.2257  0.2713 -0.6975
 5543TIP3    H238121   2.061   6.009  13.199  0.7058  0.0695 -0.5001
 5544TIP3   OH238122   3.505   4.301  15.526  0.6240 -0.0571 -0.1393
 5544TIP3    H138123   3.434   4.240  15.550  0.0885  0.5806 -0.0880
 5544TIP3    H238124   3.497   4.373  15.588  0.2408  0.8415 -1.2153
 5545TIP3   OH238125   1.581   4.279  12.855 -0.1947  0.1784 -0.0073
 5545TIP3    H138126   1.491   4.284  12.822  0.0725 -0.1095 -0.8249
 5545TIP3    H238127   1.573   4.233  12.939 -1.2496  3.5423  1.8977
 5546TIP3   OH238128   3.772   4.915  14.148 -0.5375  0.0496 -0.5612
 5546TIP3    H138129   3.781   4.993  14.092  1.5166  1.3815  1.4647
 5546TIP3    H238130   3.793   4.842  14.090  0.4770  1.2693 -1.8033
 5547TIP3   OH238131   3.189   2.108   5.037  0.4453  0.0687  0.1139
 5547TIP3    H138132   3.251   2.060   5.092  0.5872  0.5136  0.3457
 5547TIP3    H238133   3.235   2.188   5.013 -0.0627  0.4403  0.3499
 5548TIP3   OH238134   5.917   0.894   0.448 -0.1622  0.1634  0.0316
 5548TIP3    H138135   5.879   0.835   0.384 -2.1469 -1.0269  2.1902
 5548TIP3    H238136   5.908   0.981   0.409 -1.3172 -0.5137 -1.2767
 5549TIP3   OH238137   5.572   1.064  13.241  0.2618  0.2987  0.1901
 5549TIP3    H138138   5.617   1.133  13.193  0.9661  1.1449  1.9636
 5549TIP3    H238139   5.569   1.096  13.331  2.1087 -2.6448  1.4496
 5550TIP3   OH238140   2.420   4.293  12.634 -0.0163 -0.5318 -0.3415
 5550TIP3    H138141   2.331   4.270  12.661 -0.7731  1.0839 -1.3508
 5550TIP3    H238142   2.472   4.216  12.658 -1.2292 -0.6125  2.3857
 5551TIP3   OH238143   6.093   5.637  16.066  0.2781  0.1663 -0.3531
 5551TIP3    H138144   6.037   5.683  16.003  0.2764  1.8040  0.7894
 5551TIP3    H238145   6.107   5.701  16.136  1.7527 -0.9996  0.4503
 5552TIP3   OH238146   6.040   3.301   4.192 -0.1279 -0.2875 -0.3437
 5552TIP3    H138147   6.114   3.321   4.135  0.3911  0.9209  0.7026
 5552TIP3    H238148   6.078   3.295   4.280 -1.1883 -0.1806  0.1423
 5553TIP3   OH238149   3.262   3.730  16.893 -0.0336  0.0331  0.1445
 5553TIP3    H138150   3.316   3.673  16.839 -0.2452 -0.5706  0.5546
 5553TIP3    H238151   3.321   3.799  16.922  0.2899 -0.1192 -0.1565
 5554TIP3   OH238152   4.965   5.248   1.773  0.2592 -0.1368 -0.3039
 5554TIP3    H138153   4.918   5.177   1.730  1.9953 -1.8489  0.4219
 5554TIP3    H238154   5.010   5.294   1.702 -1.6288  0.8976 -0.8863
 5555TIP3   OH238155   2.759   4.844   1.562 -0.2304 -0.3127 -0.8076
 5555TIP3    H138156   2.828   4.882   1.507 -0.4453  1.8170  0.2673
 5555TIP3    H238157   2.680   4.848   1.508 -0.1381  0.3102 -0.9052
 5556TIP3   OH238158   1.971   4.568  16.669 -0.2315  0.1291  0.4267
 5556TIP3    H138159   2.063   4.584  16.690  0.3721 -2.0450 -0.2468
 5556TIP3    H238160   1.947   4.494  16.724 -1.0557 -0.4160 -0.6338
 5557TIP3   OH238161   1.680   3.898  16.724  0.2126  0.2771  0.2776
 5557TIP3    H138162   1.693   3.804  16.739  0.9630  0.3723  0.2683
 5557TIP3    H238163   1.727   3.916  16.643 -2.0509  0.1807 -1.1385
 5558TIP3   OH238164   6.294   6.467   0.645 -0.2624 -0.3921 -0.0729
 5558TIP3    H138165   6.358   6.512   0.699  0.0967  1.2174 -1.7449
 5558TIP3    H238166   6.341   6.445   0.564 -1.3008 -0.9155 -0.5592
 5559TIP3   OH238167   3.844   3.663   2.578  0.6330  0.2997  0.0209
 5559TIP3    H138168   3.901   3.666   2.501  0.5920  0.1124 -0.0175
 5559TIP3    H238169   3.783   3.591   2.560  1.7468 -0.9435  0.9965
 5560TIP3   OH238170   2.126   4.114   4.198  0.7197 -0.5787  0.5442
 5560TIP3    H138171   2.218   4.136   4.211  0.6491  0.7933 -1.0125
 5560TIP3    H238172   2.106   4.053   4.269  2.8397 -0.9901  0.8479
 5561TIP3   OH238173   1.080   3.938   4.473 -0.1409 -0.1951 -0.2218
 5561TIP3    H138174   1.042   3.899   4.552 -0.0549 -0.2031 -0.1842
 5561TIP3    H238175   1.005   3.961   4.418 -0.1851 -2.0530 -1.0281
 5562TIP3   OH238176   1.046   2.517  15.201 -0.2776 -0.1939 -0.4210
 5562TIP3    H138177   1.015   2.441  15.251  2.3893 -1.0695  0.1282
 5562TIP3    H238178   1.070   2.481  15.116 -1.9607  0.7178 -1.3325
 5563TIP3   OH238179   1.428   3.642  16.632  0.1411  0.3615 -0.2949
 5563TIP3    H138180   1.359   3.706  16.648  0.4234  0.5142  0.3164
 5563TIP3    H238181   1.383   3.569  16.589 -0.0682  1.2423 -1.6415
 5564TIP3   OH238182   2.230   6.802   5.395  0.1926  0.2346 -0.1546
 5564TIP3    H138183   2.147   6.759   5.412 -0.2292  1.8105  2.0857
 5564TIP3    H238184   2.208   6.876   5.338  0.5075 -0.8031 -1.6942
 5565TIP3   OH238185   1.119   5.266   4.290 -0.2467  0.4173 -0.3581
 5565TIP3    H138186   1.039   5.228   4.328 -0.1602  0.1053 -0.4930
 5565TIP3    H238187   1.182   5.264   4.362 -0.4646  0.9965 -0.1420
 5566TIP3   OH238188   1.942   0.472   0.912 -0.0654  0.3538  0.2361
 5566TIP3    H138189   2.033   0.448   0.897 -0.2330  0.0698 -0.3915
 5566TIP3    H238190   1.935   0.486   1.006  1.0863  2.2880  0.0861
 5567TIP3   OH238191   3.847   0.577  10.471 -0.1211  0.1797  0.6546
 5567TIP3    H138192   3.903   0.613  10.539 -2.4878 -0.1393  2.9078
 5567TIP3    H238193   3.785   0.646  10.452  0.5613  0.3129 -1.3763
 5568TIP3   OH238194   3.514   1.786  16.826 -0.5066 -0.4615 -0.2641
 5568TIP3    H138195   3.561   1.780  16.743 -1.4283  1.4106 -0.9844
 5568TIP3    H238196   3.580   1.814  16.889 -0.0979 -0.4742 -0.6784
 5569TIP3   OH238197   0.879   1.754  13.686 -0.1444 -0.0550  0.5587
 5569TIP3    H138198   0.883   1.705  13.604 -2.9283  0.5348 -0.0195
 5569TIP3    H238199   0.932   1.702  13.747  0.7304 -1.3216 -1.1660
 5570TIP3   OH238200   5.735   3.037   1.762 -0.4517 -0.5162 -0.6831
 5570TIP3    H138201   5.735   3.082   1.678 -1.6302 -0.8545 -0.8760
 5570TIP3    H238202   5.763   2.948   1.741  1.8086  0.0377 -0.3122
 5571TIP3   OH238203   3.178   2.099  16.095  0.0316  0.2000  0.4657
 5571TIP3    H138204   3.262   2.053  16.100  0.1127 -0.1010 -2.1354
 5571TIP3    H238205   3.112   2.030  16.102  0.0311  0.2267  0.7500
 5572TIP3   OH238206   4.668   4.050   2.344 -0.2998 -0.0295  0.2682
 5572TIP3    H138207   4.731   4.101   2.292  1.1931 -1.8039  0.2286
 5572TIP3    H238208   4.584   4.061   2.298  0.8369 -1.0573 -2.2762
 5573TIP3   OH238209   2.857   6.148  14.414  0.5526 -0.2472 -0.3840
 5573TIP3    H138210   2.890   6.068  14.456 -0.8031 -0.4546  0.3308
 5573TIP3    H238211   2.803   6.190  14.480  1.1464  1.2179 -0.8023
 5574TIP3   OH238212   0.028   4.309   0.623  0.2484 -0.1774  0.1232
 5574TIP3    H138213   0.002   4.222   0.590 -1.3964 -0.1674  1.2782
 5574TIP3    H238214   0.061   4.292   0.711  0.7461  0.2789  0.0289
 5575TIP3   OH238215   6.726   0.746   5.618 -0.4042  0.0747  0.0782
 5575TIP3    H138216   6.709   0.839   5.602  0.3889  0.1658 -0.2398
 5575TIP3    H238217   6.819   0.734   5.600 -0.4185 -0.7116  0.4607
 5576TIP3   OH238218   1.306   0.771  16.392  0.5090  0.4766 -0.3460
 5576TIP3    H138219   1.344   0.857  16.408  0.1208  1.2483 -3.1530
 5576TIP3    H238220   1.379   0.718  16.359  0.4930  0.0523  0.2742
 5577TIP3   OH238221   1.255   4.016  14.552  0.2877  0.1792 -0.7607
 5577TIP3    H138222   1.315   4.003  14.626 -0.1293 -0.8159 -0.5844
 5577TIP3    H238223   1.170   3.986  14.583 -0.1194  0.7002 -1.3231
 5578TIP3   OH238224   2.611   5.296   4.711  0.2362  0.1759 -0.5358
 5578TIP3    H138225   2.690   5.345   4.732 -1.0100  1.1382  2.5338
 5578TIP3    H238226   2.556   5.306   4.788 -2.8160 -0.6288 -2.4295
 5579TIP3   OH238227   0.047   1.730  15.355 -0.1709 -0.0430  0.2212
 5579TIP3    H138228   0.080   1.818  15.335  1.0720 -0.1747  1.5382
 5579TIP3    H238229   0.126   1.677  15.364 -0.8939 -1.1795  0.0286
 5580TIP3   OH238230   0.868   6.534  14.028 -0.1227 -0.4963  0.2503
 5580TIP3    H138231   0.927   6.532  14.103 -0.0409 -0.3592  0.1907
 5580TIP3    H238232   0.787   6.572  14.062  0.2606  0.5638  0.0340
 5581TIP3   OH238233   4.323   4.878  15.451  0.4309 -0.3051  0.7174
 5581TIP3    H138234   4.245   4.930  15.432  0.3126 -0.6548  0.2200
 5581TIP3    H238235   4.375   4.882  15.371  1.9088  1.6011  1.7101
 5582TIP3   OH238236   1.756   1.529  14.034 -0.0681  0.6931  0.3249
 5582TIP3    H138237   1.727   1.461  14.095 -0.1005  0.7312  0.3519
 5582TIP3    H238238   1.830   1.571  14.077  0.7379 -0.1225 -0.2149
 5583TIP3   OH238239   6.156   4.783   2.974  0.4417 -0.7990  0.9521
 5583TIP3    H138240   6.128   4.868   2.938  0.0438 -1.3149 -0.0055
 5583TIP3    H238241   6.120   4.782   3.063  2.1511  0.8568  1.7296
 5584TIP3   OH238242   0.922   6.547   5.658  0.3026  0.3820 -0.3811
 5584TIP3    H138243   1.012   6.519   5.643  0.0819 -0.8429  0.3994
 5584TIP3    H238244   0.898   6.507   5.742 -1.4093 -0.4865 -1.2163
 5585TIP3   OH238245   0.819   6.765   4.005  0.1055 -0.9004  0.3408
 5585TIP3    H138246   0.767   6.819   3.945 -0.2649 -0.3987  1.0914
 5585TIP3    H238247   0.847   6.690   3.952 -1.6436 -1.3460 -0.0092
 5586TIP3   OH238248   5.283   1.263   0.385  0.1289 -0.5247  0.3572
 5586TIP3    H138249   5.326   1.312   0.455 -1.5666 -1.0713  1.8685
 5586TIP3    H238250   5.241   1.190   0.430 -2.2124 -0.0946 -0.9974
 5587TIP3   OH238251   1.443   6.412  11.186  0.2060  0.7338  0.2296
 5587TIP3    H138252   1.525   6.374  11.153 -0.9560 -1.9595  0.2149
 5587TIP3    H238253   1.389   6.424  11.108  0.3655  2.0188  0.3001
 5588TIP3   OH238254   3.720   3.273   3.656  0.3218 -0.0189  0.1116
 5588TIP3    H138255   3.772   3.347   3.689 -2.2666  3.1079 -2.1788
 5588TIP3    H238256   3.631   3.292   3.686 -0.8150 -0.9518 -2.4286
 5589TIP3   OH238257   2.009   1.953   0.760  0.3597 -0.3224 -0.2784
 5589TIP3    H138258   2.104   1.958   0.757  0.3163  0.5073 -2.4614
 5589TIP3    H238259   1.985   2.000   0.840  1.7541  0.3012 -0.1939
 5590TIP3   OH238260   0.446   0.427  10.900 -0.2497 -0.3321  0.2878
 5590TIP3    H138261   0.476   0.470  10.820 -0.2482 -0.1102  0.4053
 5590TIP3    H238262   0.507   0.354  10.913  0.8225  0.6490  1.0201
 5591TIP3   OH238263   5.505   2.679   3.116 -0.1957  0.2170  0.2993
 5591TIP3    H138264   5.442   2.708   3.182  0.4140  0.2556  0.8775
 5591TIP3    H238265   5.540   2.761   3.079  0.7402  0.2417  1.1772
 5592TIP3   OH238266   4.816   4.375  17.300  0.3676  0.0225  0.1694
 5592TIP3    H138267   4.727   4.407  17.311 -0.3856 -2.0735  0.6828
 5592TIP3    H238268   4.854   4.431  17.232 -1.2041  1.1776  0.1972
 5593TIP3   OH238269   4.321   5.497   6.385 -0.2763  0.7267  0.1601
 5593TIP3    H138270   4.415   5.513   6.391 -0.1893  1.0165 -1.4970
 5593TIP3    H238271   4.298   5.518   6.295 -2.0015  0.9583  0.6028
 5594TIP3   OH238272   3.138   1.657  13.739  0.0007 -0.5168 -0.3841
 5594TIP3    H138273   3.196   1.726  13.707 -0.1345 -0.1246  0.1918
 5594TIP3    H238274   3.140   1.590  13.671 -0.3286  0.3198 -1.2517
 5595TIP3   OH238275   3.220   4.674  13.527  0.0974 -0.4426  0.1472
 5595TIP3    H138276   3.308   4.643  13.549  0.7312  1.8367  1.0160
 5595TIP3    H238277   3.234   4.750  13.472 -1.3911 -0.8459 -0.8539
 5596TIP3   OH238278   5.465   5.331   0.909 -0.1520 -0.4160 -0.2735
 5596TIP3    H138279   5.452   5.402   0.972  0.4752  0.4593 -1.0982
 5596TIP3    H238280   5.377   5.310   0.879 -0.2179  2.0837 -2.1907
 5597TIP3   OH238281   2.947   4.701   4.669  0.0526 -0.0552  0.1152
 5597TIP3    H138282   2.870   4.647   4.649  0.7998 -0.4620 -1.9184
 5597TIP3    H238283   2.911   4.787   4.691 -1.0405 -0.6508  0.7282
 5598TIP3   OH238284   5.225   4.425  15.412  0.0006  0.6979 -0.1401
 5598TIP3    H138285   5.154   4.439  15.476 -2.7054  0.7135 -2.9185
 5598TIP3    H238286   5.237   4.330  15.411  1.9448  0.8218  2.1183
 5599TIP3   OH238287   0.099   6.781   0.851  0.5213 -0.3919  0.1747
 5599TIP3    H138288   0.157   6.717   0.809  0.3827 -0.6752  0.4094
 5599TIP3    H238289   0.156   6.855   0.872  0.2232  0.6381 -2.3062
 5600TIP3   OH238290   4.885   3.026   3.537 -0.3357 -0.0744  0.2105
 5600TIP3    H138291   4.848   2.993   3.619  0.6388 -1.2317  0.2100
 5600TIP3    H238292   4.915   2.948   3.491  0.1311  0.6532 -0.7583
 5601TIP3   OH238293   1.559   6.587   3.067  0.2855  0.0526  0.1211
 5601TIP3    H138294   1.579   6.681   3.068 -0.6188  0.2434  0.9152
 5601TIP3    H238295   1.556   6.562   3.159  1.6885 -1.0269 -0.0908
 5602TIP3   OH238296   5.261   3.463  13.931  0.3353 -0.8006 -0.0560
 5602TIP3    H138297   5.232   3.504  14.013  0.8879 -0.3469 -0.0775
 5602TIP3    H238298   5.192   3.482  13.868 -0.5754 -2.0098  0.5522
 5603TIP3   OH238299   6.161   0.117   6.290  0.0049  0.0417  0.3306
 5603TIP3    H138300   6.161   0.023   6.274  1.4039  0.4240 -2.4180
 5603TIP3    H238301   6.120   0.155   6.212  1.8288  1.8272  0.1481
 5604TIP3   OH238302   1.359   4.819  15.001  0.4871  0.2877 -0.0833
 5604TIP3    H138303   1.398   4.773  15.076 -0.8698 -0.4546  0.2036
 5604TIP3    H238304   1.431   4.832  14.940  1.4482  0.1670  1.0024
 5605TIP3   OH238305   4.288   3.884  15.983 -0.4420 -0.2646  0.1336
 5605TIP3    H138306   4.303   3.894  16.077  1.8316 -0.6294 -0.1514
 5605TIP3    H238307   4.273   3.790  15.971 -3.7153  0.1069  0.4444
 5606TIP3   OH238308   1.184   4.558  14.212  0.1116 -0.0114  0.4659
 5606TIP3    H138309   1.154   4.649  14.213  1.7120  0.7171 -2.6425
 5606TIP3    H238310   1.278   4.564  14.228  0.7682 -0.6580 -2.4451
 5607TIP3   OH238311   4.215   2.490   2.792  0.1650 -0.3398 -0.1410
 5607TIP3    H138312   4.172   2.458   2.713 -0.8806 -0.0767  0.3054
 5607TIP3    H238313   4.263   2.567   2.763 -1.2140  0.4917 -0.3210
 5608TIP3   OH238314   0.569   4.908  12.402  0.2852  0.3696  0.3654
 5608TIP3    H138315   0.546   4.941  12.315  3.0325  1.4467 -0.0641
 5608TIP3    H238316   0.620   4.829  12.386  0.2006  0.1613  1.0601
 5609TIP3   OH238317   0.723   6.548   4.868  0.4103  0.1624 -0.5763
 5609TIP3    H138318   0.686   6.626   4.826 -1.2016  0.5308  1.3696
 5609TIP3    H238319   0.665   6.476   4.841  0.3181  0.1170 -0.2603
 5610TIP3   OH238320   4.541   1.526  12.286 -0.1426  0.3495  0.2539
 5610TIP3    H138321   4.621   1.540  12.337  0.3702  0.9865 -0.6870
 5610TIP3    H238322   4.540   1.432  12.267  0.3863  0.3410  0.2655
 5611TIP3   OH238323   4.504   5.962  11.880  0.2641  0.0377  0.7985
 5611TIP3    H138324   4.442   5.998  11.943 -1.2068  0.2946 -0.7367
 5611TIP3    H238325   4.528   5.877  11.916 -0.2131  0.3600  1.9116
 5612TIP3   OH238326   3.180   3.049  13.636 -0.1792  0.2487 -0.3865
 5612TIP3    H138327   3.181   2.958  13.606  0.4092  0.3916 -0.8280
 5612TIP3    H238328   3.269   3.065  13.665  0.6618  1.6497 -3.3757
 5613TIP3   OH238329   3.408   3.226   2.744 -0.8134 -0.3857 -0.4499
 5613TIP3    H138330   3.336   3.224   2.807  0.4281  0.3575  1.0393
 5613TIP3    H238331   3.487   3.236   2.797  0.2207  1.0601 -2.1308
 5614TIP3   OH238332   3.017   3.266   4.519 -0.0926 -0.0823  0.1624
 5614TIP3    H138333   2.987   3.204   4.453  0.0231  0.5129 -0.4596
 5614TIP3    H238334   3.112   3.255   4.521 -0.1594 -0.6106  0.7579
 5615TIP3   OH238335   5.223   4.818   2.610  0.5250 -0.1078 -0.4083
 5615TIP3    H138336   5.199   4.726   2.618  2.2630 -0.4948  1.0639
 5615TIP3    H238337   5.203   4.856   2.696  3.2691 -0.0610  0.3191
 5616TIP3   OH238338   4.170   4.632  13.147 -0.3984  0.3161 -0.3527
 5616TIP3    H138339   4.236   4.673  13.091 -0.3123  0.7191  0.0385
 5616TIP3    H238340   4.092   4.625  13.092 -1.9062  5.1053  0.7610
 5617TIP3   OH238341   4.555   0.881   5.624 -0.0217  0.3030  0.2119
 5617TIP3    H138342   4.619   0.935   5.578 -0.8950  1.3861  0.2346
 5617TIP3    H238343   4.535   0.930   5.703 -1.0749  0.1153  0.0736
 5618TIP3   OH238344   1.602   1.121   3.565  0.7092  0.2045  0.2562
 5618TIP3    H138345   1.561   1.195   3.519 -0.4218  1.4201  3.0146
 5618TIP3    H238346   1.554   1.044   3.533 -0.7337  1.1202  0.1030
 5619TIP3   OH238347   2.830   5.538  12.730  0.3826  0.4477 -0.1836
 5619TIP3    H138348   2.857   5.630  12.720 -0.2749  0.8742  1.5518
 5619TIP3    H238349   2.807   5.530  12.823 -2.0375 -0.7881 -0.8023
 5620TIP3   OH238350   3.814   2.191   3.762  0.2351 -0.4853  0.4639
 5620TIP3    H138351   3.748   2.233   3.706 -0.4587 -2.4848 -0.3306
 5620TIP3    H238352   3.772   2.185   3.848 -0.2127 -0.7880  0.2307
 5621TIP3   OH238353   4.517   1.631  16.832 -0.1116  0.3964 -0.3656
 5621TIP3    H138354   4.423   1.633  16.849 -0.1463  0.8621 -0.6099
 5621TIP3    H238355   4.538   1.719  16.801  0.4188  0.3184 -0.2399
 5622TIP3   OH238356   3.050   0.959  12.604 -0.1947  0.0204 -0.2785
 5622TIP3    H138357   2.997   0.889  12.641 -0.8201  0.7690  0.2939
 5622TIP3    H238358   3.128   0.916  12.569  0.4820 -0.7405  1.9836
 5623TIP3   OH238359   5.352   0.810   5.828 -0.7575 -0.1289 -0.2605
 5623TIP3    H138360   5.267   0.855   5.826 -1.6949 -1.7701 -3.3994
 5623TIP3    H238361   5.340   0.740   5.893 -1.0713  0.8292  0.7556
 5624TIP3   OH238362   5.114   1.164  15.180  0.2624 -0.2304 -0.4894
 5624TIP3    H138363   5.138   1.202  15.095  1.7152 -0.3627 -0.1682
 5624TIP3    H238364   5.162   1.081  15.182 -0.4388 -0.6316  0.1171
 5625TIP3   OH238365   3.218   2.955  15.649  0.7142  0.1511 -0.2305
 5625TIP3    H138366   3.130   2.980  15.620  1.0506  1.5833 -0.1259
 5625TIP3    H238367   3.277   3.004  15.591  1.5268 -2.3172 -1.6440
 5626TIP3   OH238368   4.420   6.772   0.825 -0.1199  0.2134 -0.0441
 5626TIP3    H138369   4.396   6.852   0.779 -0.0694  0.8929  1.0505
 5626TIP3    H238370   4.350   6.710   0.804 -0.5507  0.7822 -0.3251
 5627TIP3   OH238371   1.801   4.436  14.791 -0.9333 -0.2104 -0.3413
 5627TIP3    H138372   1.885   4.424  14.745 -0.8831 -1.3560  0.0270
 5627TIP3    H238373   1.764   4.348  14.798 -1.6465  0.1376  0.5021
 5628TIP3   OH238374   4.085   6.278  13.326 -0.0062  0.3379  0.3261
 5628TIP3    H138375   4.055   6.270  13.416  0.1190 -1.2040  0.2589
 5628TIP3    H238376   4.111   6.370  13.317  0.3525  0.4227  1.9689
 5629TIP3   OH238377   4.136   3.175   4.711  0.6608 -0.7804 -0.0370
 5629TIP3    H138378   4.114   3.082   4.720 -0.9883 -0.7603 -2.7390
 5629TIP3    H238379   4.174   3.182   4.624 -1.9377  1.4212 -1.1652
 5630TIP3   OH238380   1.381   5.623  13.883 -0.2112  0.9447 -0.1669
 5630TIP3    H138381   1.313   5.611  13.817  0.7075  1.1708 -1.1946
 5630TIP3    H238382   1.355   5.702  13.930 -0.4004  1.3221 -0.8888
 5631TIP3   OH238383   1.041   3.025   4.349  0.0887 -0.1367 -0.1767
 5631TIP3    H138384   1.030   2.931   4.333 -0.4024 -0.0225 -0.5564
 5631TIP3    H238385   0.951   3.058   4.354  0.2620  0.4025 -0.6111
 5632TIP3   OH238386   5.138   3.569  14.150 -0.5887  0.4329 -0.6872
 5632TIP3    H138387   5.157   3.593  14.240 -0.9033 -0.7272 -0.2916
 5632TIP3    H238388   5.101   3.648  14.111 -0.3434  0.9795  0.1614
 5633TIP3   OH238389   5.493   4.130  17.181 -0.1207  0.0438 -0.4310
 5633TIP3    H138390   5.414   4.108  17.230  0.1483  0.0077 -0.0063
 5633TIP3    H238391   5.475   4.215  17.142 -0.6599 -0.3129 -0.9721
 5634TIP3   OH238392   1.303   2.356   0.145 -0.2084  0.2186 -0.3444
 5634TIP3    H138393   1.293   2.347   0.051 -0.9500 -0.8113 -0.1837
 5634TIP3    H238394   1.219   2.328   0.181  0.8907 -2.0171  0.7365
 5635TIP3   OH238395   1.521   4.093   5.077  0.6397 -0.1826 -0.1064
 5635TIP3    H138396   1.443   4.143   5.102  0.1017 -0.6197 -0.8561
 5635TIP3    H238397   1.533   4.029   5.147  0.3954 -0.0382  0.0672
 5636TIP3   OH238398   4.686   4.074  14.793 -0.3380 -1.1018 -0.0863
 5636TIP3    H138399   4.719   4.084  14.882  0.4812 -1.4872 -0.3367
 5636TIP3    H238400   4.751   4.117  14.738 -0.4054 -1.6039 -0.5676
 5637TIP3   OH238401   0.186   2.685  17.097  0.0224 -0.6312 -0.0509
 5637TIP3    H138402   0.151   2.702  17.184  1.1128 -0.6334  0.4081
 5637TIP3    H238403   0.205   2.771  17.061 -1.6220 -0.5582 -0.8279
 5638TIP3   OH238404   2.450   5.429   0.361 -0.0995 -0.7100 -0.2330
 5638TIP3    H138405   2.411   5.346   0.334 -2.4142  0.4873 -0.7429
 5638TIP3    H238406   2.414   5.493   0.301  0.6335  0.8856  0.9703
 5639TIP3   OH238407   1.868   3.114   3.136 -0.0689 -0.1053 -0.3463
 5639TIP3    H138408   1.837   3.024   3.144  0.6643 -0.3461 -0.1125
 5639TIP3    H238409   1.849   3.153   3.221  0.3039 -0.2715 -0.1811
 5640TIP3   OH238410   6.755   6.792   1.788 -0.1172  0.3382 -0.6554
 5640TIP3    H138411   6.698   6.762   1.859  1.0427  2.6891  1.4165
 5640TIP3    H238412   6.695   6.819   1.718 -1.4339  0.5257  0.5131
 5641TIP3   OH238413   3.240   1.811  13.453  0.1160  0.0173  0.0060
 5641TIP3    H138414   3.243   1.717  13.441  2.0326 -0.0021  0.3323
 5641TIP3    H238415   3.311   1.830  13.515  0.4454  1.7877 -0.8455
 5642TIP3   OH238416   3.000   0.804  12.940 -0.0135 -0.3798 -0.2424
 5642TIP3    H138417   3.057   0.841  13.007 -0.5840  1.4513 -0.6948
 5642TIP3    H238418   2.917   0.789  12.985 -0.2340  0.3492 -0.3849
 5643TIP3   OH238419   1.066   6.098  12.827  0.2430 -0.4391  0.5735
 5643TIP3    H138420   1.130   6.037  12.790 -0.6301 -0.6931 -0.5539
 5643TIP3    H238421   1.009   6.120  12.754 -0.6857  0.1577  1.4582
 5644TIP3   OH238422   5.762   0.682  14.727  0.2037  0.3778 -0.0409
 5644TIP3    H138423   5.686   0.715  14.776 -0.3238 -0.0559 -0.5533
 5644TIP3    H238424   5.789   0.604  14.775 -0.6923 -0.3990 -0.7583
 5645TIP3   OH238425   1.568   6.796  15.642 -0.4012  0.5583 -0.5589
 5645TIP3    H138426   1.577   6.737  15.567 -0.5418 -0.2077  0.0159
 5645TIP3    H238427   1.634   6.766  15.704 -0.4292  1.0540 -0.2881
 5646TIP3   OH238428   4.425   5.866   1.530 -0.0229 -0.1904  0.2868
 5646TIP3    H138429   4.336   5.842   1.556  0.0389 -0.9743 -0.1951
 5646TIP3    H238430   4.477   5.857   1.610 -0.2877 -0.1820  0.4617
 5647TIP3   OH238431   3.784   1.760   3.171 -1.2397  0.2052 -0.1984
 5647TIP3    H138432   3.705   1.811   3.150 -1.1149 -0.2911 -2.0792
 5647TIP3    H238433   3.755   1.669   3.170 -1.4878  0.1267  3.2645
 5648TIP3   OH238434   1.036   0.622   2.037  0.3724  0.1542 -0.0148
 5648TIP3    H138435   0.950   0.650   2.068  0.2699 -1.8034  1.7126
 5648TIP3    H238436   1.018   0.555   1.971  0.4349 -1.6312  1.6595
 5649TIP3   OH238437   0.699   6.080   4.398 -0.7134  0.7061  0.1626
 5649TIP3    H138438   0.628   6.021   4.371  0.2669 -0.3125 -0.2778
 5649TIP3    H238439   0.737   6.110   4.316  0.6200 -0.3423  0.3555
 5650TIP3   OH238440   5.837   1.827  12.277  0.5541 -0.1785  0.3903
 5650TIP3    H138441   5.803   1.738  12.267 -0.4651  0.0147  1.7757
 5650TIP3    H238442   5.774   1.882  12.231  0.3580 -0.0510  0.8052
 5651TIP3   OH238443   3.694   3.354   0.197  0.0273 -0.1544 -0.3267
 5651TIP3    H138444   3.671   3.342   0.289  0.1066 -1.2813 -0.4442
 5651TIP3    H238445   3.737   3.440   0.194  1.3494 -0.7270  0.9474
 5652TIP3   OH238446   2.208   1.115  13.315 -0.1527 -0.0751  0.7182
 5652TIP3    H138447   2.188   1.052  13.384  0.0819 -1.5109 -0.4803
 5652TIP3    H238448   2.124   1.157  13.295 -1.1781 -2.7248 -1.0348
 5653TIP3   OH238449   4.272   4.720  15.000 -0.1004 -0.2617 -0.1218
 5653TIP3    H138450   4.242   4.670  15.076  0.7856 -0.8474 -0.1383
 5653TIP3    H238451   4.263   4.811  15.027  1.5299 -0.4555  1.2719
 5654TIP3   OH238452   3.030   3.854  17.262  0.1826 -0.3494  0.3451
 5654TIP3    H138453   3.059   3.767  17.290 -1.4961 -1.6619 -1.6724
 5654TIP3    H238454   2.938   3.843  17.241 -0.5078  2.3654  1.5192
 5655TIP3   OH238455   0.257   2.617   3.763 -0.4555 -0.2852  0.8630
 5655TIP3    H138456   0.250   2.711   3.745  1.3624 -0.3988 -0.6949
 5655TIP3    H238457   0.305   2.612   3.846  1.1680  0.1650 -0.0273
 5656TIP3   OH238458   2.798   0.714   2.455 -0.4626  0.2766 -0.1765
 5656TIP3    H138459   2.864   0.781   2.440 -2.4606  3.0833  2.2455
 5656TIP3    H238460   2.839   0.652   2.516  0.9049  0.0941 -1.2297
 5657TIP3   OH238461   2.319   6.369  14.334  0.4374 -0.0280  0.3991
 5657TIP3    H138462   2.287   6.456  14.357 -0.8753 -0.6808  1.1611
 5657TIP3    H238463   2.274   6.310  14.394  2.4948 -1.1112  0.9414
 5658TIP3   OH238464   6.095   2.793   6.320  0.3397 -0.6889 -0.2218
 5658TIP3    H138465   6.121   2.882   6.340  0.4933 -1.1404  1.7808
 5658TIP3    H238466   6.157   2.764   6.253  1.1352  0.2539  0.0947
 5659TIP3   OH238467   5.481   6.488  14.709 -0.3197  0.6583  0.0238
 5659TIP3    H138468   5.443   6.516  14.792  0.4052 -0.3389  0.7288
 5659TIP3    H238469   5.575   6.501  14.720 -0.2017  0.3701 -0.5795
 5660TIP3   OH238470   5.140   5.288  17.291  0.0985 -0.8980 -0.0428
 5660TIP3    H138471   5.057   5.324  17.261 -0.4383 -0.6688  1.6639
 5660TIP3    H238472   5.206   5.332  17.237 -0.8065 -0.2781 -0.6610
 5661TIP3   OH238473   4.088   2.187  13.097  0.3686  0.2584 -0.0319
 5661TIP3    H138474   4.164   2.147  13.139 -0.2515 -0.4448  0.4616
 5661TIP3    H238475   4.074   2.135  13.018  0.0725  0.0234  0.1702
 5662TIP3   OH238476   4.503   0.300   0.514  0.5765 -0.4403 -0.2234
 5662TIP3    H138477   4.548   0.293   0.598 -0.0040 -2.0740 -0.0090
 5662TIP3    H238478   4.428   0.242   0.522 -1.1720  1.5836 -0.8553
 5663TIP3   OH238479   0.977   6.632   4.840 -0.3197 -0.0732 -0.2990
 5663TIP3    H138480   0.925   6.675   4.772 -0.6033 -0.0236 -0.0527
 5663TIP3    H238481   1.057   6.684   4.845 -0.4338  0.1117 -0.3739
 5664TIP3   OH238482   6.352   4.062  16.697  1.1297  0.2297  0.1367
 5664TIP3    H138483   6.364   4.098  16.785  0.8334 -0.9387  0.6791
 5664TIP3    H238484   6.258   4.069  16.681  0.9434 -0.9665  0.5753
 5665TIP3   OH238485   6.784   6.097  15.653  0.3382 -0.1082 -0.3727
 5665TIP3    H138486   6.692   6.077  15.672  0.5880 -2.4702 -1.3411
 5665TIP3    H238487   6.781   6.142  15.568  0.0301  0.5687 -0.0098
 5666TIP3   OH238488   0.047   1.402  13.254 -0.2705 -0.2064 -0.1484
 5666TIP3    H138489   0.121   1.417  13.195  0.3275 -0.2716  0.5661
 5666TIP3    H238490  -0.029   1.434  13.206  0.3054  0.4470 -0.6513
 5667TIP3   OH238491   0.520   4.172  11.369 -0.1736 -0.2732  0.1631
 5667TIP3    H138492   0.449   4.184  11.432 -0.7943 -0.4679 -0.4990
 5667TIP3    H238493   0.562   4.090  11.396  1.9940  1.4746  2.6504
 5668TIP3   OH238494   1.614   6.642  11.669  0.3549  0.0900  0.6366
 5668TIP3    H138495   1.709   6.646  11.655  0.3261  1.5573  0.6985
 5668TIP3    H238496   1.580   6.603  11.589  0.8280  1.7229 -0.4136
 5669TIP3   OH238497   2.347   5.147   5.480 -0.1549  0.6697  0.0840
 5669TIP3    H138498   2.286   5.134   5.552  2.4158 -0.1966  2.2896
 5669TIP3    H238499   2.369   5.240   5.483  0.5691  0.4850  1.0282
 5670TIP3   OH238500   2.871   1.187   5.398  0.0273 -0.3019 -0.0432
 5670TIP3    H138501   2.925   1.200   5.319  0.7391  0.8850  0.6090
 5670TIP3    H238502   2.928   1.139   5.458 -0.2435 -0.5272  0.0335
 5671TIP3   OH238503   3.564   3.458   3.932  0.3845 -0.3360 -0.0962
 5671TIP3    H138504   3.550   3.485   4.023 -0.6433  0.1235 -0.3762
 5671TIP3    H238505   3.605   3.535   3.891 -0.8091  0.1326 -0.4416
 5672TIP3   OH238506   2.413   5.267   3.274 -0.0757 -0.2807  0.5282
 5672TIP3    H138507   2.319   5.283   3.271  0.2579  1.8863 -0.9932
 5672TIP3    H238508   2.429   5.204   3.203 -0.2190  0.5680 -0.2760
 5673TIP3   OH238509   5.112   4.972  12.900 -0.0251  0.0540  0.1623
 5673TIP3    H138510   5.206   4.988  12.908  0.7425 -2.9027 -1.2893
 5673TIP3    H238511   5.073   5.021  12.972  2.7655  0.3653  1.6181
 5674TIP3   OH238512   2.258   4.502   2.263  0.1858  0.1105  0.3855
 5674TIP3    H138513   2.284   4.468   2.177  0.8501  0.0968  0.5876
 5674TIP3    H238514   2.244   4.424   2.316 -0.8784  0.1015  0.1107
 5675TIP3   OH238515   3.480   1.768   3.381 -0.1681  0.0636 -0.0690
 5675TIP3    H138516   3.560   1.811   3.411 -0.1865 -0.8442  1.4211
 5675TIP3    H238517   3.411   1.833   3.395  0.3336  0.9801 -1.7040
 5676TIP3   OH238518   3.268   0.445  15.485  0.5497 -0.2373  0.1116
 5676TIP3    H138519   3.198   0.418  15.425 -0.5041  1.4082  0.5410
 5676TIP3    H238520   3.254   0.392  15.564 -1.4229  1.3611  0.9120
 5677TIP3   OH238521   6.174   0.567   2.975  0.7435 -0.0386 -0.3123
 5677TIP3    H138522   6.265   0.586   2.997 -0.3681  1.4828  4.0755
 5677TIP3    H238523   6.170   0.472   2.970  2.3575 -0.2388  1.0452
 5678TIP3   OH238524   6.688   3.307   0.679 -0.5859 -0.2061 -0.0825
 5678TIP3    H138525   6.739   3.286   0.758  1.7177 -0.0052 -1.4220
 5678TIP3    H238526   6.651   3.223   0.651 -0.3777 -0.5025  0.5180
 5679TIP3   OH238527   6.777   5.895  14.548  0.2207 -0.2173 -0.5181
 5679TIP3    H138528   6.738   5.828  14.492  1.1691 -1.3172  0.1052
 5679TIP3    H238529   6.726   5.891  14.629  0.3019 -0.2024 -0.4672
 5680TIP3   OH238530   3.333   2.128   2.257 -0.2018  0.7092  0.1078
 5680TIP3    H138531   3.303   2.112   2.168  2.1295  1.5060 -0.9040
 5680TIP3    H238532   3.422   2.093   2.260  0.6728  2.7686  1.3477
 5681TIP3   OH238533   4.237   6.744  16.083  0.1762  0.3483  0.4999
 5681TIP3    H138534   4.290   6.745  16.162 -0.6851  1.7845  1.0935
 5681TIP3    H238535   4.219   6.836  16.064 -0.5885 -0.0189 -0.7158
 5682TIP3   OH238536   5.667   4.995  12.207 -0.5458 -0.2237 -0.4042
 5682TIP3    H138537   5.622   4.998  12.122 -1.9738 -1.4715  0.2679
 5682TIP3    H238538   5.707   4.908  12.210  2.2234  0.8974 -1.0533
 5683TIP3   OH238539   3.096   0.595   5.494 -0.4018  0.9307  0.1876
 5683TIP3    H138540   3.002   0.578   5.486 -0.0264 -0.7791 -1.0302
 5683TIP3    H238541   3.123   0.625   5.407  0.2316  1.2238  0.4770
 5684TIP3   OH238542   5.212   3.576  15.167  0.8677  0.2636 -0.4727
 5684TIP3    H138543   5.215   3.560  15.073 -0.8937 -3.7673 -0.0452
 5684TIP3    H238544   5.260   3.503  15.205 -2.6564 -1.1192  1.8220
 5685TIP3   OH238545   0.027   1.906   4.222 -0.3951 -0.0308  0.2627
 5685TIP3    H138546   0.097   1.848   4.192  0.1625  0.2598  1.0067
 5685TIP3    H238547  -0.037   1.847   4.262 -0.8011 -0.3437 -0.7882
 5686TIP3   OH238548   1.266   6.000  14.233  0.4198  0.3699 -0.7747
 5686TIP3    H138549   1.304   5.989  14.321  0.3316 -1.1365 -0.9044
 5686TIP3    H238550   1.174   6.021  14.250  0.4791  0.4378 -0.5171
 5687TIP3   OH238551   0.083   1.652  12.642  0.9618 -0.2485  0.0757
 5687TIP3    H138552   0.006   1.701  12.670  0.0214 -0.8298 -1.4016
 5687TIP3    H238553   0.151   1.677  12.705  0.3413  2.4082 -0.1720
 5688TIP3   OH238554   1.056   3.948   2.441  0.0871  0.1232 -0.1244
 5688TIP3    H138555   1.079   3.859   2.466  4.2211  0.8408 -0.5206
 5688TIP3    H238556   1.039   3.993   2.524 -1.1655 -0.7983  0.1343
 5689TIP3   OH238557   3.448   1.334  10.999 -0.7639 -0.5130  0.1588
 5689TIP3    H138558   3.420   1.244  10.983  2.4392 -1.2937 -2.1348
 5689TIP3    H238559   3.441   1.376  10.913 -0.7197  0.9507  0.8524
 5690TIP3   OH238560   1.158   3.588  15.023 -0.5928 -0.3393 -0.0335
 5690TIP3    H138561   1.148   3.666  14.969  0.3248 -0.3281 -0.2034
 5690TIP3    H238562   1.121   3.517  14.971  0.8431 -0.4404 -0.9896
 5691TIP3   OH238563   0.225   0.694   5.586  0.0360 -0.0935  0.0616
 5691TIP3    H138564   0.294   0.724   5.528 -0.3235  0.7871  0.0615
 5691TIP3    H238565   0.239   0.600   5.595  0.1752 -0.2270 -1.3437
 5692TIP3   OH238566   5.535   3.729  13.409 -0.5204  0.9748  0.2011
 5692TIP3    H138567   5.549   3.725  13.314 -1.2119 -0.1968  0.1214
 5692TIP3    H238568   5.500   3.642  13.431  0.5960  0.8658  1.6926
 5693TIP3   OH238569   4.610   1.662   1.947 -0.0893 -0.5137  0.0051
 5693TIP3    H138570   4.573   1.717   1.879 -0.7472 -0.3207  0.5050
 5693TIP3    H238571   4.573   1.575   1.930 -0.4291 -0.4195  0.2284
 5694TIP3   OH238572   6.452   6.097  16.898  0.5863  0.5747 -0.0996
 5694TIP3    H138573   6.450   6.169  16.835  0.3052  2.3923  1.8862
 5694TIP3    H238574   6.533   6.111  16.947  0.5879 -0.5497  0.2357
 5695TIP3   OH238575   1.228   6.585  16.835 -0.4607 -0.8310  0.2531
 5695TIP3    H138576   1.260   6.675  16.838 -1.2932 -0.5338  1.1872
 5695TIP3    H238577   1.134   6.594  16.818 -0.5235 -1.5232  0.2126
 5696TIP3   OH238578   5.309   3.904   3.742 -0.2657 -0.0824 -0.0172
 5696TIP3    H138579   5.330   3.827   3.796 -0.2039  0.0294  0.1183
 5696TIP3    H238580   5.238   3.874   3.685  0.6919 -0.6657 -0.9430
 5697TIP3   OH238581   3.323   3.257   5.730  0.2238 -0.5637  0.4348
 5697TIP3    H138582   3.316   3.253   5.825  1.9620 -1.1659  0.5710
 5697TIP3    H238583   3.289   3.173   5.700 -1.1690 -0.0290  0.4238
 5698TIP3   OH238584   5.273   4.804  14.690  0.2876  0.1334 -0.7737
 5698TIP3    H138585   5.218   4.764  14.623 -1.8297  1.0435  0.3622
 5698TIP3    H238586   5.241   4.768  14.773  1.1764  0.9438 -0.0499
 5699TIP3   OH238587   1.909   6.152   5.766  0.7357 -0.1431  0.9174
 5699TIP3    H138588   1.834   6.203   5.797  1.6210  0.5705  1.9642
 5699TIP3    H238589   1.935   6.194   5.684  1.7299  1.4511  1.9804
 5700TIP3   OH238590   5.125   3.069   3.665  0.3944 -0.0454 -0.1617
 5700TIP3    H138591   5.124   3.002   3.733  1.3205 -0.5141 -0.6033
 5700TIP3    H238592   5.035   3.072   3.633 -0.0623  0.1916  1.0808
 5701TIP3   OH238593   6.018   2.896   5.973  0.1694 -0.5653 -0.1614
 5701TIP3    H138594   6.085   2.897   6.040 -0.0236 -1.6113  0.0659
 5701TIP3    H238595   5.936   2.880   6.020 -0.1783  0.1796 -0.4881
 5702TIP3   OH238596   3.042   3.987  12.751  0.2464  0.4986 -0.0275
 5702TIP3    H138597   3.011   4.072  12.783  0.9758  0.2896  1.3387
 5702TIP3    H238598   2.989   3.969  12.674 -0.7977  1.6174  0.3962
 5703TIP3   OH238599   5.522   0.702  14.901  0.2742  0.0113  0.1199
 5703TIP3    H138600   5.434   0.732  14.876  0.1044  0.4440  1.2058
 5703TIP3    H238601   5.507   0.646  14.977  0.7292 -1.7856 -1.0389
 5704TIP3   OH238602   2.686   5.985  15.400  0.1407 -0.0817 -0.2988
 5704TIP3    H138603   2.702   5.900  15.441 -1.2488 -0.0365  0.3993
 5704TIP3    H238604   2.619   6.026  15.455 -0.1402  0.9231 -1.3494
 5705TIP3   OH238605   2.243   2.189   3.238 -0.3259  0.1430 -0.3026
 5705TIP3    H138606   2.306   2.251   3.276 -2.4797  1.5314  1.2732
 5705TIP3    H238607   2.176   2.245   3.197 -2.0861 -1.0982  0.7239
 5706TIP3   OH238608   3.530   6.290   4.471  0.2219  0.2893 -0.2283
 5706TIP3    H138609   3.439   6.315   4.453  0.5399  1.1244 -0.7658
 5706TIP3    H238610   3.563   6.259   4.387 -0.2002 -2.2484  0.4476
 5707TIP3   OH238611   6.653   5.797   5.106  0.1826 -0.6209  0.6542
 5707TIP3    H138612   6.643   5.721   5.048  0.9787 -1.1223  1.1530
 5707TIP3    H238613   6.568   5.842   5.102  0.2563 -0.5900 -0.9653
 5708TIP3   OH238614   6.747   1.197   1.258  0.3857 -0.7409  0.0203
 5708TIP3    H138615   6.722   1.156   1.174 -0.1519  0.4390 -0.4222
 5708TIP3    H238616   6.839   1.218   1.248 -0.3302  2.1627 -1.5404
 5709TIP3   OH238617   1.558   3.675   5.949 -0.3141  0.0015  0.4577
 5709TIP3    H138618   1.637   3.727   5.940  0.3119 -0.3637  2.9456
 5709TIP3    H238619   1.503   3.725   6.010 -0.9141 -0.8934  0.6738
 5710TIP3   OH238620   6.059   5.206   0.032 -0.0885  0.7330  0.4866
 5710TIP3    H138621   6.015   5.271   0.087 -1.3540  0.7790 -0.5315
 5710TIP3    H238622   5.992   5.178  -0.031  1.0430 -0.0095 -0.4388
 5711TIP3   OH238623   6.738   0.360  15.413 -0.3485  0.0109 -0.2642
 5711TIP3    H138624   6.723   0.450  15.442 -1.9195  0.0419 -1.0812
 5711TIP3    H238625   6.812   0.366  15.352 -0.3285  0.7183 -0.1766
 5712TIP3   OH238626   4.587   2.326  17.160  0.0549 -0.0223  0.1260
 5712TIP3    H138627   4.658   2.263  17.168 -1.1377 -1.3027  1.2580
 5712TIP3    H238628   4.612   2.382  17.086  1.4800 -1.3846 -0.4742
 5713TIP3   OH238629   6.058   6.275   3.326  0.3469  0.1864 -0.1959
 5713TIP3    H138630   6.015   6.326   3.258 -1.3876 -2.2844 -1.0789
 5713TIP3    H238631   6.143   6.251   3.287 -0.9171 -1.8302 -1.9210
 5714TIP3   OH238632   0.839   5.062  14.492 -0.7085 -0.2642 -0.0164
 5714TIP3    H138633   0.821   5.010  14.570  0.7388  1.9615  1.9529
 5714TIP3    H238634   0.885   5.003  14.433 -1.5032 -1.9104  0.9667
 5715TIP3   OH238635   6.408   0.973  14.464 -0.0260 -0.6867  0.1076
 5715TIP3    H138636   6.314   0.989  14.455 -0.1324  0.3891  2.3767
 5715TIP3    H238637   6.430   1.007  14.551  2.2101 -2.1663  0.2064
 5716TIP3   OH238638   5.198   5.404  12.812 -0.7178 -0.2733  0.2427
 5716TIP3    H138639   5.265   5.339  12.792  0.7026  1.8930 -2.9166
 5716TIP3    H238640   5.135   5.396  12.740 -1.2888  0.8954  0.5884
 5717TIP3   OH238641   3.562   2.013   4.157 -0.1760  0.7017 -0.5625
 5717TIP3    H138642   3.588   1.923   4.135 -0.9070  0.6430 -1.2309
 5717TIP3    H238643   3.513   2.043   4.081 -3.3844  0.2696  1.1649
 5718TIP3   OH238644   3.502   5.429  15.309 -0.2264 -0.1917 -0.2172
 5718TIP3    H138645   3.433   5.495  15.318  0.2701  0.2129  0.7348
 5718TIP3    H238646   3.455   5.347  15.295 -0.8521  0.3555 -1.4713
 5719TIP3   OH238647   1.964   5.864   3.355 -0.2574 -0.2659 -0.3559
 5719TIP3    H138648   1.951   5.850   3.261 -0.6159  1.0423 -0.5098
 5719TIP3    H238649   2.051   5.829   3.373  0.0554  0.0167 -1.2969
 5720TIP3   OH238650   2.902   4.918   0.281 -0.0958 -0.1672  0.2769
 5720TIP3    H138651   2.987   4.959   0.267 -0.5921  0.5485 -0.7586
 5720TIP3    H238652   2.907   4.834   0.235  0.2750 -0.4338  0.7975
 5721TIP3   OH238653   0.212   0.988  11.100  0.5952 -0.5825  0.0602
 5721TIP3    H138654   0.157   1.019  11.027  0.8177 -0.6069 -0.1165
 5721TIP3    H238655   0.266   0.919  11.062  0.3971 -0.9046  0.3554
 5722TIP3   OH238656   4.841   2.971  15.373  0.0270 -0.1013  0.2697
 5722TIP3    H138657   4.905   3.036  15.403 -0.7244 -0.0141  1.8164
 5722TIP3    H238658   4.763   3.023  15.350 -0.6850 -0.4291  1.8150
 5723TIP3   OH238659   0.961   0.674   5.654  0.5622  0.1912  0.5643
 5723TIP3    H138660   1.025   0.610   5.624  1.7338  0.4821  2.2428
 5723TIP3    H238661   0.977   0.681   5.748  0.0495  2.4416  0.5538
 5724TIP3   OH238662   1.606   4.198  15.081  0.3026  0.0178 -0.0624
 5724TIP3    H138663   1.523   4.232  15.046 -0.4152  0.9148  2.2898
 5724TIP3    H238664   1.643   4.272  15.129  1.4160 -1.0108  0.6946
 5725TIP3   OH238665   4.616   0.221  13.082 -0.1803  0.2480 -0.0849
 5725TIP3    H138666   4.658   0.143  13.044  0.1530 -0.0546  0.8742
 5725TIP3    H238667   4.584   0.192  13.167 -0.8927  0.9213 -0.1132
 5726TIP3   OH238668   2.893   3.868  13.958  0.0690 -0.1710 -0.0490
 5726TIP3    H138669   2.911   3.957  13.988 -0.4455 -0.5316  1.3943
 5726TIP3    H238670   2.805   3.849  13.988  0.8650 -1.8485  1.4039
 5727TIP3   OH238671   5.417   1.179  17.264 -0.1278 -0.4811  0.2060
 5727TIP3    H138672   5.447   1.228  17.188  2.4526 -0.1854  1.3359
 5727TIP3    H238673   5.489   1.120  17.285 -1.7346 -2.2526  1.0432
 5728TIP3   OH238674   3.425   3.098   4.887  0.0169  0.1961 -0.1383
 5728TIP3    H138675   3.476   3.055   4.956 -1.0714 -3.0623 -1.1892
 5728TIP3    H238676   3.490   3.131   4.826  0.9182  0.1144  0.7496
 5729TIP3   OH238677   2.646   5.840  16.778  0.3800  0.3686  0.1349
 5729TIP3    H138678   2.652   5.921  16.729 -1.6963  0.0516 -0.7609
 5729TIP3    H238679   2.555   5.837  16.810  0.4875 -1.4352  0.4069
 5730TIP3   OH238680   5.650   2.718   1.046  0.1422  0.0083  0.2186
 5730TIP3    H138681   5.652   2.661   1.123  1.1494  0.1432  0.3001
 5730TIP3    H238682   5.663   2.659   0.972 -0.1813 -0.0378  0.1970
 5731TIP3   OH238683   6.048   1.752  15.564 -0.1596  0.0003 -0.7309
 5731TIP3    H138684   6.129   1.743  15.614 -0.2559  1.8085 -0.2024
 5731TIP3    H238685   6.060   1.694  15.488  1.2011 -0.5084 -0.1518
 5732TIP3   OH238686   4.518   4.578   4.684  0.0803  0.4303  0.2717
 5732TIP3    H138687   4.572   4.645   4.642  0.8271 -1.3587 -1.7864
 5732TIP3    H238688   4.578   4.534   4.745  0.4896 -0.3258 -0.6421
 5733TIP3   OH238689   2.422   1.211  13.610  0.1952  0.3965  0.2131
 5733TIP3    H138690   2.466   1.155  13.674 -0.3319  0.1450  0.3548
 5733TIP3    H238691   2.438   1.168  13.526  0.4470  0.4525  0.2294
 5734TIP3   OH238692   4.004   2.193  12.498 -0.0357  0.3786 -0.4615
 5734TIP3    H138693   4.097   2.181  12.519  0.3883  1.6394 -1.4638
 5734TIP3    H238694   4.002   2.197  12.402 -1.3766 -1.3745 -0.5642
 5735TIP3   OH238695   0.158   0.302   0.078  0.2422 -0.3495  0.6003
 5735TIP3    H138696   0.138   0.313  -0.015 -1.4099  2.2707  1.1360
 5735TIP3    H238697   0.083   0.254   0.113  1.2154 -1.9976  0.5071
 5736TIP3   OH238698   4.764   4.577   5.420 -0.1570 -0.1461 -0.1098
 5736TIP3    H138699   4.850   4.603   5.453  0.4619 -0.6621 -1.2675
 5736TIP3    H238700   4.702   4.622   5.477  0.8743  0.8632  0.2561
 5737TIP3   OH238701   1.945   3.547  15.448 -0.1289 -0.3251 -0.0320
 5737TIP3    H138702   1.873   3.494  15.480  1.4735 -2.2301  0.6441
 5737TIP3    H238703   1.903   3.619  15.402 -2.5180  0.3298  2.8131
 5738TIP3   OH238704   5.627   4.256   3.463  0.0204 -0.0681  0.2153
 5738TIP3    H138705   5.592   4.297   3.384  0.6418 -0.3561 -0.2166
 5738TIP3    H238706   5.573   4.178   3.475  0.7548 -0.7247 -0.6765
 5739TIP3   OH238707   0.225   3.569  15.895 -0.7249  0.5494 -0.0095
 5739TIP3    H138708   0.293   3.637  15.894 -0.8819  0.7156  0.5409
 5739TIP3    H238709   0.155   3.605  15.949 -2.0559  1.1461 -2.0240
 5740TIP3   OH238710   2.564   3.227  15.316  0.6797 -0.1860  0.1380
 5740TIP3    H138711   2.495   3.176  15.274  0.9783  0.7725 -1.6024
 5740TIP3    H238712   2.518   3.281  15.380 -0.2132  0.4053 -0.9629
 5741TIP3   OH238713   3.558   6.616  14.511  0.1711 -0.3277 -0.2475
 5741TIP3    H138714   3.566   6.612  14.606  0.4079 -1.2917 -0.2934
 5741TIP3    H238715   3.646   6.633  14.479 -0.2564  2.1986 -0.2258
 5742TIP3   OH238716   6.343   1.059   4.312  0.0328 -0.2573 -0.2579
 5742TIP3    H138717   6.432   1.036   4.340  0.1375 -0.6398 -0.9112
 5742TIP3    H238718   6.346   1.154   4.299 -0.0892 -0.0157  1.2808
 5743TIP3   OH238719   0.356   3.045  15.889 -0.2310 -0.1687  0.5911
 5743TIP3    H138720   0.319   2.957  15.901 -0.8448  0.2346  1.8031
 5743TIP3    H238721   0.312   3.099  15.955 -0.2935  1.1884 -0.5148
 5744TIP3   OH238722   3.445   3.057   1.058  0.1358  0.2507 -0.4547
 5744TIP3    H138723   3.463   3.150   1.043 -0.5651  0.4560 -0.0638
 5744TIP3    H238724   3.481   3.039   1.145  0.2270  0.1600 -0.5098
 5745TIP3   OH238725   3.044   5.418   0.755  0.2858 -0.5509 -0.0293
 5745TIP3    H138726   3.101   5.347   0.785  1.1248 -0.7039 -1.8314
 5745TIP3    H238727   3.102   5.494   0.749 -0.0385 -0.3325 -0.4424
 5746TIP3   OH238728   0.907   3.215   1.394  0.4094  0.5678 -0.0399
 5746TIP3    H138729   0.957   3.133   1.402  0.8499  0.9350  1.2099
 5746TIP3    H238730   0.935   3.252   1.310 -0.7402 -1.1484 -1.2411
 5747TIP3   OH238731   1.154   5.069   2.006  0.1812 -0.1990  0.0108
 5747TIP3    H138732   1.209   5.111   1.939 -0.5286  1.4479  0.4120
 5747TIP3    H238733   1.175   4.976   1.998  2.1402  0.2316 -0.6526
 5748TIP3   OH238734   5.523   6.184   5.405  0.5722  0.0869 -0.3987
 5748TIP3    H138735   5.536   6.185   5.500  0.4069 -0.1678 -0.3724
 5748TIP3    H238736   5.601   6.226   5.370  1.6376 -1.6747 -0.2639
 5749TIP3   OH238737   2.968   6.676  11.633 -0.3624  0.3742  0.8155
 5749TIP3    H138738   2.969   6.757  11.582 -0.6266  0.6921  1.3017
 5749TIP3    H238739   3.004   6.610  11.575 -0.4939  0.7666  0.2840
 5750TIP3   OH238740   3.562   2.350   4.793  0.7708  0.5038  0.0378
 5750TIP3    H138741   3.493   2.284   4.789  2.2390 -1.0200 -1.1808
 5750TIP3    H238742   3.559   2.393   4.708  2.3542 -0.7103 -0.6768
 5751TIP3   OH238743   0.795   5.746   3.010 -0.2779 -0.1256  0.7599
 5751TIP3    H138744   0.823   5.662   3.046  2.3964  1.0892  1.8035
 5751TIP3    H238745   0.876   5.796   2.998 -1.6063  1.7684 -1.3514
 5752TIP3   OH238746   1.903   2.590   0.646 -0.2579  0.0283  0.0792
 5752TIP3    H138747   1.980   2.634   0.611  1.3785 -1.2839  1.7616
 5752TIP3    H238748   1.892   2.513   0.590  1.7011 -1.4952  1.6288
 5753TIP3   OH238749   3.283   0.878  15.652  0.1040 -0.5935  0.0058
 5753TIP3    H138750   3.193   0.895  15.625 -0.3285 -3.0478 -0.3189
 5753TIP3    H238751   3.279   0.869  15.747  0.1858  0.2073  0.0895
 5754TIP3   OH238752   5.280   5.393  10.722 -0.9086  0.4240 -0.1305
 5754TIP3    H138753   5.186   5.388  10.739 -0.8635  0.4138  0.1262
 5754TIP3    H238754   5.320   5.361  10.803 -0.6911  0.0109 -0.3967
 5755TIP3   OH238755   4.996   1.768  14.318  0.6173 -0.7633 -0.0178
 5755TIP3    H138756   4.906   1.784  14.291  0.7035 -0.1171  0.0668
 5755TIP3    H238757   5.049   1.801  14.245  0.7922 -0.8748  0.0576
 5756TIP3   OH238758   4.013   1.567  11.579  0.0441 -0.9280  0.1198
 5756TIP3    H138759   3.971   1.556  11.664  0.2822  1.8999  0.6742
 5756TIP3    H238760   4.090   1.621  11.597  0.7722 -1.2709 -1.7319
 5757TIP3   OH238761   4.181   3.187  12.617 -0.1560 -0.2741 -0.0037
 5757TIP3    H138762   4.234   3.259  12.652 -0.3106 -0.0563 -0.2194
 5757TIP3    H238763   4.240   3.111  12.619 -0.0721 -0.2018  0.4661
 5758TIP3   OH238764   3.503   5.294  14.414  0.1996 -0.1338  0.2039
 5758TIP3    H138765   3.417   5.284  14.374  0.1927 -1.9633  0.5779
 5758TIP3    H238766   3.489   5.356  14.486  0.0054  2.4010 -1.8587
 5759TIP3   OH238767   3.279   3.793  14.201 -0.1494  0.3764  0.0394
 5759TIP3    H138768   3.347   3.749  14.251 -1.2381 -0.9668  0.3845
 5759TIP3    H238769   3.226   3.723  14.164 -1.2868  1.3783 -0.3179
 5760TIP3   OH238770   2.658   5.999   4.682  0.1923 -0.2457 -0.7524
 5760TIP3    H138771   2.632   5.943   4.609 -1.1662 -0.9580  0.2326
 5760TIP3    H238772   2.576   6.016   4.730  0.9594  0.6386  0.3036
 5761TIP3   OH238773   0.402   5.072   0.017  0.3685 -0.7726 -0.1372
 5761TIP3    H138774   0.440   5.152  -0.020  2.0005 -1.7251 -0.6166
 5761TIP3    H238775   0.310   5.094   0.031  1.3375  2.3267  2.8299
 5762TIP3   OH238776   4.897   6.398  14.999 -0.3787  0.0800  0.9358
 5762TIP3    H138777   4.984   6.357  15.003  0.2776  1.1959 -0.8821
 5762TIP3    H238778   4.839   6.328  14.968 -0.0568 -0.5272  1.6589
 5763TIP3   OH238779   2.387   6.530   5.828  0.4645 -0.8746 -0.1694
 5763TIP3    H138780   2.468   6.486   5.805  0.0595 -0.8049 -1.8342
 5763TIP3    H238781   2.329   6.459   5.858 -0.2249 -1.6236 -2.9422
 5764TIP3   OH238782   4.583   5.247   1.490  0.1712 -0.0174 -0.0462
 5764TIP3    H138783   4.630   5.273   1.411  0.0914 -0.8498 -0.3790
 5764TIP3    H238784   4.612   5.309   1.557 -1.3497  2.0853 -1.2002
 5765TIP3   OH238785   3.711   3.226  12.947  0.0784 -0.3331 -0.1827
 5765TIP3    H138786   3.751   3.148  12.909 -0.2362 -0.8074  0.4392
 5765TIP3    H238787   3.754   3.237  13.031  0.7509  0.6967 -0.6321
 5766TIP3   OH238788   5.762   1.216  11.271 -0.1452 -0.0168 -0.2799
 5766TIP3    H138789   5.788   1.180  11.356  0.8949 -1.9094 -1.3278
 5766TIP3    H238790   5.677   1.175  11.253 -0.4898  0.5878 -0.0489
 5767TIP3   OH238791   4.506   3.020   5.127  0.1403  0.0452  0.2208
 5767TIP3    H138792   4.524   3.017   5.221  2.3518  0.2169 -0.1456
 5767TIP3    H238793   4.521   3.111   5.102  2.3164 -0.4944 -0.7179
 5768TIP3   OH238794   3.589   0.862  12.070  0.5846 -0.1112 -0.3279
 5768TIP3    H138795   3.534   0.787  12.047  1.0698 -2.1486  4.0917
 5768TIP3    H238796   3.531   0.938  12.062 -0.5280 -1.0970 -2.9209
 5769TIP3   OH238797   4.722   0.292   2.255 -0.7939  0.1005 -0.5803
 5769TIP3    H138798   4.779   0.322   2.185 -0.8567 -0.6221 -0.9462
 5769TIP3    H238799   4.694   0.204   2.228 -0.3481 -0.4375  0.6113
 5770TIP3   OH238800   0.293   3.403   6.062 -0.0903 -0.9388 -0.3649
 5770TIP3    H138801   0.202   3.434   6.064 -0.3726 -1.7005 -0.7950
 5770TIP3    H238802   0.314   3.384   6.154 -0.3653 -0.7506 -0.2619
 5771TIP3   OH238803   6.209   1.544  12.642 -0.1835  0.3723 -0.5033
 5771TIP3    H138804   6.258   1.463  12.631 -0.0479 -0.4597  4.3086
 5771TIP3    H238805   6.118   1.519  12.624 -0.0238 -0.6205  0.0166
 5772TIP3   OH238806   0.766   6.349   5.200 -0.5546  0.9489  0.3672
 5772TIP3    H138807   0.695   6.285   5.206 -0.6073  1.0083  0.3794
 5772TIP3    H238808   0.826   6.325   5.271  1.2110 -1.2333 -1.7219
 5773TIP3   OH238809   0.851   2.755  13.946 -0.4836 -0.3223  0.3064
 5773TIP3    H138810   0.772   2.778  13.994 -1.0295  0.7193 -1.0397
 5773TIP3    H238811   0.923   2.786  14.002 -1.1188  1.5618  0.1413
 5774TIP3   OH238812   0.926   0.621  17.188 -0.4156  0.2341  0.5078
 5774TIP3    H138813   0.962   0.560  17.253  0.5588  1.3656  1.0594
 5774TIP3    H238814   0.896   0.564  17.116 -1.9238 -1.0917  2.0788
 5775TIP3   OH238815   6.080   1.767  12.389  0.1837 -0.7304  0.2095
 5775TIP3    H138816   6.085   1.672  12.376 -0.1777 -0.7212 -0.0065
 5775TIP3    H238817   6.001   1.794  12.341  0.2299 -0.3356  0.3511
 5776TIP3   OH238818   1.151   5.901   1.724 -0.5332  0.2597  0.2379
 5776TIP3    H138819   1.163   5.820   1.774 -1.5168 -1.1985 -1.7755
 5776TIP3    H238820   1.079   5.946   1.768 -1.7774 -1.2843 -0.1483
 5777TIP3   OH238821   0.419   4.876  13.463  0.0618 -0.2691  0.3773
 5777TIP3    H138822   0.404   4.806  13.526  0.1866 -1.5962 -1.0019
 5777TIP3    H238823   0.331   4.905  13.438 -0.0021 -0.4392  0.4068
 5778TIP3   OH238824   4.116   2.618   3.058 -0.2494  0.3540 -0.7903
 5778TIP3    H138825   4.025   2.645   3.067 -0.7248 -1.7300  1.8226
 5778TIP3    H238826   4.119   2.571   2.975 -1.6145  0.2217 -0.7835
 5779TIP3   OH238827   3.047   0.291   3.919  0.0575 -0.0370  0.0703
 5779TIP3    H138828   2.997   0.372   3.924 -2.0173 -1.3483  2.8947
 5779TIP3    H238829   3.128   0.311   3.966 -0.0882  0.5998  0.0659
 5780TIP3   OH238830   1.857   3.175  11.838 -0.1942  0.1092  0.4633
 5780TIP3    H138831   1.882   3.174  11.745  0.2266 -1.1080  0.5799
 5780TIP3    H238832   1.763   3.192  11.837  0.3590  4.0712 -0.0064
 5781TIP3   OH238833   2.620   5.656  14.457 -0.0335 -0.1248  0.0460
 5781TIP3    H138834   2.714   5.667  14.474 -0.1471  0.0463  0.6057
 5781TIP3    H238835   2.581   5.740  14.483 -0.0528  0.7886 -2.6241
 5782TIP3   OH238836   0.171   4.981  13.395  0.4778 -0.1139 -0.0267
 5782TIP3    H138837   0.139   4.936  13.317  1.7567  1.2546 -1.4015
 5782TIP3    H238838   0.127   5.066  13.394  0.7448  0.0392  0.5932
 5783TIP3   OH238839   0.526   5.992  16.441 -0.4058  0.8116 -1.0365
 5783TIP3    H138840   0.578   5.912  16.444  0.0243  1.1237  1.1527
 5783TIP3    H238841   0.559   6.045  16.514 -0.6787  3.0046 -2.4011
 5784TIP3   OH238842   3.879   2.698   0.653 -0.1026  0.3821 -1.0181
 5784TIP3    H138843   3.837   2.613   0.636  0.3748 -0.0305 -0.1992
 5784TIP3    H238844   3.965   2.675   0.687 -0.4702  1.1826  0.5240
 5785TIP3   OH238845   3.955   0.394   1.043  0.2897  0.0729 -0.0920
 5785TIP3    H138846   4.041   0.389   1.085  0.0225  0.3309  0.5033
 5785TIP3    H238847   3.940   0.488   1.031 -0.2842  0.0809  0.6214
 5786TIP3   OH238848   5.732   3.002  17.013  0.3338  0.1467 -0.1521
 5786TIP3    H138849   5.691   2.923  16.978  1.9687 -0.3848 -0.9667
 5786TIP3    H238850   5.675   3.028  17.086 -0.5849 -1.3946 -0.2631
 5787TIP3   OH238851   5.545   2.732   0.132 -0.1420 -0.1565  0.3308
 5787TIP3    H138852   5.565   2.825   0.131 -1.6673  0.1896 -0.1879
 5787TIP3    H238853   5.623   2.690   0.095  0.4876  0.9176  0.4210
 5788TIP3   OH238854   0.691   3.550  16.022 -0.1874 -0.1313  0.4099
 5788TIP3    H138855   0.770   3.577  16.068  0.6493 -1.2553 -0.3185
 5788TIP3    H238856   0.649   3.487  16.081 -0.4125  0.2541  0.6708
 5789TIP3   OH238857   6.536   3.816   5.340  0.7539  0.3478  0.0150
 5789TIP3    H138858   6.590   3.823   5.419  1.2624  0.3500 -0.3299
 5789TIP3    H238859   6.478   3.893   5.344  0.4229  0.0726  0.6454
 5790TIP3   OH238860   6.156   2.961  11.729 -0.1142  0.0130  0.3749
 5790TIP3    H138861   6.168   3.028  11.797 -1.4011 -0.4355  1.0840
 5790TIP3    H238862   6.214   2.890  11.756  0.7104  0.5346  0.0169
 5791TIP3   OH238863   3.540   1.045  16.436 -0.0578 -0.4085 -0.5055
 5791TIP3    H138864   3.606   1.028  16.369  0.6012 -3.7625  0.8067
 5791TIP3    H238865   3.527   0.961  16.479 -1.8700  1.1548  2.3386
 5792TIP3   OH238866   3.188   4.346  15.845  0.2193 -0.1147 -0.0590
 5792TIP3    H138867   3.217   4.395  15.769 -1.0031  1.1343  0.2423
 5792TIP3    H238868   3.268   4.306  15.880  0.9560  0.1895 -1.3503
 5793TIP3   OH238869   2.221   4.679  16.890  0.0330  0.4913 -0.0589
 5793TIP3    H138870   2.309   4.711  16.870 -0.0116  0.5762 -0.1206
 5793TIP3    H238871   2.174   4.756  16.921  0.0562  0.3937  0.2255
 5794TIP3   OH238872   0.353   2.201  14.432 -0.2233 -0.2363  0.5765
 5794TIP3    H138873   0.391   2.123  14.473  0.3912  0.1887  0.8323
 5794TIP3    H238874   0.307   2.168  14.355 -1.3751 -1.0566  1.5799
 5795TIP3   OH238875   6.345   0.545   4.442 -0.2205  0.2154 -0.2856
 5795TIP3    H138876   6.288   0.552   4.365 -1.1270 -0.3875  0.3069
 5795TIP3    H238877   6.306   0.606   4.505 -0.0752 -0.0449  0.0519
 5796TIP3   OH238878   1.055   5.432   3.934  0.2378 -0.4678 -0.3627
 5796TIP3    H138879   0.966   5.468   3.932  1.1520  2.0772 -3.4368
 5796TIP3    H238880   1.092   5.466   4.016 -1.2830 -0.8365  0.5359
 5797TIP3   OH238881   4.688   5.149  15.732  0.3911  0.0570 -0.3766
 5797TIP3    H138882   4.758   5.154  15.667  0.5283 -0.9788 -0.3204
 5797TIP3    H238883   4.722   5.195  15.808 -0.2187  2.3283 -1.3948
 5798TIP3   OH238884   2.552   5.344  16.658 -0.2173  0.2635  0.7266
 5798TIP3    H138885   2.507   5.260  16.666  2.0078 -1.2086 -0.9915
 5798TIP3    H238886   2.630   5.335  16.712  2.3590 -0.6153 -2.8322
 5799TIP3   OH238887   4.336   6.803   2.053  0.2610  0.2193 -0.6188
 5799TIP3    H138888   4.297   6.779   1.969 -0.8904  0.2656 -0.1183
 5799TIP3    H238889   4.310   6.895   2.066  1.2297  0.5117 -0.6383
 5800TIP3   OH238890   5.563   6.201   2.806 -0.7924 -0.1925 -0.3414
 5800TIP3    H138891   5.484   6.238   2.767 -1.6964  0.5768  2.0184
 5800TIP3    H238892   5.581   6.258   2.882  1.2895 -1.1095 -0.0820
 5801TIP3   OH238893   1.268   0.302  12.775 -0.1290 -0.8558 -0.3036
 5801TIP3    H138894   1.253   0.208  12.763  0.3518 -0.9078 -0.5454
 5801TIP3    H238895   1.290   0.334  12.687 -0.8914 -0.4002 -0.3332
 5802TIP3   OH238896   4.835   4.844   0.908  0.1050 -0.4779  0.0671
 5802TIP3    H138897   4.918   4.826   0.863 -0.8079 -0.1682 -1.8181
 5802TIP3    H238898   4.852   4.926   0.955  0.6255  0.0359 -0.9793
 5803TIP3   OH238899   4.972   4.081  15.984 -0.4359  0.6434  0.6038
 5803TIP3    H138900   4.910   4.023  16.027  0.3945 -1.5708 -0.9846
 5803TIP3    H238901   4.982   4.045  15.896 -0.5247  3.7681 -0.8420
 5804TIP3   OH238902   2.798   1.971   0.087  0.0418 -0.1544  0.2123
 5804TIP3    H138903   2.724   1.974   0.027  0.0312  0.9956  0.2700
 5804TIP3    H238904   2.826   2.062   0.096 -0.1205 -0.2532  2.1433
 5805TIP3   OH238905   1.871   1.984   5.112  0.4216 -0.2849  0.4468
 5805TIP3    H138906   1.821   2.066   5.116 -1.0129 -1.1121  0.2509
 5805TIP3    H238907   1.929   1.988   5.188  1.2534  1.4393 -0.2343
 5806TIP3   OH238908   0.192   3.586   5.800 -0.8866  0.0507  0.1377
 5806TIP3    H138909   0.285   3.573   5.815 -0.8519 -0.3426 -0.3860
 5806TIP3    H238910   0.156   3.608   5.886 -0.2887  0.3741  0.3114
 5807TIP3   OH238911   0.830   0.537   1.246 -0.3320 -0.0417  0.4642
 5807TIP3    H138912   0.846   0.452   1.204  0.5030 -0.5307  1.7073
 5807TIP3    H238913   0.735   0.548   1.244 -0.4413 -0.9787  0.2364
 5808TIP3   OH238914   3.241   0.273  13.946  0.0835  0.1200 -0.0741
 5808TIP3    H138915   3.337   0.269  13.947  0.0881 -0.8902 -1.3024
 5808TIP3    H238916   3.213   0.183  13.966 -0.5647  0.1667 -0.7145
 5809TIP3   OH238917   3.968   0.634  15.686 -1.0027  0.6245 -0.7999
 5809TIP3    H138918   3.896   0.682  15.644 -0.9597 -1.8065 -4.1053
 5809TIP3    H238919   4.021   0.601  15.612  2.4027  0.5880  1.4206
 5810TIP3   OH238920   4.164   0.737  10.900  0.0276  0.0037  0.2568
 5810TIP3    H138921   4.131   0.731  10.811 -1.4715 -2.7382  0.9003
 5810TIP3    H238922   4.152   0.650  10.937  1.4090  0.8023  2.8968
 5811TIP3   OH238923   1.061   1.585  10.572 -0.1559 -0.2314 -0.2760
 5811TIP3    H138924   1.020   1.661  10.530  1.5155  0.6532 -0.3888
 5811TIP3    H238925   1.022   1.509  10.529 -1.7605  0.5433 -0.2592
 5812TIP3   OH238926   6.313   3.344   1.381 -0.2982  0.5625  0.1804
 5812TIP3    H138927   6.380   3.331   1.314  0.8048 -0.0766  1.3744
 5812TIP3    H238928   6.237   3.378   1.333 -0.0981 -1.3702 -1.6556
 5813TIP3   OH238929   0.843   1.906   4.475 -0.1901 -0.0764  0.5539
 5813TIP3    H138930   0.895   1.912   4.555  1.3963  2.3980 -0.5156
 5813TIP3    H238931   0.754   1.889   4.505  0.3632  0.7260  2.8393
 5814TIP3   OH238932   3.125   5.545  16.844 -0.6280 -0.2729 -0.1253
 5814TIP3    H138933   3.116   5.580  16.933 -1.6119 -0.4480 -0.1470
 5814TIP3    H238934   3.182   5.468  16.854 -2.6772 -1.7520  0.7773
 5815TIP3   OH238935   0.336   3.923   3.853  0.4500  0.5491  0.3599
 5815TIP3    H138936   0.423   3.952   3.879  0.7411 -0.7415  0.8821
 5815TIP3    H238937   0.285   3.924   3.933  0.3740 -0.0475  0.3210
 5816TIP3   OH238938   4.847   3.130  11.810  0.3638 -0.3347 -0.1389
 5816TIP3    H138939   4.880   3.216  11.837 -2.7568  0.6604  0.9430
 5816TIP3    H238940   4.911   3.068  11.845  0.7968  1.3779  2.3942
 5817TIP3   OH238941   6.016   2.752  16.816  0.9288 -0.2360 -0.1502
 5817TIP3    H138942   6.073   2.758  16.739  0.5453  1.4561 -0.3559
 5817TIP3    H238943   6.063   2.800  16.884  0.0416  0.7081 -0.1642
 5818TIP3   OH238944   1.009   6.706   1.572 -0.2757 -0.0200 -0.6963
 5818TIP3    H138945   1.004   6.773   1.640  0.4500  0.5775 -1.2203
 5818TIP3    H238946   0.919   6.697   1.541 -0.6321 -0.3450  0.3640
 5819TIP3   OH238947   2.081   6.343  15.503 -0.1612 -0.0028 -0.4900
 5819TIP3    H138948   2.138   6.391  15.443 -0.3112 -0.3255 -0.9035
 5819TIP3    H238949   2.081   6.253  15.468 -0.4276 -0.1450 -0.1319
 5820TIP3   OH238950   4.747   1.234  15.903 -0.2156  0.7329  0.2252
 5820TIP3    H138951   4.733   1.275  15.817 -1.2980 -0.0964 -0.0215
 5820TIP3    H238952   4.793   1.300  15.954  1.3972  0.8726 -1.3122
 5821TIP3   OH238953   6.686   0.015   2.254 -0.3574 -0.3686  0.2771
 5821TIP3    H138954   6.672   0.103   2.219 -1.7010 -0.1218  1.3402
 5821TIP3    H238955   6.613   0.001   2.314 -0.3017 -2.3253 -0.0420
 5822TIP3   OH238956   3.251   0.870   5.391  0.0537 -0.1488  0.1772
 5822TIP3    H138957   3.265   0.786   5.346 -0.7888 -0.1719 -0.0628
 5822TIP3    H238958   3.264   0.936   5.323  1.3328 -0.0325  0.5050
 5823TIP3   OH238959   2.801   0.244   1.781  0.8013  0.9268 -0.0372
 5823TIP3    H138960   2.766   0.201   1.859 -0.4582  1.6450 -0.1896
 5823TIP3    H238961   2.778   0.336   1.792  1.4835  1.1966 -0.7901
 5824TIP3   OH238962   4.557   3.550   2.807  0.1136 -0.0820 -0.2321
 5824TIP3    H138963   4.561   3.544   2.711  1.7646  0.1349 -0.2105
 5824TIP3    H238964   4.619   3.484   2.838 -0.3603 -0.1113  0.6971
 5825TIP3   OH238965   4.715   5.380   5.025 -0.7259  0.4309 -0.0901
 5825TIP3    H138966   4.758   5.313   5.079  1.2268  1.8192  0.1917
 5825TIP3    H238967   4.742   5.463   5.064 -2.8189  1.4234 -0.6227
 5826TIP3   OH238968   3.362   6.812  17.298  0.0082  0.1412  0.3607
 5826TIP3    H138969   3.353   6.904  17.322 -1.0664 -0.0376  0.7112
 5826TIP3    H238970   3.301   6.800  17.225  1.3149  0.0616 -0.7567
 5827TIP3   OH238971   4.099   0.957  12.628  0.0561 -0.4050  0.0827
 5827TIP3    H138972   4.112   0.905  12.708 -0.1635 -0.2333  0.2346
 5827TIP3    H238973   4.152   0.914  12.562  1.2482  0.1703  0.6269
 5828TIP3   OH238974   6.697   4.104  14.297 -0.2319 -0.5438  0.6577
 5828TIP3    H138975   6.684   4.014  14.325 -2.7854 -0.3605  0.3339
 5828TIP3    H238976   6.628   4.118  14.231  0.5717  1.4121  0.1801
 5829TIP3   OH238977   6.390   2.861   5.131 -0.0803  0.1696 -0.1521
 5829TIP3    H138978   6.334   2.927   5.173 -0.2551  1.4247 -2.2258
 5829TIP3    H238979   6.385   2.881   5.038  2.2358 -0.9552 -0.5884
 5830TIP3   OH238980   4.984   5.876  15.354  0.0882 -0.2189  0.2596
 5830TIP3    H138981   4.898   5.896  15.316  0.0255 -1.8936 -0.5872
 5830TIP3    H238982   4.963   5.832  15.436  0.1442 -0.0895  0.3424
 5831TIP3   OH238983   5.959   3.527  11.847 -0.0533 -0.0888 -0.0305
 5831TIP3    H138984   5.909   3.587  11.902 -0.8250  0.2299 -1.0549
 5831TIP3    H238985   5.939   3.440  11.882  0.6454  0.1901  1.1205
 5832TIP3   OH238986   0.247   6.119   3.211 -0.0550  0.1805 -0.1938
 5832TIP3    H138987   0.340   6.121   3.233 -0.5535  0.1975  2.2505
 5832TIP3    H238988   0.229   6.028   3.188  0.1792 -0.3435  1.5420
 5833TIP3   OH238989   3.904   0.827  16.352  0.0620 -0.0433 -0.7782
 5833TIP3    H138990   3.958   0.837  16.431 -0.3166  4.8166 -0.8167
 5833TIP3    H238991   3.966   0.827  16.280  0.2594 -0.8977 -0.6117
 5834TIP3   OH238992   4.575   4.801   1.038  0.3611 -0.7139 -0.2141
 5834TIP3    H138993   4.560   4.736   0.970 -1.0703  0.4622 -1.0796
 5834TIP3    H238994   4.670   4.810   1.043  0.5305 -1.8988 -1.0070
 5835TIP3   OH238995   1.598   2.182   3.334  0.5484  0.7570 -0.3676
 5835TIP3    H138996   1.667   2.173   3.267 -0.0772  0.2807 -0.9700
 5835TIP3    H238997   1.518   2.157   3.288  0.4007 -1.9703  1.1514
 5836TIP3   OH238998   0.100   4.763  14.041  0.4180  0.2759  0.1577
 5836TIP3    H138999   0.051   4.787  14.120  0.1957  0.7677 -0.1270
 5836TIP3    H239000   0.170   4.829  14.037  0.5834  0.0949  0.0865
 5837TIP3   OH239001   1.391   4.135   2.536  0.5984  0.4025 -0.0407
 5837TIP3    H139002   1.351   4.196   2.597 -0.4294 -0.4239  0.1529
 5837TIP3    H239003   1.477   4.173   2.516  0.2944  1.5008  0.6502
 5838TIP3   OH239004   2.410   2.213  11.910 -0.1333  0.0737  0.0825
 5838TIP3    H139005   2.358   2.153  11.857  0.2533  1.3547 -1.8411
 5838TIP3    H239006   2.501   2.196  11.882  0.0976  0.6234  0.4847
 5839TIP3   OH239007   6.230   3.363   0.195 -0.2780  0.1931  0.2303
 5839TIP3    H139008   6.299   3.415   0.155 -1.3957  0.5705 -1.3083
 5839TIP3    H239009   6.204   3.412   0.273  1.1518  0.0337  0.8408
 5840TIP3   OH239010   6.152   3.767   1.198 -0.0945  0.1368  0.3665
 5840TIP3    H139011   6.141   3.745   1.291 -2.2300 -0.7397 -0.0148
 5840TIP3    H239012   6.084   3.716   1.154  1.9733 -0.8513 -1.9158
 5841TIP3   OH239013   2.409   0.669   4.234  0.1761 -0.6666  0.2892
 5841TIP3    H139014   2.423   0.700   4.144 -0.3225  1.8142  0.9739
 5841TIP3    H239015   2.436   0.578   4.232 -0.3626 -0.8668 -2.5087
 5842TIP3   OH239016   3.146   6.042   4.347 -0.0065 -0.0836 -0.2448
 5842TIP3    H139017   3.052   6.053   4.359  0.4560  0.7517  4.0514
 5842TIP3    H239018   3.178   6.128   4.320 -0.2667  0.1213  0.0981
 5843TIP3   OH239019   4.864   1.069  11.988 -0.0242  0.4982  0.0726
 5843TIP3    H139020   4.929   1.128  11.951  0.1057  0.7578  0.7069
 5843TIP3    H239021   4.850   1.100  12.077  0.1031 -0.4729  0.4503
 5844TIP3   OH239022   6.058   1.457  16.927  0.0274  0.3539  0.3755
 5844TIP3    H139023   6.133   1.397  16.919 -1.2661 -1.1788 -0.7801
 5844TIP3    H239024   6.096   1.538  16.962  2.0718 -0.6597  0.6509
 5845TIP3   OH239025   0.766   3.218   1.659  0.2678 -0.5935  0.1985
 5845TIP3    H139026   0.845   3.238   1.608 -1.2871  2.0473 -1.3993
 5845TIP3    H239027   0.799   3.193   1.745  2.8872  2.7533  0.3568
 5846TIP3   OH239028   5.167   2.903   3.869 -0.2298 -0.2570 -0.1667
 5846TIP3    H139029   5.185   2.945   3.953  0.6417 -0.2821 -0.3341
 5846TIP3    H239030   5.224   2.826   3.868  0.6124  0.3509 -1.2486
 5847TIP3   OH239031   2.062   5.475  10.515 -0.1155 -0.2839 -0.6156
 5847TIP3    H139032   2.114   5.541  10.561  0.8882 -1.4173 -0.0441
 5847TIP3    H239033   2.127   5.423  10.467 -0.8754 -0.8460 -1.0580
 5848TIP3   OH239034   4.189   3.638  14.096 -0.3634  0.1066  0.0706
 5848TIP3    H139035   4.152   3.556  14.062 -3.7958  1.3806  0.3232
 5848TIP3    H239036   4.220   3.684  14.018 -0.1348 -0.6281 -0.2814
 5849TIP3   OH239037   4.651   3.181  15.340 -0.3465 -0.1302 -0.1417
 5849TIP3    H139038   4.616   3.178  15.251 -1.9366  0.6111  0.4061
 5849TIP3    H239039   4.648   3.274  15.364  1.1702 -0.1631  0.2927
 5850TIP3   OH239040   3.078   5.825  15.836 -0.1199 -0.1279 -0.2730
 5850TIP3    H139041   3.075   5.740  15.879  1.9257 -0.3804 -0.5153
 5850TIP3    H239042   3.171   5.847  15.833 -0.4148  1.1315 -2.1525
 5851TIP3   OH239043   2.259   0.306   3.352 -0.0335 -0.3484 -0.0902
 5851TIP3    H139044   2.169   0.319   3.320 -0.2981 -0.7617  0.4588
 5851TIP3    H239045   2.272   0.211   3.349  0.8705 -0.2128 -1.4120
 5852TIP3   OH239046   2.122   2.865  12.897 -0.5337 -0.5393 -0.2787
 5852TIP3    H139047   2.065   2.900  12.965  0.3648  0.1778  0.1223
 5852TIP3    H239048   2.063   2.825  12.834 -1.5367  0.9260 -0.2985
 5853TIP3   OH239049   4.118   6.322  16.663  0.1671  0.3683 -0.4444
 5853TIP3    H139050   4.042   6.375  16.687 -0.1082  0.2209 -0.9626
 5853TIP3    H239051   4.082   6.249  16.612  0.5791 -0.1166 -0.0623
 5854TIP3   OH239052   6.517   0.985   5.288 -0.2108 -0.6351  0.0569
 5854TIP3    H139053   6.438   1.032   5.314  0.0173 -0.7015  0.8992
 5854TIP3    H239054   6.541   1.023   5.203 -2.0345 -1.7297 -0.9974
 5855TIP3   OH239055   2.821   6.281   4.804  0.2622  0.2529  0.0860
 5855TIP3    H139056   2.901   6.310   4.761  0.3856 -0.9160 -0.4888
 5855TIP3    H239057   2.851   6.219   4.871 -0.1174  0.3337  0.3366
 5856TIP3   OH239058   2.294   5.858  15.613 -0.3678 -0.0130 -0.5692
 5856TIP3    H139059   2.388   5.843  15.623 -0.7777 -2.0028  0.8721
 5856TIP3    H239060   2.275   5.823  15.525  0.2039  0.3100 -0.8331
 5857TIP3   OH239061   6.061   3.373   3.898 -0.3765 -0.3071 -0.0107
 5857TIP3    H139062   6.034   3.347   3.809  0.4188 -1.0561 -0.0448
 5857TIP3    H239063   6.056   3.468   3.898 -0.5214 -0.3078 -0.8173
 5858TIP3   OH239064   4.502   3.824  17.244  0.4538 -0.4864  0.3855
 5858TIP3    H139065   4.470   3.783  17.163  0.9206 -0.5120  0.2066
 5858TIP3    H239066   4.491   3.918  17.230  2.3798 -0.3596 -0.5407
 5859TIP3   OH239067   0.540   6.817   6.010 -0.2154  0.0017 -0.1200
 5859TIP3    H139068   0.609   6.758   6.041 -2.5233 -2.3405  0.9496
 5859TIP3    H239069   0.501   6.852   6.090 -1.1651  0.1587 -0.6464
 5860TIP3   OH239070   2.631   0.546  15.720  0.4732  0.3767 -0.4914
 5860TIP3    H139071   2.641   0.611  15.650 -1.0263  1.5499  0.3310
 5860TIP3    H239072   2.624   0.463  15.675  2.9349  0.6574 -1.5710
 5861TIP3   OH239073   6.390   0.988  14.110 -0.0491 -0.3051  0.4774
 5861TIP3    H139074   6.360   0.913  14.059 -1.6814  0.8111 -0.2917
 5861TIP3    H239075   6.432   0.950  14.187 -2.2950 -2.0306  0.9435
 5862TIP3   OH239076   5.617   4.307   4.719 -0.0345 -0.2321  0.0551
 5862TIP3    H139077   5.616   4.343   4.630  1.0753 -0.4299 -0.0591
 5862TIP3    H239078   5.581   4.219   4.710 -0.1048 -0.1802 -0.1704
 5863TIP3   OH239079   1.663   4.307  11.593  0.2463 -0.0466  0.0805
 5863TIP3    H139080   1.614   4.326  11.672  0.7520  1.6162  0.0283
 5863TIP3    H239081   1.755   4.320  11.618  0.4489 -0.0911 -0.6209
 5864TIP3   OH239082   5.887   1.513   3.098 -0.2921 -0.5431  0.6392
 5864TIP3    H139083   5.902   1.420   3.083 -1.9431 -0.9545  1.2918
 5864TIP3    H239084   5.838   1.517   3.180 -0.3923  0.8872  0.5406
 5865TIP3   OH239085   0.845   2.186   4.662 -0.2511  0.5683  0.2531
 5865TIP3    H139086   0.823   2.182   4.569 -0.5449  3.4976  0.0788
 5865TIP3    H239087   0.781   2.247   4.699  2.3947  2.8493  1.4494
 5866TIP3   OH239088   2.465   1.186  15.996 -0.0870  0.4156 -0.1267
 5866TIP3    H139089   2.420   1.246  15.937 -0.7481 -0.2987 -0.3573
 5866TIP3    H239090   2.421   1.197  16.080  1.3683  2.0254  0.4969
 5867TIP3   OH239091   0.756   6.490  12.388 -0.5446  0.3422 -0.4968
 5867TIP3    H139092   0.684   6.527  12.438 -1.5911 -0.7761 -1.1040
 5867TIP3    H239093   0.830   6.547  12.406 -1.1443  0.5687  1.4766
 5868TIP3   OH239094   5.050   1.355   6.079 -0.2268  0.3108 -0.8582
 5868TIP3    H139095   5.011   1.268   6.079  1.0251 -0.3048  1.0403
 5868TIP3    H239096   4.997   1.405   6.142  1.1361 -0.1354  0.6964
 5869TIP3   OH239097   5.192   2.309   2.479 -0.2862 -0.0120 -0.6645
 5869TIP3    H139098   5.246   2.359   2.540 -0.9895  1.7710 -1.4355
 5869TIP3    H239099   5.114   2.285   2.529 -0.6491  1.0405 -0.7077
 5870TIP3   OH239100   0.453   2.406   3.666  0.2949 -0.6792 -0.5699
 5870TIP3    H139101   0.423   2.336   3.608  0.6747 -0.3280 -1.2030
 5870TIP3    H239102   0.377   2.465   3.674  0.4168 -0.4286 -1.1832
 5871TIP3   OH239103   5.121   2.030   5.536 -0.5390 -0.5024 -0.0239
 5871TIP3    H139104   5.049   1.971   5.555 -1.4467  0.1309 -1.3678
 5871TIP3    H239105   5.183   1.977   5.486 -0.3997 -0.8438  0.4987
 5872TIP3   OH239106   4.372   3.033  12.070  0.1238  0.0966 -0.2525
 5872TIP3    H139107   4.298   2.981  12.038 -2.3338  2.3650  1.2335
 5872TIP3    H239108   4.380   3.105  12.007  0.6779  0.1768 -0.0979
 5873TIP3   OH239109   6.161   5.632   1.581  0.0467 -0.2712  0.4787
 5873TIP3    H139110   6.099   5.610   1.651 -1.8716  3.6090  0.3003
 5873TIP3    H239111   6.108   5.629   1.501  0.9150  0.1444 -0.1268
 5874TIP3   OH239112   6.562   5.731   2.581 -0.3791 -0.2982  0.6523
 5874TIP3    H139113   6.523   5.816   2.598  0.3979  0.5029 -1.3126
 5874TIP3    H239114   6.497   5.668   2.613 -1.6371  1.0128  0.7560
 5875TIP3   OH239115   1.896   1.801   0.431 -0.3486 -0.7440  0.1591
 5875TIP3    H139116   1.866   1.884   0.468  1.8670  0.2569 -0.1073
 5875TIP3    H239117   1.843   1.789   0.352  1.2804  2.0474 -1.5018
 5876TIP3   OH239118   5.232   4.967   3.189 -0.6262  0.7371  0.0788
 5876TIP3    H139119   5.167   4.903   3.162 -0.7632  0.2555  1.5116
 5876TIP3    H239120   5.291   4.974   3.114  0.8743 -2.9782  0.7163
 5877TIP3   OH239121   5.856   2.991   0.794 -0.4307  0.2001  0.3990
 5877TIP3    H139122   5.939   3.035   0.815 -0.4899  0.2609  0.5113
 5877TIP3    H239123   5.881   2.913   0.745 -0.4226  1.3033 -1.4310
 5878TIP3   OH239124   4.879   5.983   5.067 -0.1079  0.5026  0.0341
 5878TIP3    H139125   4.852   6.004   5.156 -1.4321 -3.2852  0.6902
 5878TIP3    H239126   4.967   5.946   5.077 -0.8419 -1.3415  0.0810
 5879TIP3   OH239127   3.788   3.542   3.382  0.6679 -0.2954  0.4296
 5879TIP3    H139128   3.778   3.583   3.296  0.5549 -1.2801 -0.0411
 5879TIP3    H239129   3.883   3.545   3.398  0.9047 -1.5726 -0.5028
 5880TIP3   OH239130   0.550   2.852   1.119  0.3233 -0.0298  0.3667
 5880TIP3    H139131   0.478   2.813   1.169 -0.0220 -0.5687 -0.5316
 5880TIP3    H239132   0.560   2.939   1.157 -0.8495  0.0812  0.4831
 5881TIP3   OH239133   1.655   2.263   6.117  0.2357 -0.4086 -0.2591
 5881TIP3    H139134   1.671   2.357   6.128 -0.9841  0.0999 -2.2272
 5881TIP3    H239135   1.697   2.222   6.192  1.0447  1.6891  0.4995
 5882TIP3   OH239136   2.394   1.620  16.357  0.1341 -0.5777  0.2855
 5882TIP3    H139137   2.358   1.565  16.427  0.0120 -0.8178  0.0333
 5882TIP3    H239138   2.421   1.700  16.402 -1.2558 -0.1353  0.3936
 5883TIP3   OH239139   5.616   3.222   6.477 -0.2897  0.0609 -0.0209
 5883TIP3    H139140   5.657   3.296   6.521  0.4295 -0.5823  0.4119
 5883TIP3    H239141   5.572   3.261   6.401  1.3992  0.7606 -0.6981
 5884TIP3   OH239142   6.549   0.715   3.314  0.1599  0.4838 -0.2002
 5884TIP3    H139143   6.517   0.678   3.397  0.2575 -1.1082 -0.8450
 5884TIP3    H239144   6.485   0.783   3.293 -1.3186 -0.8038 -0.0895
 5885TIP3   OH239145   1.863   5.455   2.684 -0.3045  0.2307  0.3561
 5885TIP3    H139146   1.793   5.464   2.749 -0.0902 -0.5505  0.7161
 5885TIP3    H239147   1.941   5.487   2.729 -0.4466  1.2361 -0.0942
 5886TIP3   OH239148   5.381   4.586   6.100 -0.0831 -0.1149  0.3424
 5886TIP3    H139149   5.460   4.610   6.148  0.2122  0.4392 -0.4068
 5886TIP3    H239150   5.312   4.641   6.138  0.4169  1.3498 -0.7678
 5887TIP3   OH239151   2.866   0.824  15.938  0.0398 -0.2956  0.6462
 5887TIP3    H139152   2.939   0.876  15.904  0.7026 -1.2395  0.5817
 5887TIP3    H239153   2.788   0.873  15.914  0.6573  0.9264  1.0313
 5888TIP3   OH239154   3.588   6.449  14.067  0.0846  0.0424 -0.6268
 5888TIP3    H139155   3.612   6.360  14.092 -0.4677  0.0023 -0.2073
 5888TIP3    H239156   3.670   6.498  14.071  0.1971 -0.1999  0.2809
 5889TIP3   OH239157   3.187   0.191  15.253  0.4616  0.0613  0.1356
 5889TIP3    H139158   3.138   0.168  15.332 -0.3946 -0.4201 -0.5055
 5889TIP3    H239159   3.192   0.109  15.203  0.6669  0.4353 -0.4736
 5890TIP3   OH239160   2.408   1.860  16.473 -0.2300 -0.4620 -0.1663
 5890TIP3    H139161   2.325   1.898  16.443  0.3695  1.7986  0.7931
 5890TIP3    H239162   2.441   1.923  16.536  2.0766 -1.4741 -0.2765
 5891TIP3   OH239163   1.566   0.214  15.503  0.5428  0.6163  0.1856
 5891TIP3    H139164   1.567   0.133  15.553  0.2410  0.3371 -0.2587
 5891TIP3    H239165   1.538   0.188  15.415 -0.6493  1.3604  0.3230
 5892TIP3   OH239166   5.904   0.492  14.894 -0.2891 -0.0029  0.7879
 5892TIP3    H139167   5.893   0.493  14.989  0.2098  0.9628  0.8526
 5892TIP3    H239168   5.957   0.414  14.876 -0.6656 -0.3697  1.2607
 5893TIP3   OH239169   3.405   0.366  14.493 -0.8864  0.3487 -0.6337
 5893TIP3    H139170   3.399   0.302  14.564  0.3436  0.9034 -0.0041
 5893TIP3    H239171   3.395   0.315  14.413  1.0020 -0.7971 -0.1814
 5894TIP3   OH239172   6.082   6.333   1.480  0.5530 -0.0655  0.3989
 5894TIP3    H139173   6.035   6.325   1.397  1.6187  0.1069 -0.2441
 5894TIP3    H239174   6.021   6.376   1.539 -0.2758 -0.3272 -0.2484
 5895TIP3   OH239175   3.623   5.979  15.885  0.0343 -0.5377 -0.4104
 5895TIP3    H139176   3.640   5.996  15.978 -1.7112  0.8300 -0.2944
 5895TIP3    H239177   3.544   5.925  15.884 -0.2325 -0.1472 -1.1119
 5896TIP3   OH239178   5.145   4.354  13.191  0.3106  0.2318  0.2489
 5896TIP3    H139179   5.201   4.332  13.266  0.6025  0.6554  0.1624
 5896TIP3    H239180   5.145   4.275  13.137  1.1331  0.3452  0.0662
 5897TIP3   OH239181   0.732   4.043   4.194  0.1762 -0.1548 -0.6718
 5897TIP3    H139182   0.663   4.000   4.143  0.6019 -2.0552  0.2723
 5897TIP3    H239183   0.757   4.118   4.140 -1.3836 -0.4218 -1.8742
 5898TIP3   OH239184   5.021   3.020   1.737 -0.2399 -0.1826 -0.3765
 5898TIP3    H139185   4.964   3.093   1.762 -0.5263  0.0248 -1.5977
 5898TIP3    H239186   5.021   2.963   1.814 -0.7922  0.6175  0.2375
 5899TIP3   OH239187   0.585   0.697  12.593  0.3636  0.1470  0.3942
 5899TIP3    H139188   0.544   0.612  12.574  1.1993 -0.5620  1.6513
 5899TIP3    H239189   0.515   0.748  12.634  0.2532 -0.4697  0.9944
 5900TIP3   OH239190   2.804   1.697  13.987  0.1293 -0.8023  0.1177
 5900TIP3    H139191   2.751   1.640  14.042  0.5133 -0.8689  0.4284
 5900TIP3    H239192   2.763   1.694  13.901  0.0031 -1.3488  0.1978
 5901TIP3   OH239193   4.324   6.001   0.744  0.6428  0.1486  0.1492
 5901TIP3    H139194   4.380   6.042   0.809  0.4109  0.1382  0.3573
 5901TIP3    H239195   4.364   5.916   0.727  0.8835  0.2854  0.0378
 5902TIP3   OH239196   1.952   4.352   5.022 -0.3250  0.3860 -0.2263
 5902TIP3    H139197   2.019   4.307   5.074 -0.2914  0.9031  0.1830
 5902TIP3    H239198   2.002   4.405   4.960 -0.3596 -0.7422 -1.2653
 5903TIP3   OH239199   1.972   4.710  15.810 -0.7048  0.5411 -0.4091
 5903TIP3    H139200   1.897   4.711  15.869 -0.1146 -1.6657  0.4867
 5903TIP3    H239201   1.933   4.711  15.722 -1.9298 -1.8360  0.0171
 5904TIP3   OH239202   0.985   2.836   5.393  0.3896  1.3169 -0.2237
 5904TIP3    H139203   1.080   2.832   5.382  0.4017  2.6365 -0.7074
 5904TIP3    H239204   0.951   2.810   5.308  0.2988  0.4942  0.0560
 5905TIP3   OH239205   2.418   4.246   0.970 -0.2784  0.2888 -0.4823
 5905TIP3    H139206   2.503   4.201   0.974 -1.2002 -1.4670  0.4736
 5905TIP3    H239207   2.437   4.334   1.002  1.2407  0.0157 -0.5330
 5906TIP3   OH239208   2.375   4.694   1.625  0.2997  0.1217 -0.1163
 5906TIP3    H139209   2.396   4.640   1.548 -2.1557  0.4705 -1.1256
 5906TIP3    H239210   2.376   4.784   1.592  0.0065  0.3421  0.4711
 5907TIP3   OH239211   6.481   3.221   0.053  0.1370  0.0049  0.1091
 5907TIP3    H139212   6.501   3.174   0.134 -0.5399  1.5148  1.2064
 5907TIP3    H239213   6.434   3.299   0.082 -0.4443  0.4101 -1.7828
 5908TIP3   OH239214   4.079   1.848   3.143 -0.0187 -0.0444 -0.0346
 5908TIP3    H139215   4.057   1.804   3.225  0.7765 -0.2023  0.1014
 5908TIP3    H239216   4.011   1.915   3.132 -1.6666 -1.7192 -0.5998
 5909TIP3   OH239217   0.407   6.557  14.194  0.2512  0.1205  0.5671
 5909TIP3    H139218   0.399   6.628  14.258  1.0028 -1.0686  2.0547
 5909TIP3    H239219   0.484   6.579  14.142  2.6681 -1.1807  3.2769
 5910TIP3   OH239220   0.243   5.307   3.964  0.8093  0.0397 -0.0475
 5910TIP3    H139221   0.250   5.236   3.900  1.4871  0.2593 -0.2290
 5910TIP3    H239222   0.225   5.385   3.911 -1.9590 -0.2727  0.2967
 5911TIP3   OH239223   0.157   2.213   5.843  0.1138  0.1335 -0.1179
 5911TIP3    H139224   0.076   2.264   5.846 -0.2898 -0.2516 -2.3355
 5911TIP3    H239225   0.129   2.122   5.844  0.5161 -0.0063 -0.7621
 5912TIP3   OH239226   1.426   3.585   0.139  0.5359 -0.5152 -0.3914
 5912TIP3    H139227   1.416   3.678   0.120 -0.0386 -0.3058  0.8077
 5912TIP3    H239228   1.457   3.546   0.058  0.6427  0.7043 -0.9440
 5913TIP3   OH239229   6.179   2.651   2.949  0.0198  0.4362 -0.1339
 5913TIP3    H139230   6.185   2.632   2.855 -0.0624 -0.3956  0.0202
 5913TIP3    H239231   6.256   2.704   2.968  0.9758 -0.8274 -0.3406
 5914TIP3   OH239232   2.092   6.001   1.953  0.5636 -0.6850  0.1673
 5914TIP3    H139233   2.123   5.943   1.884  1.2785  0.8026 -0.8286
 5914TIP3    H239234   2.001   6.019   1.930  0.0109 -2.1987  1.0677
 5915TIP3   OH239235   3.807   4.809  11.901  0.0189  0.7597 -0.1866
 5915TIP3    H139236   3.717   4.839  11.892 -0.1709  0.4503  0.5218
 5915TIP3    H239237   3.852   4.880  11.946 -0.0231  0.6809 -0.0156
 5916TIP3   OH239238   3.663   3.145  16.957 -0.1144  0.4694 -0.3272
 5916TIP3    H139239   3.681   3.148  17.051  1.2891  0.2052 -0.5632
 5916TIP3    H239240   3.598   3.213  16.942 -0.2412  0.6108  0.8069
 5917TIP3   OH239241   2.689   2.235   1.496  0.4363  0.4470 -0.6100
 5917TIP3    H139242   2.736   2.155   1.515 -0.4883  0.4080  1.8627
 5917TIP3    H239243   2.597   2.209   1.489  0.3713  0.9737 -2.2046
 5918TIP3   OH239244   4.347   1.465   5.748 -0.4141 -0.0368 -0.1315
 5918TIP3    H139245   4.415   1.469   5.816 -0.5431  0.9687 -0.0504
 5918TIP3    H239246   4.382   1.517   5.676 -0.5472 -0.5885 -0.5999
 5919TIP3   OH239247   3.113   6.545   3.805  0.0385 -0.4135 -0.0104
 5919TIP3    H139248   3.043   6.581   3.860 -0.5404  2.4050 -2.3227
 5919TIP3    H239249   3.190   6.597   3.826 -0.0446  0.3017 -1.3432
 5920TIP3   OH239250   4.030   6.713  10.458 -0.5138  0.1346 -0.1089
 5920TIP3    H139251   4.032   6.807  10.480 -0.5646  0.1275 -0.0752
 5920TIP3    H239252   3.946   6.700  10.416  0.1023  0.4092 -1.4707
 5921TIP3   OH239253   1.595   5.568   3.732 -0.4397  0.6537  0.1487
 5921TIP3    H139254   1.518   5.602   3.777 -1.3899  0.5429 -1.3130
 5921TIP3    H239255   1.634   5.645   3.690 -0.4500  0.5202 -0.1062
 5922TIP3   OH239256   1.131   0.186  15.334  0.0581 -0.4812  0.5270
 5922TIP3    H139257   1.135   0.231  15.250  1.0167 -0.6057  0.5021
 5922TIP3    H239258   1.131   0.256  15.399  0.4409 -0.4126  0.4551
 5923TIP3   OH239259   4.753   4.140  16.895  0.0944 -0.2893 -0.5654
 5923TIP3    H139260   4.728   4.232  16.895  0.3068 -0.2170 -1.4934
 5923TIP3    H239261   4.810   4.130  16.970  0.2618  0.3929 -0.5991
 5924TIP3   OH239262   1.194   1.138  14.080 -0.4250  0.2177  0.6464
 5924TIP3    H139263   1.124   1.189  14.039  0.1594 -0.1821 -0.9421
 5924TIP3    H239264   1.215   1.071  14.015 -0.1301 -1.1069  2.0454
 5925TIP3   OH239265   0.763   0.257   0.116  0.1019 -0.4288  0.2848
 5925TIP3    H139266   0.831   0.319   0.090 -2.9226  3.1239  0.0571
 5925TIP3    H239267   0.787   0.230   0.205  0.8800  2.2698  0.9810
 5926TIP3   OH239268   1.234   0.973   0.696 -0.1246  0.5070  0.6446
 5926TIP3    H139269   1.310   0.941   0.648 -0.9584  0.9037 -0.9960
 5926TIP3    H239270   1.270   1.031   0.763  1.0344  0.4372  0.0999
 5927TIP3   OH239271   6.592   2.313   2.765  0.2419  0.3978  0.1066
 5927TIP3    H139272   6.589   2.311   2.670 -0.5185  1.4467  0.0917
 5927TIP3    H239273   6.608   2.405   2.787  1.5239 -0.0051  0.9824
 5928TIP3   OH239274   5.968   3.230  15.906  0.2956  0.1380 -0.0329
 5928TIP3    H139275   5.933   3.288  15.974  1.0934  0.8603 -0.2173
 5928TIP3    H239276   5.893   3.212  15.849 -0.7946 -1.7519  1.8615
 5929TIP3   OH239277   5.540   6.012  16.541  0.5505  0.0176  0.1322
 5929TIP3    H139278   5.516   5.957  16.467  0.4181 -0.6363  0.6550
 5929TIP3    H239279   5.505   5.967  16.618  1.0917  0.4392  0.6412
 5930TIP3   OH239280   3.850   6.022  15.100 -0.3708 -0.6104  0.5633
 5930TIP3    H139281   3.886   6.043  15.186 -1.3329 -0.3599  0.9197
 5930TIP3    H239282   3.926   5.999  15.047  0.3257  0.0722  1.2409
 5931TIP3   OH239283   2.875   1.385   3.716 -0.1909  0.1857  0.4442
 5931TIP3    H139284   2.940   1.344   3.772 -2.3599 -2.0400  1.4900
 5931TIP3    H239285   2.871   1.329   3.638 -1.7482 -0.5155  0.9858
 5932TIP3   OH239286   4.774   0.476  15.913  0.1801  0.2097  0.2581
 5932TIP3    H139287   4.718   0.440  15.844 -0.2424 -1.0085  1.1927
 5932TIP3    H239288   4.724   0.551  15.947  0.8919  1.5279 -1.4462
 5933TIP3   OH239289   5.891   5.847   0.561  0.1974 -0.3950 -0.2854
 5933TIP3    H139290   5.817   5.893   0.521 -0.0006 -1.1570 -0.8027
 5933TIP3    H239291   5.866   5.755   0.559  1.1129 -0.6486 -0.3538
 5934TIP3   OH239292   0.982   1.567  12.555  0.1916 -0.2321 -0.1140
 5934TIP3    H139293   0.937   1.542  12.474 -1.2837 -1.0316  0.9130
 5934TIP3    H239294   0.912   1.594  12.614  1.3071  0.9858  0.6925
 5935TIP3   OH239295   4.808   5.068   6.381  0.1598  0.1828 -0.3980
 5935TIP3    H139296   4.781   4.990   6.430  1.6334  0.0765  0.3253
 5935TIP3    H239297   4.742   5.079   6.313 -0.4102 -1.3421 -0.1219
 5936TIP3   OH239298   3.388   2.336  15.755  0.2322  0.2761  0.1087
 5936TIP3    H139299   3.421   2.386  15.679  0.6509  0.1720  0.2188
 5936TIP3    H239300   3.435   2.253  15.750 -1.2356 -0.5355 -0.6765
 5937TIP3   OH239301   0.594   6.608   2.886  0.0675 -0.1787 -0.4025
 5937TIP3    H139302   0.502   6.611   2.909  0.3635  0.3858  0.7638
 5937TIP3    H239303   0.622   6.700   2.883  0.3092 -0.2731 -1.9941
 5938TIP3   OH239304   2.350   2.192  16.064 -0.0743 -0.1239 -0.2972
 5938TIP3    H139305   2.304   2.276  16.067  0.2392  0.0063  1.2717
 5938TIP3    H239306   2.368   2.179  15.971  0.5456  1.9247 -0.5297
 5939TIP3   OH239307   2.872   6.195   2.508  0.2117  0.1336  0.4639
 5939TIP3    H139308   2.786   6.191   2.466  1.1420 -0.5073 -1.5069
 5939TIP3    H239309   2.905   6.106   2.503  0.6478  0.1730  2.0644
 5940TIP3   OH239310   1.879   2.439   0.427 -0.2513 -0.1008 -0.2218
 5940TIP3    H139311   1.836   2.494   0.361  0.4125  1.5031  0.6129
 5940TIP3    H239312   1.811   2.379   0.456 -0.8505 -0.1217 -1.5865
 5941TIP3   OH239313   4.267   0.987  16.338 -0.2742 -0.4686  0.2998
 5941TIP3    H139314   4.253   1.070  16.384 -1.1823 -0.1763 -0.4931
 5941TIP3    H239315   4.289   0.925  16.408  0.6635  0.4838  0.8700
 5942TIP3   OH239316   3.307   1.281   3.757 -0.2390 -0.4595 -0.0082
 5942TIP3    H139317   3.300   1.239   3.671 -1.3600 -2.3861  0.9571
 5942TIP3    H239318   3.402   1.290   3.771  0.0391 -2.0886 -0.5689
 5943TIP3   OH239319   5.519   2.859   4.150  0.2333  0.6215  0.0337
 5943TIP3    H139320   5.526   2.786   4.211  2.3063 -0.7913 -1.7389
 5943TIP3    H239321   5.449   2.833   4.090 -0.5600  1.1655  0.7072
 5944TIP3   OH239322   4.281   3.147   3.655  0.2623 -0.0786  0.2268
 5944TIP3    H139323   4.346   3.087   3.692 -1.5572 -1.1196  1.8979
 5944TIP3    H239324   4.232   3.094   3.592 -0.7255 -0.1143  1.0011
 5945TIP3   OH239325   6.585   5.531  16.253  0.2411  0.1390 -0.2985
 5945TIP3    H139326   6.620   5.620  16.253  2.3656 -0.6180  0.4786
 5945TIP3    H239327   6.660   5.476  16.230 -0.6206 -1.5721  0.7417
 5946TIP3   OH239328   3.206   3.015  11.740 -0.0277 -0.5133  0.5139
 5946TIP3    H139329   3.235   3.005  11.650 -0.7790 -2.3851  0.4438
 5946TIP3    H239330   3.283   2.996  11.793  0.9602  2.4740  0.3353
 5947TIP3   OH239331   3.814   4.811   1.967 -0.1517 -0.1034 -0.2802
 5947TIP3    H139332   3.902   4.773   1.957  0.2044  0.8286 -0.7900
 5947TIP3    H239333   3.769   4.786   1.886 -0.8437 -1.7618  0.5613
 5948TIP3   OH239334   1.568   6.540  16.926 -0.4725  0.2007 -0.1280
 5948TIP3    H139335   1.495   6.527  16.986  0.4898 -0.3510  0.9570
 5948TIP3    H239336   1.637   6.483  16.959  0.3384  0.4359 -1.3401
 5949TIP3   OH239337   4.623   1.971  12.352 -0.1572  0.3647 -0.0833
 5949TIP3    H139338   4.573   1.917  12.291 -0.7893  1.6233 -0.7266
 5949TIP3    H239339   4.676   1.909  12.402 -0.8858 -0.8341 -0.7566
 5950TIP3   OH239340   1.989   2.980  16.870  0.8150  0.1246 -0.2943
 5950TIP3    H139341   2.064   2.974  16.811  0.6391  1.8519 -0.7311
 5950TIP3    H239342   1.918   3.016  16.816 -0.4043 -1.5918  0.0758
 5951TIP3   OH239343   0.780   6.321  15.859  0.7808  0.1742 -0.0571
 5951TIP3    H139344   0.690   6.289  15.848  0.6884  0.8492 -1.4063
 5951TIP3    H239345   0.789   6.390  15.795  2.0102  0.7106  0.6644
 5952TIP3   OH239346   1.481   1.526  10.316 -0.0195 -0.2260  0.1574
 5952TIP3    H139347   1.418   1.455  10.305  0.7827 -1.0790  0.8239
 5952TIP3    H239348   1.464   1.559  10.405 -0.1719  0.1900 -0.0268
 5953TIP3   OH239349   1.169   0.820   4.099 -0.4678  0.3722  0.1799
 5953TIP3    H139350   1.118   0.828   4.018  0.3181 -0.7292 -0.4560
 5953TIP3    H239351   1.238   0.886   4.090 -0.4926  0.3793  0.0388
 5954TIP3   OH239352   2.124   3.933  12.903  0.4802 -0.0093 -0.6904
 5954TIP3    H139353   2.084   3.883  12.975  3.0030 -1.5766 -0.2542
 5954TIP3    H239354   2.073   3.909  12.826 -0.6967 -0.2848  0.1518
 5955TIP3   OH239355   0.555   4.623  10.960 -0.4150  0.1591 -0.5899
 5955TIP3    H139356   0.491   4.666  10.904  1.0994 -0.1239 -2.6366
 5955TIP3    H239357   0.638   4.633  10.914  0.7734 -0.8004  1.2361
 5956TIP3   OH239358   3.890   5.492  10.790 -0.1443  0.4315 -0.2817
 5956TIP3    H139359   3.954   5.542  10.740  0.5737 -0.1602  0.0371
 5956TIP3    H239360   3.825   5.557  10.817 -0.2233  0.8718 -1.4445
 5957TIP3   OH239361   2.960   0.389   1.394  0.5758 -0.2335  0.2700
 5957TIP3    H139362   2.898   0.343   1.337  1.1782 -1.6921  0.7353
 5957TIP3    H239363   3.045   0.370   1.356  0.7814  1.8398 -0.4246
 5958TIP3   OH239364   1.006   6.460  16.993  0.2305  0.0330  1.0510
 5958TIP3    H139365   1.015   6.551  16.963 -0.7049 -0.6102 -1.4539
 5958TIP3    H239366   0.962   6.467  17.077 -0.5253  1.9082  0.5522
 5959TIP3   OH239367   0.888   1.379   2.529 -0.3533 -0.0777 -0.5167
 5959TIP3    H139368   0.836   1.447   2.485 -1.5397 -0.4332  0.2885
 5959TIP3    H239369   0.927   1.424   2.604 -1.4149 -0.3310  0.2126
 5960TIP3   OH239370   4.731   3.139  14.261 -0.4191  0.5026 -0.4330
 5960TIP3    H139371   4.823   3.165  14.251 -0.2471  0.0113 -0.1493
 5960TIP3    H239372   4.714   3.080  14.187 -0.5004  0.5771 -0.4741
 5961TIP3   OH239373   3.178   1.621  16.594 -0.4922  0.0934  0.3567
 5961TIP3    H139374   3.240   1.667  16.537 -1.1007  1.2554  0.6005
 5961TIP3    H239375   3.185   1.529  16.567  0.0706  0.4509 -0.7944
 5962TIP3   OH239376   0.673   4.579  12.082  0.4658  0.4126  0.4487
 5962TIP3    H139377   0.739   4.526  12.127  1.1281 -0.2170 -1.2093
 5962TIP3    H239378   0.716   4.664  12.070  0.5749  0.3376  0.3087
 5963TIP3   OH239379   4.951   4.579  10.931  0.2480  0.8312  0.0797
 5963TIP3    H139380   5.009   4.636  10.879 -0.1409  2.0288  0.9081
 5963TIP3    H239381   4.867   4.624  10.929 -0.1280  0.1631  0.5920
 5964TIP3   OH239382   4.741   3.318   6.086  0.1987 -0.3732 -0.3747
 5964TIP3    H139383   4.646   3.330   6.092  0.1629 -0.3466 -0.8913
 5964TIP3    H239384   4.764   3.353   6.000  0.7638  0.1187 -0.0322
 5965TIP3   OH239385   3.021   2.885  16.936  0.2270  0.5289  0.2565
 5965TIP3    H139386   3.011   2.828  16.859 -1.2946  0.8379  0.1932
 5965TIP3    H239387   3.084   2.839  16.991 -0.3839 -0.8747 -0.1437
 5966TIP3   OH239388   3.151   2.188   0.257 -0.1155 -0.1779  0.6814
 5966TIP3    H139389   3.159   2.280   0.230 -1.2002 -0.5938 -1.2540
 5966TIP3    H239390   3.238   2.165   0.288  0.2027  1.4660  1.1463
 5967TIP3   OH239391   0.762   2.565  13.403 -0.2190 -0.5578  0.1541
 5967TIP3    H139392   0.774   2.590  13.495  2.1586 -0.3347 -0.1625
 5967TIP3    H239393   0.777   2.646  13.354 -3.2545 -0.2308 -0.4329
 5968TIP3   OH239394   4.886   1.838   6.057  0.1239  0.0624 -0.2392
 5968TIP3    H139395   4.960   1.778   6.046  0.2671  0.4707 -1.6757
 5968TIP3    H239396   4.864   1.831   6.150  1.9237 -0.1079  0.2214
 5969TIP3   OH239397   1.401   3.428   6.016  0.0647  0.2161 -0.2320
 5969TIP3    H139398   1.466   3.482   5.971 -1.0746  0.8663 -1.1707
 5969TIP3    H239399   1.323   3.433   5.960 -0.5222 -1.2664  0.3965
 5970TIP3   OH239400   1.997   1.419  10.763 -0.4175 -0.6004 -0.1578
 5970TIP3    H139401   2.009   1.377  10.678  2.1306  1.6180 -1.0754
 5970TIP3    H239402   2.082   1.460  10.780 -0.6994 -1.3052  3.7159
 5971TIP3   OH239403   4.678   5.849   4.923 -0.3728 -0.4785  0.5260
 5971TIP3    H139404   4.738   5.902   4.976 -1.1851 -1.3888  2.4796
 5971TIP3    H239405   4.735   5.792   4.871  0.4756 -0.4384  1.3848
 5972TIP3   OH239406   2.980   2.899   0.086  0.3815  0.3939  0.1661
 5972TIP3    H139407   2.902   2.865   0.129  0.5716 -0.8687 -0.4543
 5972TIP3    H239408   3.026   2.822   0.055  0.5370  1.2271 -1.8206
 5973TIP3   OH239409   6.711   2.987  11.252  0.0297  0.1909  0.5021
 5973TIP3    H139410   6.678   3.076  11.238 -0.4895 -0.1986 -1.0074
 5973TIP3    H239411   6.723   2.953  11.163 -1.5999 -1.8896  1.0194
 5974TIP3   OH239412   0.223   4.493   5.569 -0.6302  0.5816 -0.5395
 5974TIP3    H139413   0.293   4.488   5.505  0.7535 -0.8015  0.9900
 5974TIP3    H239414   0.209   4.403   5.597 -0.9699  1.1657  1.3090
 5975TIP3   OH239415   4.588   3.672   0.199 -0.0648 -0.0655  0.7927
 5975TIP3    H139416   4.601   3.758   0.159 -2.5248 -0.2967 -0.7104
 5975TIP3    H239417   4.526   3.688   0.270  0.4535 -0.4204  1.3315
 5976TIP3   OH239418   5.676   4.957   0.173 -0.2099 -0.4330  0.1439
 5976TIP3    H139419   5.753   4.901   0.179  0.4063  0.3632 -0.1022
 5976TIP3    H239420   5.711   5.045   0.161 -1.1303  0.2136  1.8513
 5977TIP3   OH239421   6.133   4.850   3.953 -0.3068 -0.9490  0.0842
 5977TIP3    H139422   6.162   4.759   3.964  1.0466 -0.3792  1.5087
 5977TIP3    H239423   6.048   4.853   3.996 -0.0847 -1.3977  0.5569
 5978TIP3   OH239424   4.500   4.911  13.092 -0.3775  0.3775 -0.2140
 5978TIP3    H139425   4.500   4.824  13.051 -0.2712  0.6534 -0.8192
 5978TIP3    H239426   4.420   4.912  13.144 -0.9017  0.2671 -0.9874
 5979TIP3   OH239427   3.530   2.623   6.030 -0.2941  0.0202 -0.0759
 5979TIP3    H139428   3.554   2.646   6.120  0.0820 -0.9935  0.0900
 5979TIP3    H239429   3.434   2.632   6.028 -0.1642  1.9261 -0.1338
 5980TIP3   OH239430   0.414   5.344  12.887  0.1944 -0.0308  0.5195
 5980TIP3    H139431   0.408   5.326  12.793 -2.7951 -2.2516  0.9813
 5980TIP3    H239432   0.505   5.327  12.909  0.9567  0.4316 -1.9074
 5981TIP3   OH239433   2.847   3.586  14.600 -0.2825 -0.0357 -0.4055
 5981TIP3    H139434   2.903   3.655  14.564 -1.8432  0.0460 -2.8943
 5981TIP3    H239435   2.907   3.514  14.621  1.0235  1.0275 -0.4088
 5982TIP3   OH239436   1.514   6.256  11.671  0.2880 -0.4361  0.5656
 5982TIP3    H139437   1.470   6.172  11.662  0.4521 -0.3983 -0.8268
 5982TIP3    H239438   1.531   6.284  11.581 -2.6147  2.6299  0.7910
 5983TIP3   OH239439   0.487   6.696   1.776  0.2810 -0.0091  0.2501
 5983TIP3    H139440   0.545   6.681   1.701 -0.6744  0.4714 -0.6117
 5983TIP3    H239441   0.417   6.750   1.741 -3.5983 -4.6578 -0.2106
 5984TIP3   OH239442   6.538   6.013  14.294  0.0671 -0.0516  0.3447
 5984TIP3    H139443   6.580   5.927  14.298 -1.7521 -0.9531  1.0461
 5984TIP3    H239444   6.546   6.048  14.383 -0.7308 -0.2736  0.5093
 5985TIP3   OH239445   6.019   3.687   2.748  0.0876 -0.1275  0.2296
 5985TIP3    H139446   5.927   3.708   2.761 -0.1995 -1.4100  0.3317
 5985TIP3    H239447   6.064   3.770   2.763 -1.0797  0.6461 -0.3270
 5986TIP3   OH239448   0.597   2.396  13.261  0.3090  0.2408 -0.6540
 5986TIP3    H139449   0.660   2.468  13.269 -0.8111  1.2365 -0.5503
 5986TIP3    H239450   0.573   2.376  13.352 -0.1645  0.4670 -0.7242
 5987TIP3   OH239451   2.188   5.556  14.025  0.0084  0.0146 -0.4938
 5987TIP3    H139452   2.150   5.472  14.000  0.9798 -0.8222  0.7264
 5987TIP3    H239453   2.112   5.611  14.047 -0.5875 -1.2428  0.7454
 5988TIP3   OH239454   1.931   5.562   2.123 -0.5910  0.4867  0.3136
 5988TIP3    H139455   1.977   5.548   2.040 -0.1508  0.6311  0.5311
 5988TIP3    H239456   1.982   5.513   2.188 -1.8484 -1.0181  0.2431
 5989TIP3   OH239457   6.573   5.675  11.577  0.5648  0.1126  0.0561
 5989TIP3    H139458   6.608   5.699  11.491 -1.9480 -0.0248 -1.0907
 5989TIP3    H239459   6.550   5.583  11.569 -0.9409  0.4279  0.3704
 5990TIP3   OH239460   2.905   5.334   4.494 -0.4490 -0.0966  0.2580
 5990TIP3    H139461   2.940   5.256   4.536  0.5083  0.5329  0.6861
 5990TIP3    H239462   2.942   5.333   4.406 -0.8038 -0.3584  0.1111
 5991TIP3   OH239463   5.318   4.624   1.750  0.2970  0.0368  0.0280
 5991TIP3    H139464   5.292   4.658   1.836  1.7114 -1.0087  0.9001
 5991TIP3    H239465   5.410   4.602   1.759  0.1546 -1.3388 -1.3517
 5992TIP3   OH239466   0.307   1.116  12.448 -0.2280 -0.1401 -0.6159
 5992TIP3    H139467   0.364   1.162  12.387 -0.3618  0.6845 -0.1447
 5992TIP3    H239468   0.356   1.117  12.531 -2.0496  3.2801  0.6466
 5993TIP3   OH239469   4.752   1.790  14.198  0.3400  0.6232 -0.5293
 5993TIP3    H139470   4.714   1.787  14.110 -0.3908  2.2292 -0.2951
 5993TIP3    H239471   4.699   1.729  14.249 -0.1538  0.7626 -0.8685
 5994TIP3   OH239472   5.054   0.700   1.512 -0.0021 -0.3663 -0.0971
 5994TIP3    H139473   5.144   0.691   1.479 -0.8920 -1.5978 -2.4268
 5994TIP3    H239474   5.024   0.783   1.475 -0.0742 -0.3306  0.0420
 5995TIP3   OH239475   5.449   4.417   5.089  0.2058  0.3222 -0.0454
 5995TIP3    H139476   5.422   4.351   5.024 -0.7650 -0.4823  1.1206
 5995TIP3    H239477   5.366   4.449   5.125  0.7208 -0.9454  2.4320
 5996TIP3   OH239478   5.852   0.093  15.495  0.2151  0.6208 -0.4867
 5996TIP3    H139479   5.791   0.106  15.567 -0.6736  3.9671 -1.6665
 5996TIP3    H239480   5.938   0.100  15.535  0.0092 -3.2061  1.0337
 5997TIP3   OH239481   5.634   5.635   3.984  0.0932 -0.3338  0.1795
 5997TIP3    H139482   5.663   5.548   3.956  0.1237 -0.1624 -0.3386
 5997TIP3    H239483   5.705   5.693   3.956 -0.3935 -0.0107 -0.3987
 5998TIP3   OH239484   4.157   4.977   5.104  0.2884  0.2218  0.3498
 5998TIP3    H139485   4.097   5.001   5.033  1.5701  0.4264 -0.7052
 5998TIP3    H239486   4.201   5.059   5.127 -0.3944  0.2356  1.6807
 5999TIP3   OH239487   0.983   5.396  14.248  0.5301 -0.0977 -0.0583
 5999TIP3    H139488   1.020   5.321  14.296 -0.6210 -0.4433  0.3121
 5999TIP3    H239489   0.919   5.358  14.189  1.2780  0.4276 -1.2523
 6000TIP3   OH239490   1.305   6.438   3.147 -0.3710 -0.5157  0.5577
 6000TIP3    H139491   1.336   6.435   3.057 -1.2232 -0.9482  0.2670
 6000TIP3    H239492   1.329   6.525   3.178  0.0345 -0.4086 -0.0403
 6001TIP3   OH239493   5.639   6.271  11.397 -0.6548  0.2724  0.0048
 6001TIP3    H139494   5.733   6.260  11.414 -0.6453  0.8750  0.3464
 6001TIP3    H239495   5.631   6.259  11.302 -0.1766  0.5647 -0.0788
 6002TIP3   OH239496   4.740   1.442  15.093 -0.0571 -0.2480  0.1268
 6002TIP3    H139497   4.673   1.393  15.141  1.9154 -0.7152  2.6501
 6002TIP3    H239498   4.786   1.492  15.161  2.2768 -0.1216 -1.4372
 6003TIP3   OH239499   3.382   2.244  16.362 -0.4220  0.2961  0.2777
 6003TIP3    H139500   3.465   2.199  16.353 -0.3331  0.8140 -2.3055
 6003TIP3    H239501   3.337   2.199  16.433  1.4130 -0.9782  0.6904
 6004TIP3   OH239502   0.770   1.087   2.884 -0.9142  0.4299  0.5351
 6004TIP3    H139503   0.720   1.141   2.823  1.0076  0.3709 -1.1789
 6004TIP3    H239504   0.748   0.997   2.860 -0.9897  0.4062  0.6876
 6005TIP3   OH239505   4.642   1.822   2.311 -0.1758 -0.3306  0.5125
 6005TIP3    H139506   4.594   1.859   2.385 -1.2208  0.4537 -0.5309
 6005TIP3    H239507   4.668   1.897   2.259 -1.1765 -0.9498 -0.9492
 6006TIP3   OH239508   4.569   4.710   5.604  0.2552  0.3723  0.1921
 6006TIP3    H139509   4.507   4.674   5.541  0.0996  2.5647 -1.0405
 6006TIP3    H239510   4.522   4.711   5.687 -0.7204  0.3813 -0.3469
 6007TIP3   OH239511   3.286   1.872   3.797  0.2979 -0.1315 -0.0207
 6007TIP3    H139512   3.340   1.910   3.727 -0.8628  0.8684 -0.4111
 6007TIP3    H239513   3.255   1.789   3.760 -1.0060  0.7853 -1.0695
 6008TIP3   OH239514   1.294   4.979   6.500  0.1034 -0.6193 -0.1225
 6008TIP3    H139515   1.379   5.021   6.492  0.9465 -2.4958 -1.5597
 6008TIP3    H239516   1.235   5.034   6.449  1.1258 -0.9332 -1.7219
 6009TIP3   OH239517   1.264   6.811  14.284 -0.2840 -0.4270 -0.3086
 6009TIP3    H139518   1.219   6.727  14.287  1.9458 -1.6874  0.6369
 6009TIP3    H239519   1.285   6.831  14.375 -0.3002  0.8862 -0.5710
 6010TIP3   OH239520   4.505   2.208  13.121  0.2788 -0.0565  0.1371
 6010TIP3    H139521   4.568   2.152  13.077 -1.6787 -2.6178  0.3741
 6010TIP3    H239522   4.454   2.247  13.049 -0.4559 -1.2247 -0.0025
 6011TIP3   OH239523   1.910   3.149   0.178 -0.5278  0.0481 -0.0916
 6011TIP3    H139524   1.992   3.179   0.217 -0.6067 -0.9510  0.8922
 6011TIP3    H239525   1.846   3.216   0.203 -0.4060 -0.1638  0.8112
 6012TIP3   OH239526   0.436   3.813   5.476  0.1564 -0.0349 -0.0695
 6012TIP3    H139527   0.506   3.816   5.410  1.2761 -0.5536  1.0478
 6012TIP3    H239528   0.446   3.728   5.518 -0.5374  0.2773  0.7672
 6013TIP3   OH239529   4.859   4.485  16.166 -0.3632  0.0358 -0.8544
 6013TIP3    H139530   4.855   4.415  16.231 -3.3396  1.5682  0.8295
 6013TIP3    H239531   4.876   4.565  16.217 -1.4531  1.1093 -2.0829
 6014TIP3   OH239532   6.318   4.431  13.462  0.1019 -0.0731 -0.4070
 6014TIP3    H139533   6.306   4.336  13.465 -0.0500 -0.0322  0.4742
 6014TIP3    H239534   6.360   4.447  13.377  0.0958 -0.9195 -0.5791
 6015TIP3   OH239535   3.620   1.596   0.769  0.3201  0.1732  0.3165
 6015TIP3    H139536   3.528   1.569   0.763  0.5888 -0.8172  0.6414
 6015TIP3    H239537   3.669   1.525   0.728  0.9460  0.7010  0.1392
 6016TIP3   OH239538   5.832   3.294  11.294 -0.1590 -0.4023  0.7552
 6016TIP3    H139539   5.802   3.225  11.235  0.5214  0.2297 -0.3496
 6016TIP3    H239540   5.928   3.292  11.287 -0.1488  1.8587 -0.7457
 6017TIP3   OH239541   6.464   0.472  12.655 -0.1146 -0.2007  0.2093
 6017TIP3    H139542   6.371   0.451  12.653 -0.0742 -0.2971 -1.1806
 6017TIP3    H239543   6.472   0.556  12.610  0.2643  0.7774  1.9923
 6018TIP3   OH239544   5.969   5.379   2.140 -0.3024  0.4433  0.3416
 6018TIP3    H139545   6.051   5.329   2.142 -0.5095 -0.1392 -2.0162
 6018TIP3    H239546   5.922   5.350   2.218  0.5615 -1.3486  0.2585
 6019TIP3   OH239547   6.492   0.072   1.847  0.2295 -0.1859 -0.1256
 6019TIP3    H139548   6.454   0.041   1.930  2.2289 -0.9450  0.5765
 6019TIP3    H239549   6.438   0.032   1.779 -0.6834 -0.5697  0.7966
 6020TIP3   OH239550   0.048   1.637   4.830  0.1660  1.1533 -0.3253
 6020TIP3    H139551   0.003   1.572   4.776  0.4259 -0.0961  0.9008
 6020TIP3    H239552   0.014   1.721   4.799 -2.6602  0.3031  0.1728
 6021TIP3   OH239553   6.318   3.960   2.757 -0.2978  0.1922 -0.2580
 6021TIP3    H139554   6.383   4.014   2.803 -1.9668  3.3186 -1.2233
 6021TIP3    H239555   6.256   3.935   2.825 -0.0592  0.4405  0.0555
 6022TIP3   OH239556   2.421   6.800  15.315 -0.1563  0.5207  0.2152
 6022TIP3    H139557   2.489   6.760  15.369  0.9042  0.2435 -1.2659
 6022TIP3    H239558   2.374   6.726  15.277 -0.6126  0.7124  0.3966
 6023TIP3   OH239559   6.202   4.019  11.349 -0.0058 -0.3811 -0.0171
 6023TIP3    H139560   6.270   4.000  11.284  0.7734 -0.6929  0.8550
 6023TIP3    H239561   6.124   3.976  11.315  0.5373 -1.0496 -0.4635
 6024TIP3   OH239562   6.191   0.308   2.725 -0.1350  0.2394 -0.3332
 6024TIP3    H139563   6.102   0.332   2.751 -0.0835  0.4873 -0.3810
 6024TIP3    H239564   6.220   0.381   2.671  0.4644  0.6454  0.5092
 6025TIP3   OH239565   5.221   0.384   2.419 -0.2481 -0.5028  0.8729
 6025TIP3    H139566   5.170   0.460   2.450 -1.0092 -0.5507 -0.1965
 6025TIP3    H239567   5.212   0.319   2.489 -1.3852 -0.3781  0.8671
 6026TIP3   OH239568   2.235   6.201  15.713  0.3423  0.2649 -0.2173
 6026TIP3    H139569   2.329   6.216  15.719  0.4434  0.3812 -1.7796
 6026TIP3    H239570   2.202   6.273  15.660 -0.7851  0.7050  1.0084
 6027TIP3   OH239571   1.413   1.344   4.561 -0.2327 -0.5361  0.2979
 6027TIP3    H139572   1.414   1.306   4.473  1.3698  3.4201 -1.6190
 6027TIP3    H239573   1.323   1.375   4.573 -0.3899 -0.8675  0.0035
 6028TIP3   OH239574   4.096   3.384  13.993  0.0865  0.1197  0.3507
 6028TIP3    H139575   4.002   3.399  13.981  0.3423  0.5774 -1.3677
 6028TIP3    H239576   4.104   3.289  14.002 -0.5356  0.0690  0.4158
 6029TIP3   OH239577   4.698   3.546  13.464  0.2582 -0.2759 -0.0255
 6029TIP3    H139578   4.730   3.489  13.393  0.0904 -1.7049  1.0125
 6029TIP3    H239579   4.635   3.603  13.421  0.9416 -0.3862 -1.2421
 6030TIP3   OH239580   1.135   2.242  12.828  0.6184 -0.0448 -0.1719
 6030TIP3    H139581   1.104   2.319  12.779 -1.8288 -0.7680  0.0912
 6030TIP3    H239582   1.140   2.272  12.918  0.1454 -0.0418 -0.1418
 6031TIP3   OH239583   1.181   3.075  17.006  0.2720 -0.1944 -0.3682
 6031TIP3    H139584   1.090   3.101  17.015 -0.0926 -0.8687 -1.7203
 6031TIP3    H239585   1.178   2.981  16.989  1.2381 -0.2920 -0.0708
 6032TIP3   OH239586   4.196   5.665   3.047 -0.1515  0.1655  0.0912
 6032TIP3    H139587   4.188   5.593   2.984 -0.4982 -0.0197  0.3448
 6032TIP3    H239588   4.279   5.708   3.024  0.1303 -0.4055  0.0385
 6033TIP3   OH239589   0.084   2.561   1.203 -0.0311 -0.4267  0.4078
 6033TIP3    H139590   0.028   2.547   1.280 -0.2876  0.1136  0.3227
 6033TIP3    H239591   0.090   2.475   1.162 -4.1280  0.1323 -1.8550
 6034TIP3   OH239592   6.746   1.537  11.762  0.2866  0.1739 -0.0147
 6034TIP3    H139593   6.789   1.570  11.840 -1.3408  0.0690  0.9766
 6034TIP3    H239594   6.652   1.543  11.781 -0.2131  1.1092 -2.3548
 6035TIP3   OH239595   2.063   0.235   1.641 -0.0561 -1.1275  0.3254
 6035TIP3    H139596   2.107   0.184   1.573  2.1424  0.9307  0.0834
 6035TIP3    H239597   2.019   0.305   1.594  2.8623  1.3210  0.9257
 6036TIP3   OH239598   0.558   5.749  15.266  0.5907  0.2899 -0.2229
 6036TIP3    H139599   0.546   5.702  15.183  1.1270 -0.9345  0.3701
 6036TIP3    H239600   0.653   5.753  15.277  0.5510  1.3997 -0.1772
 6037TIP3   OH239601   1.428   0.515   6.257  0.2875  0.5952 -0.3893
 6037TIP3    H139602   1.447   0.502   6.350  0.7703 -1.5620 -0.7356
 6037TIP3    H239603   1.373   0.440   6.233  0.0492  1.1918 -1.8078
 6038TIP3   OH239604   1.247   3.763   2.143  0.6460 -0.7958 -0.8905
 6038TIP3    H139605   1.256   3.852   2.176  0.0272 -0.4334 -1.6472
 6038TIP3    H239606   1.152   3.750   2.136  0.7470 -1.1813 -1.6388
 6039TIP3   OH239607   0.815   6.058  15.994  0.1369  0.1072 -0.2969
 6039TIP3    H139608   0.849   6.084  16.080 -0.1140 -0.5459  0.0094
 6039TIP3    H239609   0.837   6.131  15.936  0.5567  0.4307  0.2622
 6040TIP3   OH239610   1.973   5.395   1.022 -0.0019  0.0313 -0.0692
 6040TIP3    H139611   1.892   5.405   1.072 -0.6654 -2.7834 -0.4068
 6040TIP3    H239612   1.952   5.427   0.935 -0.6450 -0.3500 -0.0577
 6041TIP3   OH239613   4.081   6.579  16.242  0.2210  0.0833 -0.0656
 6041TIP3    H139614   4.139   6.618  16.176 -0.3247  0.2070 -0.4769
 6041TIP3    H239615   3.993   6.591  16.207 -0.1731  1.2483  1.2606
 6042TIP3   OH239616   2.504   0.759  12.579 -0.2797 -0.0298  0.2416
 6042TIP3    H139617   2.549   0.677  12.594  0.4036  0.4407  0.7861
 6042TIP3    H239618   2.519   0.811  12.658 -1.0269  0.4771  0.0696
 6043TIP3   OH239619   6.735   3.682   1.955 -0.0070  0.0420  0.6673
 6043TIP3    H139620   6.683   3.633   1.890 -0.8255  2.2591 -0.4404
 6043TIP3    H239621   6.823   3.683   1.919 -0.5784  1.7800 -0.7956
 6044TIP3   OH239622   3.950   3.247   1.748 -0.0521  0.1486 -0.0292
 6044TIP3    H139623   3.953   3.341   1.726 -0.7659  0.1234 -0.2580
 6044TIP3    H239624   4.000   3.205   1.679 -0.4557  0.2838 -0.4116
 6045TIP3   OH239625   6.214   5.554   2.055  0.0468  0.8722 -0.5101
 6045TIP3    H139626   6.262   5.513   1.983 -1.7005 -0.9992 -0.7185
 6045TIP3    H239627   6.154   5.614   2.012 -1.0520 -0.3036 -0.6927
 6046TIP3   OH239628   2.869   0.118  13.713  0.2114  0.5220  0.0881
 6046TIP3    H139629   2.879   0.144  13.804  0.4524 -0.9732  0.5208
 6046TIP3    H239630   2.849   0.199  13.666  1.0950  1.4713  1.3035
 6047TIP3   OH239631   4.975   5.792   0.374  0.1261 -0.5497 -0.1979
 6047TIP3    H139632   5.022   5.873   0.356  0.5265 -0.4599  1.1659
 6047TIP3    H239633   4.924   5.810   0.453 -0.1795 -1.4554 -0.1747
 6048TIP3   OH239634   3.765   2.961   5.837 -0.1892 -0.1986 -0.0151
 6048TIP3    H139635   3.673   2.952   5.862 -0.4864 -0.6246 -1.2265
 6048TIP3    H239636   3.769   2.931   5.747  1.2550 -0.7644  0.2055
 6049TIP3   OH239637   2.958   1.171   5.672  0.5461 -0.3912 -0.1310
 6049TIP3    H139638   3.049   1.144   5.682  0.7133  0.8762  3.9167
 6049TIP3    H239639   2.909   1.090   5.658  2.0603 -1.3672  0.0630
 6050TIP3   OH239640   1.969   5.769   3.949  0.2782  0.2016  0.5990
 6050TIP3    H139641   1.916   5.845   3.977  1.3884  0.9799  0.6441
 6050TIP3    H239642   1.904   5.703   3.926 -0.9107  2.2875 -2.7975
 6051TIP3   OH239643   3.638   6.556  16.915  0.5336  0.0459 -0.0348
 6051TIP3    H139644   3.667   6.517  16.998 -1.5365  1.7572  1.6165
 6051TIP3    H239645   3.686   6.638  16.909 -0.8276  0.9190  0.5981
 6052TIP3   OH239646   6.236   3.073   5.601 -0.0894  0.1889  0.1966
 6052TIP3    H139647   6.290   3.005   5.641  1.0940  1.1750  0.3257
 6052TIP3    H239648   6.245   3.148   5.659 -1.3504  0.4925  0.0396
 6053TIP3   OH239649   2.421   3.018  15.565 -0.1031 -0.2911  0.0261
 6053TIP3    H139650   2.359   3.062  15.623  0.8224 -0.4262  1.1746
 6053TIP3    H239651   2.506   3.056  15.588  0.2040  0.1728 -1.7838
 6054TIP3   OH239652   5.239   1.569   3.036 -0.2382 -0.6902  0.2928
 6054TIP3    H139653   5.173   1.504   3.058 -0.2066 -1.6742 -2.1747
 6054TIP3    H239654   5.321   1.520   3.034 -0.1129 -0.4548 -0.9383
 6055TIP3   OH239655   5.501   3.118   3.268  0.2931  0.6143 -0.5983
 6055TIP3    H139656   5.435   3.125   3.200  0.5510 -1.0347 -1.0731
 6055TIP3    H239657   5.469   3.048   3.325  0.7928  0.9761  0.1463
 6056TIP3   OH239658   4.699   1.542  13.976  0.6550 -0.2680 -0.1976
 6056TIP3    H139659   4.703   1.622  13.924 -1.7025 -0.8276 -1.3714
 6056TIP3    H239660   4.786   1.534  14.015  1.0705  2.6283 -0.3543
 6057TIP3   OH239661   6.150   5.345   0.738  0.0094  0.0619 -0.1001
 6057TIP3    H139662   6.168   5.280   0.805 -1.5294 -1.4182 -1.0458
 6057TIP3    H239663   6.222   5.337   0.675 -0.7490 -1.6264 -0.8167
 6058TIP3   OH239664   2.480   2.369  14.227  0.0830  0.2402  0.1244
 6058TIP3    H139665   2.392   2.379  14.264  0.8342  1.6477  1.6871
 6058TIP3    H239666   2.512   2.286  14.262  0.1173  0.7161  1.2745
 6059TIP3   OH239667   0.774   5.492  12.608  0.0924 -0.8904 -0.1356
 6059TIP3    H139668   0.714   5.565  12.592 -0.6290 -1.2653  0.7507
 6059TIP3    H239669   0.741   5.422  12.550 -2.1144 -2.0268  2.2752
 6060TIP3   OH239670   2.696   6.065   3.874  0.1435  0.5493 -0.1832
 6060TIP3    H139671   2.791   6.081   3.874  0.1903  0.2895 -0.7218
 6060TIP3    H239672   2.664   6.117   3.947  0.4299  2.2902 -1.2177
 6061TIP3   OH239673   5.644   1.926  14.227  0.0398  0.2721 -0.2820
 6061TIP3    H139674   5.655   2.017  14.201 -2.0442  0.6924  0.1441
 6061TIP3    H239675   5.616   1.881  14.147 -0.6896  0.3764 -0.0862
 6062TIP3   OH239676   4.949   5.975  11.133  0.1002  0.0548  0.0288
 6062TIP3    H139677   4.879   5.917  11.164 -1.1926  1.7261  0.3523
 6062TIP3    H239678   4.915   6.014  11.053  0.3980  1.3320  0.4993
 6063TIP3   OH239679   2.163   3.790  12.077  0.5313  0.5376 -0.2830
 6063TIP3    H139680   2.215   3.727  12.027  1.4474  0.8864  0.2047
 6063TIP3    H239681   2.188   3.875  12.041 -1.3688  0.6200 -1.5707
 6064TIP3   OH239682   0.020   3.986  12.053 -0.4678  0.8336 -0.4494
 6064TIP3    H139683   0.090   3.924  12.030 -0.3215  1.1419 -0.8556
 6064TIP3    H239684   0.044   4.017  12.140 -1.2188 -0.6193  0.3207
 6065TIP3   OH239685   5.047   1.811   1.555 -0.2080  0.2378  0.0507
 6065TIP3    H139686   5.063   1.901   1.529 -1.7168  0.0595 -1.7066
 6065TIP3    H239687   4.952   1.800   1.550  0.0200 -1.8232 -1.2382
 6066TIP3   OH239688   0.657   0.750   1.439  0.0415  0.2881 -0.2697
 6066TIP3    H139689   0.664   0.713   1.351  2.7272 -0.1027  0.0505
 6066TIP3    H239690   0.624   0.678   1.492 -0.1054  0.0619 -0.6622
 6067TIP3   OH239691   0.982   5.922   3.775  0.4279  0.2174  0.1071
 6067TIP3    H139692   0.999   5.850   3.836 -1.3666  0.0225  0.4107
 6067TIP3    H239693   1.058   5.980   3.785 -0.9583  1.7400  4.7451
 6068TIP3   OH239694   1.256   4.111   4.304  0.0176  0.8481 -0.3386
 6068TIP3    H139695   1.174   4.078   4.341  0.4358  1.1505  0.9120
 6068TIP3    H239696   1.275   4.052   4.231 -0.5346 -0.1625  0.3081
 6069TIP3   OH239697   1.422   5.049  13.818  0.4604 -0.5142  0.3563
 6069TIP3    H139698   1.448   5.135  13.785 -1.2661 -0.3566 -0.7258
 6069TIP3    H239699   1.350   5.067  13.877 -0.2976 -1.2487 -0.3279
 6070TIP3   OH239700   1.536   5.274  11.460  0.3405  0.2469 -0.0035
 6070TIP3    H139701   1.489   5.244  11.382  1.2504 -0.6142 -0.2384
 6070TIP3    H239702   1.622   5.232  11.454  0.5082  0.3570  1.3439
 6071TIP3   OH239703   6.159   3.023  15.959 -0.0333 -0.2808  0.8508
 6071TIP3    H139704   6.101   3.066  15.896  1.4013 -0.3675 -0.5996
 6071TIP3    H239705   6.108   2.949  15.993 -1.1762  0.3354  0.5344
 6072TIP3   OH239706   1.390   2.489   1.288 -0.1567 -0.5531 -0.0156
 6072TIP3    H139707   1.325   2.452   1.229  0.4897 -0.8704 -0.5439
 6072TIP3    H239708   1.461   2.517   1.231 -1.0592  2.5911  0.1864
 6073TIP3   OH239709   4.930   3.351  13.899  0.1757 -0.2187 -0.0059
 6073TIP3    H139710   4.923   3.350  13.994  0.2278 -0.6489 -0.0082
 6073TIP3    H239711   4.950   3.443  13.878 -3.0796  0.6375  0.1625
 6074TIP3   OH239712   2.594   2.613   5.627  0.0047  0.3633 -0.3225
 6074TIP3    H139713   2.638   2.607   5.543 -0.3932  0.9842 -0.5835
 6074TIP3    H239714   2.501   2.619   5.605 -0.1311  0.1610  0.1785
 6075TIP3   OH239715   6.013   0.100   3.019 -0.0662  0.3318  0.7885
 6075TIP3    H139716   5.991   0.112   2.927  0.8024  2.7439  0.8303
 6075TIP3    H239717   6.086   0.038   3.019 -1.3435 -1.2536  0.0693
 6076TIP3   OH239718   1.348   3.636  16.309 -0.0788 -0.2452 -0.3265
 6076TIP3    H139719   1.406   3.712  16.308 -0.5769  0.1427 -0.3637
 6076TIP3    H239720   1.355   3.599  16.221  2.1142 -1.7736  0.4120
 6077TIP3   OH239721   4.044   0.546  10.252 -0.3164 -0.3267  0.1459
 6077TIP3    H139722   4.046   0.627  10.202  1.6357  0.0745  0.8025
 6077TIP3    H239723   3.989   0.566  10.328  1.6766  1.0914  1.3279
 6078TIP3   OH239724   5.111   5.775   1.843 -0.1840 -0.4542  0.3919
 6078TIP3    H139725   5.188   5.799   1.793 -0.6126  0.1768  0.0108
 6078TIP3    H239726   5.133   5.691   1.883  0.2180 -0.9223 -0.7562
 6079TIP3   OH239727   4.454   3.028   0.140  0.3248  0.0033  0.4338
 6079TIP3    H139728   4.426   3.084   0.067  0.5391 -2.1000 -1.3958
 6079TIP3    H239729   4.498   2.954   0.097  1.3725 -0.8322  2.7939
 6080TIP3   OH239730   0.503   3.584  15.579 -0.2979  0.1591 -0.2515
 6080TIP3    H139731   0.506   3.664  15.526  0.4076 -0.0364 -0.5115
 6080TIP3    H239732   0.412   3.555  15.572  0.1956 -1.0699 -3.1913
 6081TIP3   OH239733   3.439   6.355  12.697  0.2173  0.3370 -0.1070
 6081TIP3    H139734   3.491   6.358  12.617 -1.2151  1.9301 -1.0504
 6081TIP3    H239735   3.498   6.385  12.766  1.2003 -0.1671 -0.7242
 6082TIP3   OH239736   6.683   1.027   3.197  0.8337 -0.2412 -0.6553
 6082TIP3    H139737   6.722   0.977   3.269 -1.2700 -1.9177 -0.6159
 6082TIP3    H239738   6.614   0.971   3.162  0.9430  1.0548 -3.1961
 6083TIP3   OH239739   4.465   3.501  12.211 -0.4560 -0.2866  0.2803
 6083TIP3    H139740   4.475   3.570  12.146 -1.2886 -0.2622  0.1655
 6083TIP3    H239741   4.535   3.517  12.274  0.6085 -0.5479 -0.7974
 6084TIP3   OH239742   1.053   4.009  15.762 -0.5776  0.0255  0.4591
 6084TIP3    H139743   1.106   4.077  15.806 -0.3525 -1.2763  2.3162
 6084TIP3    H239744   0.984   3.989  15.825 -1.0141 -1.0325 -0.3412
 6085TIP3   OH239745   4.474   4.969  12.732 -0.2550  0.4268  0.5931
 6085TIP3    H139746   4.526   4.919  12.795 -1.8393  1.8719  3.1993
 6085TIP3    H239747   4.497   5.060  12.748  0.3508  0.8150 -2.0030
 6086TIP3   OH239748   3.427   0.570   3.251 -0.0442  0.1672 -0.0720
 6086TIP3    H139749   3.408   0.535   3.164  1.6777  1.9758 -1.2351
 6086TIP3    H239750   3.487   0.506   3.290  3.4859  1.7839 -2.3635
 6087TIP3   OH239751   5.301   2.688   5.288 -0.2112  0.0369 -0.4480
 6087TIP3    H139752   5.241   2.762   5.289 -0.2837 -0.0221 -0.0021
 6087TIP3    H239753   5.303   2.658   5.379  1.9171  1.1769 -0.0712
 6088TIP3   OH239754   6.387   3.193  17.095  0.3885 -0.1513 -0.2437
 6088TIP3    H139755   6.410   3.235  17.178  2.2631  1.4357 -1.4803
 6088TIP3    H239756   6.416   3.103  17.105  0.5299 -0.0064  0.8378
 6089TIP3   OH239757   5.641   6.338  15.027  0.1983  0.0371  0.4611
 6089TIP3    H139758   5.691   6.334  14.945 -1.1613  1.9012 -0.5360
 6089TIP3    H239759   5.629   6.432  15.042 -0.8523 -0.3214  2.0190
 6090TIP3   OH239760   2.529   4.580   5.667 -0.2021 -0.5526 -0.3774
 6090TIP3    H139761   2.441   4.550   5.645 -0.1123 -0.6624 -0.5909
 6090TIP3    H239762   2.518   4.671   5.695 -0.4920 -0.8114  0.3803
 6091TIP3   OH239763   1.658   5.468   2.871  0.7690 -0.0447 -0.1825
 6091TIP3    H139764   1.583   5.460   2.930 -1.0949 -1.1733 -2.4987
 6091TIP3    H239765   1.661   5.560   2.847 -0.3496 -0.0926 -0.5631
 6092TIP3   OH239766   6.323   1.293   2.566 -0.4424  0.1086 -0.0033
 6092TIP3    H139767   6.311   1.228   2.497 -0.9741  0.1224  0.0736
 6092TIP3    H239768   6.332   1.241   2.647  2.6980 -0.0680 -0.3322
 6093TIP3   OH239769   2.768   1.501   4.881  0.0150 -0.4610 -0.0977
 6093TIP3    H139770   2.711   1.437   4.924 -0.0165 -1.2357 -1.2267
 6093TIP3    H239771   2.804   1.554   4.952 -1.2568 -0.6634  0.7200
 6094TIP3   OH239772   2.273   2.436  16.665  0.0299  0.1850  0.2486
 6094TIP3    H139773   2.270   2.530  16.684  1.1178  0.3159 -0.1504
 6094TIP3    H239774   2.314   2.430  16.579  0.2313 -0.6768  0.3937
 6095TIP3   OH239775   0.618   0.212  14.416  0.1640  0.4138  0.4557
 6095TIP3    H139776   0.610   0.122  14.386 -0.1252  0.5966 -0.0234
 6095TIP3    H239777   0.702   0.214  14.463  1.9909  0.7073 -2.5385
 6096TIP3   OH239778   5.277   4.367   0.769  0.0601 -0.5250  0.2430
 6096TIP3    H139779   5.196   4.388   0.816 -0.9488 -1.8819 -0.8210
 6096TIP3    H239780   5.320   4.452   0.755 -1.8776  0.3941 -0.4246
 6097TIP3   OH239781   0.820   1.954  16.500  0.1257  0.0669 -0.3356
 6097TIP3    H139782   0.844   1.895  16.572  0.0806 -2.6367 -2.3672
 6097TIP3    H239783   0.827   2.041  16.537  0.1124 -1.1857  2.9247
 6098TIP3   OH239784   3.915   1.465  12.673 -0.4010  0.4235 -0.1866
 6098TIP3    H139785   3.937   1.503  12.758  3.7023 -0.3082 -0.7120
 6098TIP3    H239786   3.943   1.373  12.680  0.4848  0.4739 -2.4363
 6099TIP3   OH239787   3.920   1.730   0.458  0.5235 -0.3686  0.1158
 6099TIP3    H139788   3.845   1.670   0.454  1.7723 -2.0818  1.1062
 6099TIP3    H239789   3.994   1.674   0.484  1.8494  1.5408  0.6412
 6100TIP3   OH239790   6.557   1.976  13.832 -0.0928 -0.3647 -0.0480
 6100TIP3    H139791   6.495   2.045  13.856 -0.6511 -0.2367 -1.7705
 6100TIP3    H239792   6.621   1.976  13.903 -0.4676  1.4531  0.3267
 6101TIP3   OH239793   0.344   4.894   2.981 -0.0561 -0.0423 -0.0312
 6101TIP3    H139794   0.393   4.946   3.044  1.5864 -1.4651 -0.0780
 6101TIP3    H239795   0.252   4.917   2.998  0.4439  0.8300  1.7552
 6102TIP3   OH239796   1.409   2.646   3.393  0.6964 -0.4514 -0.6142
 6102TIP3    H139797   1.504   2.656   3.388  0.7469 -0.2248  0.4922
 6102TIP3    H239798   1.375   2.730   3.363  0.8333 -0.5418 -1.0389
 6103TIP3   OH239799   0.652   0.563   0.406 -0.4139  0.1740  0.4966
 6103TIP3    H139800   0.685   0.475   0.390  1.2965  0.6284  1.3640
 6103TIP3    H239801   0.725   0.621   0.387 -1.7182  1.5083 -0.7574
 6104TIP3   OH239802   5.244   5.636  15.934 -0.1154 -0.8219  0.0450
 6104TIP3    H139803   5.214   5.561  15.884 -1.3910  0.5516 -1.3542
 6104TIP3    H239804   5.274   5.599  16.017 -0.3076 -2.8910 -0.7547
 6105TIP3   OH239805   0.837   3.017  11.636  0.1748 -0.1611  0.2758
 6105TIP3    H139806   0.759   3.026  11.580 -1.8362 -1.0548  2.7494
 6105TIP3    H239807   0.899   2.966  11.583  0.0011  2.3133 -2.5547
 6106TIP3   OH239808   6.374   6.109  17.215  0.0742  0.7058 -0.1451
 6106TIP3    H139809   6.365   6.104  17.120 -2.7258  0.3744  0.0449
 6106TIP3    H239810   6.400   6.021  17.242  1.0724  0.8530 -0.6031
 6107TIP3   OH239811   0.203   0.245  16.683  0.3148  0.3415 -0.2813
 6107TIP3    H139812   0.246   0.177  16.630  0.0063  0.4052 -0.6176
 6107TIP3    H239813   0.257   0.323  16.669  1.2939 -0.0880  0.9578
 6108TIP3   OH239814   6.790   3.892  15.255 -0.1783  0.2121 -0.4518
 6108TIP3    H139815   6.709   3.902  15.205  0.6217  1.1402 -1.6274
 6108TIP3    H239816   6.859   3.893  15.188  0.9334  1.4101  0.6520
 6109TIP3   OH239817   2.533   4.001  14.831 -0.1858 -0.2028  0.8107
 6109TIP3    H139818   2.450   4.046  14.846 -1.5964 -3.2589  3.2786
 6109TIP3    H239819   2.520   3.953  14.749 -0.4713  0.0892  0.6820
 6110TIP3   OH239820   4.855   1.496   1.720  0.0600 -0.3226 -0.4073
 6110TIP3    H139821   4.830   1.430   1.784 -1.6131 -1.5835 -2.2531
 6110TIP3    H239822   4.942   1.469   1.691  0.6812  0.0554  0.9918
 6111TIP3   OH239823   3.385   3.596   3.545 -0.1269  0.1945  0.4807
 6111TIP3    H139824   3.468   3.644   3.533 -0.4508  0.8425  0.7863
 6111TIP3    H239825   3.335   3.650   3.605 -0.3387 -0.7538  1.1791
 6112TIP3   OH239826   5.509   5.710   4.582  0.5595 -0.1517  0.0584
 6112TIP3    H139827   5.449   5.717   4.507  0.7799  1.7926  0.0245
 6112TIP3    H239828   5.595   5.729   4.546  1.2852 -2.8630  0.1244
 6113TIP3   OH239829   2.216   4.129   3.217  0.9411  0.3572 -0.5518
 6113TIP3    H139830   2.138   4.137   3.161  0.3983 -0.6841  0.0329
 6113TIP3    H239831   2.287   4.108   3.157  0.4922 -0.0820 -0.9376
 6114TIP3   OH239832   6.684   4.858  12.815  0.3135  0.2109  0.0973
 6114TIP3    H139833   6.640   4.823  12.737  1.6174 -1.2778 -0.0272
 6114TIP3    H239834   6.639   4.815  12.888  0.1536  0.3408  0.0742
 6115TIP3   OH239835   6.766   6.507   0.109 -0.0507 -0.1648 -0.1555
 6115TIP3    H139836   6.805   6.586   0.148  0.9034  0.5583 -2.3869
 6115TIP3    H239837   6.677   6.505   0.145  0.3467  1.1307  1.0287
 6116TIP3   OH239838   4.193   1.192   3.561 -0.3046  0.6003 -0.0673
 6116TIP3    H139839   4.268   1.135   3.540 -2.5378 -2.2494 -0.9751
 6116TIP3    H239840   4.187   1.252   3.487  1.0102  0.8618  0.0009
 6117TIP3   OH239841   6.214   1.227   2.275  0.2427 -0.4488 -0.5205
 6117TIP3    H139842   6.163   1.232   2.194  0.0029  0.1812 -0.3322
 6117TIP3    H239843   6.298   1.265   2.252  0.3241 -0.6670 -0.5879
 6118TIP3   OH239844   2.102   4.316   3.654 -0.4563  0.2027  0.0935
 6118TIP3    H139845   2.149   4.236   3.680  0.2323  0.7349  0.5369
 6118TIP3    H239846   2.113   4.321   3.559 -0.8999 -0.4654 -0.0032
 6119TIP3   OH239847   2.977   2.081  16.378 -0.2783 -0.2164  0.2504
 6119TIP3    H139848   3.004   2.043  16.294  0.0374 -0.8305  0.6222
 6119TIP3    H239849   2.997   2.174  16.369  1.5290 -0.5668  0.3237
 6120TIP3   OH239850   3.165   1.283   4.280 -0.1594  0.0912  0.0880
 6120TIP3    H139851   3.216   1.324   4.349 -1.6534  1.7857  0.2653
 6120TIP3    H239852   3.077   1.274   4.317 -0.2483 -1.9437 -0.5013
 6121TIP3   OH239853   2.100   1.740  15.637 -0.2805 -0.0480  0.4645
 6121TIP3    H139854   2.067   1.784  15.715 -0.7467 -1.0119  0.8251
 6121TIP3    H239855   2.137   1.658  15.669 -1.6991 -1.0803 -0.4596
 6122TIP3   OH239856   6.180   3.567   4.458  0.2648 -0.2756  0.4484
 6122TIP3    H139857   6.158   3.574   4.366  1.2048 -1.6002  0.0900
 6122TIP3    H239858   6.171   3.656   4.492  0.6630  0.3804 -1.0891
 6123TIP3   OH239859   1.890   2.123   4.813 -0.2325  0.1466 -0.0306
 6123TIP3    H139860   1.983   2.146   4.821  0.0234 -0.2848 -1.4204
 6123TIP3    H239861   1.844   2.192   4.859  0.6906  1.4071 -0.9289
 6124TIP3   OH239862   1.176   0.009  16.208 -0.3625 -0.0545 -0.5049
 6124TIP3    H139863   1.253   0.007  16.151 -0.2650  0.2626 -0.3880
 6124TIP3    H239864   1.144   0.099  16.202  0.8464  0.5855  1.5147
 6125TIP3   OH239865   3.967   0.382   1.599 -0.1346  0.2003  0.3487
 6125TIP3    H139866   3.888   0.401   1.650  0.6436  0.5815  1.4545
 6125TIP3    H239867   4.005   0.306   1.643 -0.5203 -0.7531 -0.9302
 6126TIP3   OH239868   2.748   6.295  11.720  0.0242  0.5028  0.4691
 6126TIP3    H139869   2.830   6.313  11.675 -0.5294  1.4182 -0.2079
 6126TIP3    H239870   2.752   6.201  11.741  1.2142  0.5331  0.4306
 6127TIP3   OH239871   3.076   5.009   3.200 -0.3769  1.1024  0.3420
 6127TIP3    H139872   3.136   5.027   3.128 -0.9610  2.5001  0.1781
 6127TIP3    H239873   3.129   5.019   3.279 -0.0016  0.6556  0.1494
 6128TIP3   OH239874   3.786   3.547   4.603 -0.0136 -0.3350  0.1307
 6128TIP3    H139875   3.733   3.577   4.529 -0.8002 -0.3378  0.6771
 6128TIP3    H239876   3.847   3.483   4.565 -0.0462  0.0550 -0.5986
 6129TIP3   OH239877   5.818   3.777   5.172  0.0282  0.5153 -0.1058
 6129TIP3    H139878   5.873   3.703   5.146 -1.1586 -0.2674 -0.4847
 6129TIP3    H239879   5.873   3.854   5.158  0.8138 -0.1929 -1.0427
 6130TIP3   OH239880   2.686   3.638   4.217  0.0716 -0.1475  0.9892
 6130TIP3    H139881   2.675   3.646   4.311 -0.9251  0.5435  0.8322
 6130TIP3    H239882   2.778   3.613   4.205  0.2569 -0.0469  2.1249
 6131TIP3   OH239883   2.850   4.571   2.513 -0.4450  0.0026  0.1065
 6131TIP3    H139884   2.884   4.578   2.603 -1.2228 -1.2139  0.5181
 6131TIP3    H239885   2.922   4.533   2.463 -0.6449 -1.1651  0.6566
 6132TIP3   OH239886   6.513   4.860  16.921  0.2785  0.0646 -0.3064
 6132TIP3    H139887   6.447   4.794  16.944  1.7456 -2.2146 -2.2647
 6132TIP3    H239888   6.462   4.940  16.908 -1.5025 -0.4036  2.7263
 6133TIP3   OH239889   3.144   6.263   3.846 -0.4542  0.2122 -0.1509
 6133TIP3    H139890   3.115   6.248   3.936 -1.3217 -1.0000 -0.6008
 6133TIP3    H239891   3.123   6.355   3.828  1.9178  1.2041  1.6245
 6134TIP3   OH239892   1.114   1.159   3.917  0.2240  0.4200  0.1494
 6134TIP3    H139893   1.061   1.220   3.866  0.3801  0.3622 -0.0834
 6134TIP3    H239894   1.068   1.076   3.912  0.7801  0.1439 -0.7974
 6135TIP3   OH239895   2.967   3.522   1.239  0.3014 -0.4795 -0.1931
 6135TIP3    H139896   2.904   3.482   1.298  0.4665 -2.4986 -1.2824
 6135TIP3    H239897   3.037   3.554   1.296 -0.6988 -0.0915  0.8554
 6136TIP3   OH239898   0.546   1.046   2.612  0.2904  0.3782 -0.0043
 6136TIP3    H139899   0.569   1.031   2.520 -2.4532 -2.1602 -0.4274
 6136TIP3    H239900   0.490   1.123   2.611 -1.3577 -0.7757 -0.8419
 6137TIP3   OH239901   6.762   1.284   0.163 -0.5515  0.1702 -0.8239
 6137TIP3    H139902   6.749   1.374   0.135  1.3357  1.4447  1.9746
 6137TIP3    H239903   6.857   1.271   0.160 -0.6853 -1.2838  0.0687
 6138TIP3   OH239904   1.429   6.120  10.823  0.0944  0.4738  0.4857
 6138TIP3    H139905   1.350   6.125  10.769 -0.3573  2.8340  1.2532
 6138TIP3    H239906   1.473   6.040  10.794 -1.0042  0.7267 -2.1277
 6139TIP3   OH239907   0.965   4.628  11.844 -0.2222  0.4213 -0.4773
 6139TIP3    H139908   0.960   4.704  11.901  2.4186  1.2180 -1.1648
 6139TIP3    H239909   0.942   4.554  11.900 -1.8583  1.5778  0.4491
 6140TIP3   OH239910   0.130   5.039   3.832  0.6488 -0.6140 -0.4565
 6140TIP3    H139911   0.080   5.120   3.825  1.7387  0.2638  1.1324
 6140TIP3    H239912   0.073   4.971   3.796 -0.4058  0.8056 -1.5507
 6141TIP3   OH239913   3.529   4.809  11.909 -0.0959 -0.3252  0.8181
 6141TIP3    H139914   3.505   4.839  11.821 -0.1363 -2.7067 -0.0829
 6141TIP3    H239915   3.490   4.873  11.968 -4.0830 -0.9963 -0.7501
 6142TIP3   OH239916   1.395   2.794   3.031 -0.1764 -0.4726 -0.3003
 6142TIP3    H139917   1.441   2.846   2.965  2.7771 -1.2997  0.9034
 6142TIP3    H239918   1.392   2.706   2.995  2.1900 -1.1125  0.8393
 6143TIP3   OH239919   3.298   0.685   4.054  0.2881 -0.0876 -0.2434
 6143TIP3    H139920   3.288   0.679   4.149  1.7180 -3.2718 -0.1663
 6143TIP3    H239921   3.366   0.752   4.041  1.3013 -0.7958  1.1365
 6144TIP3   OH239922   4.235   2.301  15.321  0.0425  0.4094  0.1771
 6144TIP3    H139923   4.217   2.387  15.284  0.6639  0.5222  0.1218
 6144TIP3    H239924   4.325   2.307  15.353  0.3536 -0.4559 -0.5086
 6145TIP3   OH239925   0.355   1.400   4.061  0.6636 -0.6711  0.2740
 6145TIP3    H139926   0.414   1.330   4.034  1.2445  0.2064 -0.8469
 6145TIP3    H239927   0.315   1.368   4.141  3.1288 -1.0715  1.4500
 6146TIP3   OH239928   4.409   6.001   3.685 -0.0478  0.7903 -0.0468
 6146TIP3    H139929   4.354   6.011   3.762 -0.0613  0.8174 -0.0598
 6146TIP3    H239930   4.456   5.919   3.700 -0.9680  0.1545 -0.5924
 6147TIP3   OH239931   2.240   5.599  16.937  0.2311 -0.4087  0.1754
 6147TIP3    H139932   2.244   5.628  16.846  0.8178  0.1141  0.3678
 6147TIP3    H239933   2.269   5.508  16.935  0.6579 -0.2661 -0.1002
 6148TIP3   OH239934   3.506   2.968   5.888 -0.1406  0.3119 -0.3652
 6148TIP3    H139935   3.490   2.944   5.979 -0.5598  0.9992 -0.2521
 6148TIP3    H239936   3.445   3.039   5.870  0.9205  1.1552 -0.7564
 6149TIP3   OH239937   4.727   5.359  15.898  0.0864  0.2109  0.0277
 6149TIP3    H139938   4.776   5.441  15.906 -0.9991  0.9657 -0.8636
 6149TIP3    H239939   4.655   5.368  15.960 -0.2545  0.0921 -0.3502
 6150TIP3   OH239940   1.708   1.978   2.441 -0.0707 -0.0141  1.0854
 6150TIP3    H139941   1.677   2.011   2.526 -0.3905  1.4609  0.4238
 6150TIP3    H239942   1.766   2.047   2.409  0.4497 -0.7955  0.3236
 6151TIP3   OH239943   2.627   6.327  17.172  0.0141  0.1956  0.2445
 6151TIP3    H139944   2.554   6.343  17.232  0.3340 -0.5575  0.8564
 6151TIP3    H239945   2.597   6.254  17.118 -1.0667  2.1026 -1.8866
 6152TIP3   OH239946   1.061   4.754   2.819 -0.0173 -0.0038 -0.0746
 6152TIP3    H139947   1.123   4.703   2.767  0.5199  0.7460 -0.1704
 6152TIP3    H239948   1.024   4.818   2.757 -0.3012  0.0726  0.1711
 6153TIP3   OH239949   2.804   3.560   2.203 -0.5003  0.1248 -0.0961
 6153TIP3    H139950   2.856   3.482   2.222  0.6407  0.8383 -0.2009
 6153TIP3    H239951   2.815   3.616   2.280  0.0489  0.8726 -0.6974
 6154TIP3   OH239952   1.527   5.329  13.733 -0.2012 -1.0020 -0.0891
 6154TIP3    H139953   1.483   5.408  13.765 -0.6641 -1.3805  0.2171
 6154TIP3    H239954   1.520   5.335  13.638  1.4083  0.2628 -0.1829
 6155TIP3   OH239955   1.107   0.264  14.793  0.6194 -0.5264  0.8759
 6155TIP3    H139956   1.028   0.297  14.750 -0.2507 -2.7301  0.6552
 6155TIP3    H239957   1.179   0.303  14.742 -0.2369  1.9065  1.3782
 6156TIP3   OH239958   3.479   0.478  14.193  0.3305  0.3303 -0.5835
 6156TIP3    H139959   3.437   0.394  14.212  0.5463 -0.1743 -2.2158
 6156TIP3    H239960   3.553   0.482  14.255 -0.9653  0.3790  1.0362
 6157TIP3   OH239961   6.639   5.184  12.315  0.0107  0.5779 -0.1343
 6157TIP3    H139962   6.584   5.234  12.376 -1.2176 -0.1415 -0.6087
 6157TIP3    H239963   6.647   5.098  12.356  1.5315  0.9121  0.3382
 6158TIP3   OH239964   2.775   0.164   4.244 -0.0952  0.5794 -0.2083
 6158TIP3    H139965   2.781   0.118   4.328 -3.5976 -0.5312 -0.3833
 6158TIP3    H239966   2.749   0.253   4.266 -0.8194  0.3407 -0.0620
 6159TIP3   OH239967   4.350   5.685   2.167 -0.1883  0.1273 -0.3022
 6159TIP3    H139968   4.274   5.634   2.196 -0.8625  1.0741 -0.3742
 6159TIP3    H239969   4.423   5.648   2.216 -0.6239 -1.0343 -0.4957
 6160TIP3   OH239970   2.910   3.662  14.954  0.2367  0.2461  0.0572
 6160TIP3    H139971   2.817   3.676  14.938 -0.0054 -1.6010 -0.4120
 6160TIP3    H239972   2.925   3.570  14.931  2.0263  0.2966  0.8202
 6161TIP3   OH239973   5.842   3.790   5.523  0.3152 -0.1147  0.4070
 6161TIP3    H139974   5.923   3.803   5.573 -0.7741  0.0614  2.2077
 6161TIP3    H239975   5.814   3.879   5.500  0.5184 -0.1645 -0.0402
 6162TIP3   OH239976   5.841   1.750   0.386  0.6695 -0.0955  0.3071
 6162TIP3    H139977   5.780   1.781   0.453  1.0552  0.0086  0.6109
 6162TIP3    H239978   5.793   1.680   0.341 -0.2675  1.0080 -0.4752
 6163TIP3   OH239979   1.889   1.641  11.455  0.0768 -0.3963 -0.3914
 6163TIP3    H139980   1.850   1.728  11.448  0.3966 -0.3215 -1.4040
 6163TIP3    H239981   1.821   1.582  11.420 -0.6830 -0.7338  1.5415
 6164TIP3   OH239982   0.132   5.490  16.492  0.4771  0.1352  0.4718
 6164TIP3    H139983   0.089   5.574  16.503 -0.4751 -0.1887 -0.6979
 6164TIP3    H239984   0.141   5.478  16.398  0.9427 -0.9104  0.6251
 6165TIP3   OH239985   6.593   3.281   5.356  0.8777  0.0132  0.1135
 6165TIP3    H139986   6.593   3.328   5.439 -1.0766 -0.7378  0.5990
 6165TIP3    H239987   6.512   3.308   5.313  1.9047  0.4821 -1.6461
 6166TIP3   OH239988   6.571   4.356  13.306 -0.4201 -0.3024 -0.2809
 6166TIP3    H139989   6.648   4.305  13.334 -1.2453 -0.7226  1.3563
 6166TIP3    H239990   6.507   4.290  13.281 -0.6371  0.0213 -0.5812
 6167TIP3   OH239991   3.244   0.581  10.697 -0.3141 -0.2155 -0.2653
 6167TIP3    H139992   3.236   0.671  10.665 -2.1225 -0.4311 -0.5286
 6167TIP3    H239993   3.338   0.564  10.696  0.2810  2.3546  1.8124
 6168TIP3   OH239994   5.222   5.898   1.032 -0.0738 -0.5777  0.0258
 6168TIP3    H139995   5.151   5.889   0.969 -0.0951 -0.7296  0.0687
 6168TIP3    H239996   5.251   5.989   1.025 -0.6975 -0.3393  0.4569
 6169TIP3   OH239997   2.577   3.560   1.495 -0.1540 -0.1395 -0.0181
 6169TIP3    H139998   2.489   3.587   1.523  1.0277  1.3164  2.5574
 6169TIP3    H239999   2.617   3.639   1.461  1.6195  0.3857  2.9752
 6170TIP3   OH240000   3.812   0.539  13.448  0.1806 -0.0997  0.1691
 6170TIP3    H140001   3.820   0.474  13.518  1.0864  0.7654  0.9037
 6170TIP3    H240002   3.758   0.609  13.486 -1.6951 -0.8381 -0.9695
 6171TIP3   OH240003   3.314   1.401  11.629 -0.1974 -0.4091  0.0217
 6171TIP3    H140004   3.383   1.377  11.568 -1.1502 -0.8782 -0.8930
 6171TIP3    H240005   3.234   1.406  11.576 -1.3645 -2.3583  1.4408
 6172TIP3   OH240006   6.461   1.203  11.132 -0.0480 -0.0360 -0.3077
 6172TIP3    H140007   6.396   1.252  11.183  0.4861 -0.9169  1.2777
 6172TIP3    H240008   6.514   1.270  11.089 -2.5772  0.7443 -2.5395
 6173TIP3   OH240009   1.897   1.150  11.667 -0.5524 -0.3654  0.6774
 6173TIP3    H140010   1.890   1.234  11.714 -1.6216  1.2337 -2.1460
 6173TIP3    H240011   1.814   1.106  11.684 -0.8016  0.0531  0.5552
 6174TIP3   OH240012   6.005   3.165   5.503  0.1354  0.0970 -0.1451
 6174TIP3    H140013   5.965   3.223   5.438 -0.6993  2.5297  2.3479
 6174TIP3    H240014   6.099   3.170   5.484  0.0516  1.9711 -0.3111
 6175TIP3   OH240015   6.687   6.772   3.243 -0.2354  0.1452 -0.4520
 6175TIP3    H140016   6.721   6.824   3.170 -1.1950  0.1576 -0.9000
 6175TIP3    H240017   6.731   6.807   3.320  2.6774 -1.4672 -1.2399
 6176TIP3   OH240018   5.925   2.316  12.281 -0.2240 -0.5728 -0.2071
 6176TIP3    H140019   5.927   2.225  12.309  0.1265 -0.2691  0.8011
 6176TIP3    H240020   5.985   2.361  12.342  0.2367  0.1858 -1.1899
 6177TIP3   OH240021   4.159   5.717  16.993 -0.0817  0.4009  0.0286
 6177TIP3    H140022   4.155   5.802  16.950 -1.1831  0.1807 -0.3524
 6177TIP3    H240023   4.240   5.678  16.963  0.4407  1.3193  0.2223
 6178TIP3   OH240024   0.944   0.671   0.335  0.3525 -0.1928 -0.0803
 6178TIP3    H140025   0.996   0.709   0.264 -1.5547  0.3119 -1.2602
 6178TIP3    H240026   1.006   0.662   0.408  1.5105  2.7750 -0.5680
 6179TIP3   OH240027   1.201   4.742  15.679  0.6493  0.4040  0.4388
 6179TIP3    H140028   1.133   4.778  15.737  0.0654 -1.6165  1.1001
 6179TIP3    H240029   1.245   4.818  15.643 -0.5840  1.7531  1.6676
 6180TIP3   OH240030   6.463   2.628  11.667  0.0191  0.0264 -0.6374
 6180TIP3    H140031   6.371   2.629  11.640 -0.0693  0.9652 -0.3392
 6180TIP3    H240032   6.486   2.720  11.676  0.8461 -0.2135 -0.2154
 6181TIP3   OH240033   2.752   3.152   2.904  0.0965  0.2224  0.0339
 6181TIP3    H140034   2.814   3.223   2.889 -1.9398  1.9787 -0.4983
 6181TIP3    H240035   2.675   3.195   2.942 -0.5759 -1.9708  1.3209
 6182TIP3   OH240036   0.843   0.299   4.859 -0.2065  0.2033  0.0082
 6182TIP3    H140037   0.822   0.357   4.932 -0.7333 -0.6916  0.5850
 6182TIP3    H240038   0.837   0.355   4.782  0.0524  1.0907  0.6121
 6183TIP3   OH240039   4.875   4.143  13.973  0.2434  0.2043  0.3695
 6183TIP3    H140040   4.820   4.208  14.017 -1.9096  0.1937 -2.1002
 6183TIP3    H240041   4.892   4.181  13.886 -0.5225 -2.2019 -0.9047
 6184TIP3   OH240042   0.246   5.582   3.374  0.3556 -0.1196 -0.5178
 6184TIP3    H140043   0.164   5.623   3.349  0.4412  2.0715  2.2203
 6184TIP3    H240044   0.306   5.602   3.302 -0.6745  1.1103 -1.0756
 6185TIP3   OH240045   4.451   2.380   0.127 -0.4241 -0.3003  0.8032
 6185TIP3    H140046   4.456   2.286   0.147 -0.4520 -0.1643  1.4666
 6185TIP3    H240047   4.494   2.388   0.042  2.6936 -0.4784  2.1869
 6186TIP3   OH240048   6.541   2.420   0.572 -0.0700 -1.3745  0.6477
 6186TIP3    H140049   6.497   2.335   0.573 -0.1762 -1.3245  0.2534
 6186TIP3    H240050   6.633   2.399   0.556 -0.4700 -1.2745 -2.3389
 6187TIP3   OH240051   1.470   1.189  12.891 -0.0588 -0.0022 -0.4550
 6187TIP3    H140052   1.550   1.212  12.939 -0.6273  0.2550  0.3985
 6187TIP3    H240053   1.470   1.093  12.889  0.3059 -0.0011 -0.5076
 6188TIP3   OH240054   3.766   2.220  13.262 -0.0780  0.2237  0.1410
 6188TIP3    H140055   3.700   2.267  13.313 -1.1175 -1.1334  0.0978
 6188TIP3    H240056   3.718   2.186  13.186  1.1981  1.2459 -1.1891
 6189TIP3   OH240057   3.650   1.022  11.756 -0.1412 -0.0929  0.0110
 6189TIP3    H140058   3.558   0.996  11.764  0.5794 -2.8145  0.3706
 6189TIP3    H240059   3.670   1.069  11.836 -0.9135 -0.5661  0.4870
 6190TIP3   OH240060   5.538   3.057  12.316  0.1170  0.6940  0.6161
 6190TIP3    H140061   5.446   3.084  12.311 -0.0461 -0.0548 -1.1343
 6190TIP3    H240062   5.579   3.123  12.371 -1.4995  0.9290  1.6277
 6191TIP3   OH240063   5.308   2.303  15.991  0.0273  0.2763  0.5434
 6191TIP3    H140064   5.226   2.343  16.018 -1.0426 -1.2106 -0.3459
 6191TIP3    H240065   5.307   2.310  15.895  1.0569  0.4499  0.5333
 6192TIP3   OH240066   2.182   2.315   5.034  0.0455  0.0597 -0.9152
 6192TIP3    H140067   2.269   2.339   5.064 -0.8456  1.4920  0.7060
 6192TIP3    H240068   2.187   2.220   5.019  1.3454 -0.2717  1.1695
 6193TIP3   OH240069   0.421   3.595  16.181  0.0368  0.1550  0.4612
 6193TIP3    H140070   0.416   3.643  16.098 -1.5204  0.3055  0.6179
 6193TIP3    H240071   0.507   3.619  16.217  0.2901  0.9265 -0.5991
 6194TIP3   OH240072   1.585   6.703   6.335 -0.1146  0.0123  0.3303
 6194TIP3    H140073   1.600   6.626   6.280 -1.0080 -0.1967  0.3718
 6194TIP3    H240074   1.643   6.770   6.298  0.9103 -0.7516  0.4828
 6195TIP3   OH240075   5.503   5.312  14.627  0.1791 -0.3543  0.6635
 6195TIP3    H140076   5.465   5.263  14.699  0.2387 -0.7988  0.3992
 6195TIP3    H240077   5.542   5.245  14.570  1.1421  0.0632  0.7961
 6196TIP3   OH240078   4.998   0.447  14.220 -0.5656 -0.2115 -0.2900
 6196TIP3    H140079   5.007   0.438  14.126  0.2310 -0.8042 -0.1690
 6196TIP3    H240080   4.963   0.535  14.233  3.3642  1.6628 -0.9497
 6197TIP3   OH240081   0.026   6.792   4.462  0.0244 -0.1175 -0.3847
 6197TIP3    H140082  -0.025   6.775   4.541 -0.0497  1.7646  0.0212
 6197TIP3    H240083  -0.038   6.794   4.391 -0.3001  0.7307 -0.0916
 6198TIP3   OH240084   5.664   1.917  11.279 -0.0938 -0.3077 -0.3379
 6198TIP3    H140085   5.657   1.824  11.300 -1.8440  0.3013  2.1735
 6198TIP3    H240086   5.745   1.924  11.228  0.5426 -3.0600  0.1318
 6199TIP3   OH240087   5.911   6.705   1.399 -0.1174  0.1550  0.5802
 6199TIP3    H140088   5.822   6.737   1.413  0.1416  1.2192 -0.1005
 6199TIP3    H240089   5.908   6.662   1.313 -0.2366 -0.8377  1.0676
 6200TIP3   OH240090   1.005   2.974   1.946  0.8791 -0.7368  0.0909
 6200TIP3    H140091   1.040   3.005   2.029  2.3100 -2.5764  0.2219
 6200TIP3    H240092   0.955   2.896   1.969  1.8903 -1.6804 -0.8460
 6201TIP3   OH240093   6.684   5.809  11.371 -0.1951 -0.1403 -0.1868
 6201TIP3    H140094   6.645   5.769  11.293  0.4025  1.0128 -1.0995
 6201TIP3    H240095   6.769   5.842  11.342  0.6022 -0.8307  1.2831
 6202TIP3   OH240096   2.525   5.409  17.174 -0.1937 -0.3693  0.0520
 6202TIP3    H140097   2.573   5.377  17.250  0.8224  0.1207 -0.3752
 6202TIP3    H240098   2.547   5.348  17.104  1.6463  1.1141 -0.7336
 6203TIP3   OH240099   4.580   4.685  12.497 -0.5916  0.1797  0.0627
 6203TIP3    H140100   4.608   4.628  12.426  0.3050  0.7434 -0.0486
 6203TIP3    H240101   4.650   4.678  12.563 -1.7590 -0.9141  1.2309
 6204TIP3   OH240102   1.376   5.781   0.965  0.0925  0.2528 -0.4064
 6204TIP3    H140103   1.321   5.712   1.003  1.1109 -1.2210 -1.4986
 6204TIP3    H240104   1.401   5.835   1.039 -1.6044  0.0997  0.3349
 6205TIP3   OH240105   4.909   2.635   2.312  0.2578  0.8428  0.5351
 6205TIP3    H140106   4.917   2.579   2.389  0.7617 -1.3636 -1.0147
 6205TIP3    H240107   4.972   2.599   2.249 -1.9337  0.8173 -1.8446
 6206TIP3   OH240108   2.140   5.464   1.306  0.1799  0.1725  0.7033
 6206TIP3    H140109   2.197   5.541   1.307  0.6692 -0.1201 -1.1143
 6206TIP3    H240110   2.068   5.489   1.249  0.3895 -0.7359  0.0186
 6207TIP3   OH240111   0.993   2.322   2.939 -0.5950 -0.3735 -0.0656
 6207TIP3    H140112   1.041   2.399   2.971  0.5506 -1.2111  0.2935
 6207TIP3    H240113   0.912   2.322   2.990 -1.6006  1.7426 -1.5161
 6208TIP3   OH240114   0.578   4.339  16.709  0.2373  0.4994 -0.1578
 6208TIP3    H140115   0.528   4.377  16.780  1.0890 -1.6051  1.6884
 6208TIP3    H240116   0.664   4.382  16.714  0.7150 -0.5453  0.9589
 6209TIP3   OH240117   0.262   2.960  14.108 -0.0568  0.7416 -0.0083
 6209TIP3    H140118   0.335   2.925  14.056 -1.9418  1.2038 -3.2183
 6209TIP3    H240119   0.187   2.906  14.083 -1.1798  1.2425  2.0429
 6210TIP3   OH240120   2.980   6.171  13.105 -0.0497  0.0873  0.1588
 6210TIP3    H140121   2.909   6.122  13.062 -0.4788  0.4610  0.4270
 6210TIP3    H240122   3.049   6.176  13.039 -0.5234  0.2566 -0.3316
 6211TIP3   OH240123   0.822   3.412   6.738  0.4869  0.3908 -0.1175
 6211TIP3    H140124   0.888   3.349   6.768 -1.9052 -2.8537 -1.1930
 6211TIP3    H240125   0.762   3.420   6.812  0.0516  0.3750 -0.4727
 6212TIP3   OH240126   2.103   3.602  16.324  0.2592 -0.0379  0.0668
 6212TIP3    H140127   2.177   3.549  16.294  0.4446  0.2571  0.0005
 6212TIP3    H240128   2.036   3.589  16.256  1.0054  1.3582 -0.9897
 6213TIP3   OH240129   4.123   0.208   4.795 -0.1644 -0.2167  0.1590
 6213TIP3    H140130   4.119   0.301   4.770  0.9030 -0.9870 -3.4573
 6213TIP3    H240131   4.216   0.187   4.797 -0.3900 -1.2420  1.0409
 6214TIP3   OH240132   0.339   3.421   2.030  0.1357 -0.1341 -0.1968
 6214TIP3    H140133   0.396   3.390   2.100  1.5087 -0.1152 -1.2607
 6214TIP3    H240134   0.395   3.423   1.952 -0.5416  2.5881 -0.7225
 6215TIP3   OH240135   1.837   5.072  11.702  0.3622  0.0246 -0.0885
 6215TIP3    H140136   1.753   5.069  11.750 -0.0463 -3.0138 -0.7642
 6215TIP3    H240137   1.815   5.110  11.617  0.1677  1.2868  0.5032
 6216TIP3   OH240138   5.400   0.416   2.788 -0.1404  0.0816 -0.2094
 6216TIP3    H140139   5.361   0.333   2.759  1.1573 -0.1491 -1.4403
 6216TIP3    H240140   5.396   0.472   2.710 -0.5308  1.0116  0.4611
 6217TIP3   OH240141   2.026   5.542   4.183 -0.2620 -0.2788  0.2369
 6217TIP3    H140142   2.000   5.461   4.139 -1.2244 -1.6320  3.0581
 6217TIP3    H240143   1.946   5.594   4.187 -0.0964 -0.0122  0.1602
 6218TIP3   OH240144   5.781   5.412  14.787  0.2232 -0.0614 -0.0451
 6218TIP3    H140145   5.716   5.361  14.739 -0.1313 -0.7112  1.1022
 6218TIP3    H240146   5.865   5.381  14.752 -0.0321 -0.4539 -0.3277
 6219TIP3   OH240147   4.763   0.503   0.162 -0.5224  0.2457  0.6018
 6219TIP3    H140148   4.742   0.528   0.252  0.3342 -1.1639  1.2353
 6219TIP3    H240149   4.705   0.429   0.143  0.8447 -0.9434  0.8588
 6220TIP3   OH240150   5.782   5.489  12.337 -0.0095  0.1156 -0.2204
 6220TIP3    H140151   5.829   5.486  12.253 -1.3338 -0.0282 -0.9824
 6220TIP3    H240152   5.689   5.490  12.313 -0.4417 -0.7013  1.2591
 6221TIP3   OH240153   4.173   4.262   4.150 -0.0643  0.1485 -0.9051
 6221TIP3    H140154   4.098   4.284   4.205 -0.5598  0.5941 -1.7396
 6221TIP3    H240155   4.189   4.169   4.167 -0.0433  0.3370  0.1736
 6222TIP3   OH240156   4.067   1.565   2.991 -0.6854 -0.2707 -0.1979
 6222TIP3    H140157   4.090   1.650   3.027 -1.7488 -0.0239 -0.0743
 6222TIP3    H240158   4.108   1.564   2.904 -1.6915  0.8944 -0.7232
 6223TIP3   OH240159   3.149   2.751   3.127  0.6228 -0.0668 -0.2990
 6223TIP3    H140160   3.213   2.698   3.079  0.5702  0.6645 -1.1999
 6223TIP3    H240161   3.080   2.688   3.151  0.9295 -0.5582 -0.6840
 6224TIP3   OH240162   3.523   2.432  11.706  0.2758  0.1741  0.0187
 6224TIP3    H140163   3.456   2.366  11.685 -2.3264  1.4560  3.4538
 6224TIP3    H240164   3.570   2.396  11.780  0.4512  1.1516  0.3930
 6225TIP3   OH240165   3.967   2.512   4.283 -0.1917 -0.4746  0.0562
 6225TIP3    H140166   3.872   2.512   4.291 -0.2099  0.5653 -0.0325
 6225TIP3    H240167   3.998   2.464   4.360 -0.7223  1.0189  1.2543
 6226TIP3   OH240168   2.745   6.702  14.770  0.2260 -0.0951 -1.0115
 6226TIP3    H140169   2.685   6.771  14.797  0.1759 -0.1174 -1.0652
 6226TIP3    H240170   2.695   6.621  14.782  1.0363 -0.3199  1.2107
 6227TIP3   OH240171   3.048   2.120  16.779 -0.3227 -0.0274  0.1640
 6227TIP3    H140172   3.021   2.184  16.846 -1.0412  1.2614 -1.3019
 6227TIP3    H240173   3.084   2.047  16.830  1.5899  1.9730  1.8937
 6228TIP3   OH240174   0.360   2.310  12.670 -0.5928 -0.6469 -0.0491
 6228TIP3    H140175   0.361   2.405  12.663 -1.1037 -0.4430  1.8700
 6228TIP3    H240176   0.385   2.278  12.584  0.3965  1.2297 -0.4936
 6229TIP3   OH240177   5.486   6.353   0.671 -0.5246  0.1578  0.1228
 6229TIP3    H140178   5.512   6.411   0.743 -1.7961 -0.9400  1.5388
 6229TIP3    H240179   5.426   6.405   0.618 -3.1082 -0.2970  2.3875
 6230TIP3   OH240180   5.057   5.992   1.554 -0.5906 -0.3287  0.4683
 6230TIP3    H140181   5.046   5.958   1.465  0.3324  0.1074  0.1726
 6230TIP3    H240182   5.013   6.076   1.553  1.4903  0.8449 -0.3512
 6231TIP3   OH240183   2.259   5.293  11.943  0.0982 -0.1805 -0.1062
 6231TIP3    H140184   2.172   5.283  11.981  0.7195  0.5970  1.6214
 6231TIP3    H240185   2.318   5.291  12.018  1.4000  1.2563 -1.0474
 6232TIP3   OH240186   1.333   4.915  11.395  0.4288  0.1601  0.5816
 6232TIP3    H140187   1.331   4.848  11.327  1.3633  1.1854 -0.4996
 6232TIP3    H240188   1.271   4.884  11.461  1.2874 -2.0962  0.4416
 6233TIP3   OH240189   6.184   4.763  10.824 -0.0448  0.9389 -0.5331
 6233TIP3    H140190   6.131   4.842  10.813 -2.3308 -0.4937 -0.3422
 6233TIP3    H240191   6.262   4.793  10.870 -1.0285  3.0100 -0.1039
 6234TIP3   OH240192   2.140   3.531  13.401 -0.3167 -0.1572  0.2451
 6234TIP3    H140193   2.229   3.524  13.366 -0.7529  0.4389 -1.0158
 6234TIP3    H240194   2.147   3.592  13.474  0.5268 -1.0799  0.9629
 6235TIP3   OH240195   3.935   6.483  15.950  0.2017  0.8078 -0.2544
 6235TIP3    H140196   3.867   6.550  15.958 -0.2601  0.3392 -0.2070
 6235TIP3    H240197   3.988   6.511  15.876  1.0616  2.1520  0.8377
 6236TIP3   OH240198   4.055   2.746  13.784 -0.1504  0.1007 -0.3241
 6236TIP3    H140199   4.003   2.672  13.816  0.2101 -0.4951 -1.0683
 6236TIP3    H240200   4.098   2.781  13.861  1.0408 -1.5635 -0.1908
 6237TIP3   OH240201   0.518   1.958  14.428 -0.1895 -0.0982  0.3277
 6237TIP3    H140202   0.514   1.987  14.520  2.0295  1.3155  0.0770
 6237TIP3    H240203   0.461   1.882  14.424  0.4273 -0.8407  3.1520
 6238TIP3   OH240204   1.307   0.368  12.503  0.2180 -0.5157  0.0764
 6238TIP3    H140205   1.362   0.402  12.433  1.8827  0.3774  1.7368
 6238TIP3    H240206   1.218   0.394  12.480  0.8257  0.3881 -1.3160
 6239TIP3   OH240207   2.064   3.712   6.292 -0.1666  0.5902 -0.0455
 6239TIP3    H140208   2.116   3.731   6.214 -0.0987 -1.7065 -0.6382
 6239TIP3    H240209   2.077   3.618   6.307 -1.2973  0.6875  1.9205
 6240TIP3   OH240210   4.650   1.527   5.334  0.3193  0.3785  0.7145
 6240TIP3    H140211   4.726   1.546   5.390  0.0621  2.8413  0.3768
 6240TIP3    H240212   4.685   1.529   5.245  0.6273 -3.0103  0.6375
 6241TIP3   OH240213   6.661   6.227   2.203  0.5575  0.3141  0.5468
 6241TIP3    H140214   6.589   6.201   2.146  0.6146  1.4002 -0.0338
 6241TIP3    H240215   6.623   6.224   2.291  0.1741 -0.3390  0.3726
 6242TIP3   OH240216   4.015   0.014   1.197  0.2315 -0.0800 -1.2848
 6242TIP3    H140217   4.047   0.062   1.120  1.1892  1.0297 -0.2337
 6242TIP3    H240218   4.090  -0.039   1.224  0.5077  0.8549 -0.1166
 6243TIP3   OH240219   4.855   1.406  11.181 -0.4227 -0.0588  0.1947
 6243TIP3    H140220   4.836   1.494  11.213  0.6009 -0.2736  1.4723
 6243TIP3    H240221   4.792   1.350  11.227 -2.1361  0.1230 -1.7805
 6244TIP3   OH240222   2.748   1.650  13.194  0.1519 -0.0782  0.4406
 6244TIP3    H140223   2.655   1.627  13.191  0.2973 -0.6684  0.2297
 6244TIP3    H240224   2.775   1.654  13.103 -0.2300  2.5876  0.3815
 6245TIP3   OH240225   1.624   3.223   4.942  0.3405 -0.4014  0.7946
 6245TIP3    H140226   1.641   3.288   5.010  0.2143 -0.8634  1.2836
 6245TIP3    H240227   1.654   3.140   4.981 -0.8016 -0.8555  0.7538
 6246TIP3   OH240228   4.939   2.766  12.601  0.4191  0.6363 -0.2741
 6246TIP3    H140229   4.959   2.845  12.552 -0.7729  0.7742 -0.5772
 6246TIP3    H240230   4.883   2.795  12.673 -0.3248  0.0530 -0.5916
 6247TIP3   OH240231   2.421   0.520  13.628 -0.9671 -0.4424  0.1915
 6247TIP3    H140232   2.455   0.432  13.615 -1.8074 -0.6131 -1.0151
 6247TIP3    H240233   2.490   0.566  13.676  0.0825 -1.3588 -0.4069
 6248TIP3   OH240234   3.418   6.449   2.209  0.7591 -0.2134  0.5531
 6248TIP3    H140235   3.460   6.445   2.295 -1.2823  1.2048  1.7063
 6248TIP3    H240236   3.385   6.538   2.203  1.0037 -0.2254 -1.8213
 6249TIP3   OH240237   2.642   2.811  14.936 -0.0709 -0.5104 -0.0090
 6249TIP3    H140238   2.684   2.897  14.937 -1.5506  0.2444 -0.0921
 6249TIP3    H240239   2.654   2.781  14.846 -1.7674  0.7928 -0.7241
 6250TIP3   OH240240   0.800   5.909  12.800 -0.5567 -0.0944  0.0142
 6250TIP3    H140241   0.877   5.919  12.856  0.4658  0.7070 -1.4600
 6250TIP3    H240242   0.740   5.855  12.851  1.6936 -2.2915  0.5070
 6251TIP3   OH240243   4.273   0.677  13.202 -0.0469 -0.3312  0.3672
 6251TIP3    H140244   4.300   0.754  13.252 -0.5046 -0.2340  0.4748
 6251TIP3    H240245   4.212   0.631  13.260 -0.4157 -0.3328 -0.0170
 6252TIP3   OH240246   0.219   1.180  15.711 -0.2135  0.0448 -0.0979
 6252TIP3    H140247   0.235   1.158  15.803  0.7244  2.2256  0.3196
 6252TIP3    H240248   0.135   1.138  15.691  0.6722 -2.4485  1.0007
 6253TIP3   OH240249   0.644   6.063   5.987  0.5315 -0.4620  0.1858
 6253TIP3    H140250   0.705   6.122   5.942  1.0274 -0.9735  0.1832
 6253TIP3    H240251   0.567   6.060   5.930  1.2099 -1.2233 -0.7211
 6254TIP3   OH240252   1.601   5.069   3.392  0.3922  0.2377 -0.0580
 6254TIP3    H140253   1.535   5.007   3.360 -1.0738  1.8593 -0.3243
 6254TIP3    H240254   1.573   5.091   3.480  0.3712  1.1860 -0.2861
 6255TIP3   OH240255   2.625   1.283   5.316  0.1816  0.4553  0.0866
 6255TIP3    H140256   2.561   1.257   5.382  0.9680 -0.0539  0.6685
 6255TIP3    H240257   2.709   1.252   5.350  0.6942  0.7793 -0.8347
 6256TIP3   OH240258   1.608   0.983   4.858  0.6731 -0.5180  0.1072
 6256TIP3    H140259   1.522   0.947   4.836  1.2221 -2.2415  0.6062
 6256TIP3    H240260   1.662   0.906   4.876  2.0887  0.5657  0.6719
 6257TIP3   OH240261   2.595   4.368  10.749 -0.7994  0.1461 -0.1278
 6257TIP3    H140262   2.629   4.362  10.659 -0.0787  1.8676 -0.0125
 6257TIP3    H240263   2.540   4.290  10.759 -1.8887  0.5282 -2.4771
 6258TIP3   OH240264   0.760   5.031  15.919  0.1127 -0.3943  0.1819
 6258TIP3    H140265   0.694   4.963  15.907 -1.1751  0.6606  1.0518
 6258TIP3    H240266   0.782   5.059  15.830 -0.4264 -0.9234 -0.1213
 6259TIP3   OH240267   0.685   4.433   3.666  0.3137  0.3084  0.1997
 6259TIP3    H140268   0.598   4.397   3.682 -0.2777  1.9276  0.8527
 6259TIP3    H240269   0.727   4.369   3.608  0.0488 -2.4204  2.7131
 6260TIP3   OH240270   1.090   4.535   1.372  0.0408 -0.5961 -0.5722
 6260TIP3    H140271   1.140   4.535   1.454  0.7553  1.1941 -0.9453
 6260TIP3    H240272   1.092   4.445   1.342  2.0048 -0.8323  0.0878
 6261TIP3   OH240273   3.075   2.694  16.728 -0.8247 -0.0334  0.0890
 6261TIP3    H140274   3.027   2.711  16.647 -2.8432 -0.4088  1.1465
 6261TIP3    H240275   3.163   2.727  16.711 -0.9946 -0.7020 -2.4768
 6262TIP3   OH240276   3.329   5.434  15.903  0.5091  0.3184 -0.0876
 6262TIP3    H140277   3.299   5.391  15.822 -0.8084 -0.0720  0.5747
 6262TIP3    H240278   3.339   5.362  15.966 -2.1349  0.9165  1.1645
 6263TIP3   OH240279   5.373   6.412  16.998 -0.1011 -0.2367 -0.1014
 6263TIP3    H140280   5.308   6.342  17.001 -0.5666  0.1333 -1.1017
 6263TIP3    H240281   5.452   6.370  16.964  0.0411 -0.5705  0.6206
 6264TIP3   OH240282   2.317   4.144  11.054  0.2131 -0.3426 -0.3329
 6264TIP3    H140283   2.293   4.233  11.081 -1.3600 -0.2581 -1.8643
 6264TIP3    H240284   2.233   4.101  11.036  1.0315 -1.5150 -1.5052
 6265TIP3   OH240285   6.482   4.257  16.150  0.0602 -0.1078 -0.8577
 6265TIP3    H140286   6.538   4.202  16.204  0.7586 -0.3070 -1.7521
 6265TIP3    H240287   6.396   4.216  16.156 -0.0129  0.1918  0.5204
 6266TIP3   OH240288   2.319   3.332  14.758  0.0997 -0.5461  0.4252
 6266TIP3    H140289   2.369   3.261  14.718 -0.6539 -0.7644 -0.1426
 6266TIP3    H240290   2.228   3.306  14.748 -0.1629 -1.4879  3.8296
 6267TIP3   OH240291   3.270   4.438  10.588  0.8133  0.2378  0.1807
 6267TIP3    H140292   3.201   4.497  10.559 -1.1141 -1.2824  1.4713
 6267TIP3    H240293   3.256   4.358  10.537  1.1684 -0.3313  0.9549
 6268TIP3   OH240294   3.350   2.737  14.592 -0.2310  0.1491 -0.5458
 6268TIP3    H140295   3.418   2.672  14.607  0.6973  1.2225  0.0726
 6268TIP3    H240296   3.323   2.725  14.501  0.4916 -0.5641 -0.6671
 6269TIP3   OH240297   5.821   3.347   1.599  0.0620 -0.7207  0.6564
 6269TIP3    H140298   5.898   3.338   1.543 -0.0179 -1.3257  0.6364
 6269TIP3    H240299   5.789   3.257   1.611  0.3886 -0.6756  2.0986
 6270TIP3   OH240300   6.362   2.130   6.144 -0.6606  0.4257 -0.1538
 6270TIP3    H140301   6.390   2.158   6.231 -0.5927 -1.2905  0.4302
 6270TIP3    H240302   6.295   2.063   6.161 -0.5556 -0.0229 -1.4044
 6271TIP3   OH240303   0.809   6.766  16.610  0.5999  0.2441 -0.1405
 6271TIP3    H140304   0.723   6.726  16.598  0.8967 -1.1512  1.7569
 6271TIP3    H240305   0.849   6.766  16.523  0.2770 -3.0296 -0.4080
 6272TIP3   OH240306   1.106   2.566  12.825  0.0174  0.5001 -0.0416
 6272TIP3    H140307   1.148   2.534  12.905 -0.1498  1.4072  0.4311
 6272TIP3    H240308   1.013   2.563  12.844 -0.0782 -0.2375 -0.5908
 6273TIP3   OH240309   2.434   4.591   1.338  0.8578 -0.0413  0.0075
 6273TIP3    H140310   2.511   4.547   1.303  1.1025 -1.4678  2.1335
 6273TIP3    H240311   2.360   4.542   1.302  1.0077  0.1933 -0.6175
 6274TIP3   OH240312   1.267   5.796  11.941 -0.1039 -0.3746 -0.1977
 6274TIP3    H140313   1.359   5.824  11.942  1.0609 -3.7999  0.9873
 6274TIP3    H240314   1.264   5.725  11.877 -1.7742 -0.7377  0.2301
 6275TIP3   OH240315   6.414   1.627   1.769 -0.4586 -0.1286  0.0301
 6275TIP3    H140316   6.369   1.543   1.758 -1.6187  0.5203 -0.3934
 6275TIP3    H240317   6.343   1.690   1.785  0.4831  0.5453  1.8084
 6276TIP3   OH240318   2.707   1.790  16.502 -0.1797  0.0150  0.2260
 6276TIP3    H140319   2.767   1.781  16.428 -0.7519  2.1228 -0.5704
 6276TIP3    H240320   2.646   1.859  16.476 -0.8330  0.3485  2.3905
 6277TIP3   OH240321   4.930   3.334   0.945 -0.6928  0.0508  0.0330
 6277TIP3    H140322   4.947   3.288   1.026 -1.0970 -0.2381 -0.0464
 6277TIP3    H240323   4.971   3.280   0.877 -0.7187  0.0768 -0.0035
 6278TIP3   OH240324   2.230   6.335   5.411 -1.0523 -0.1812 -1.1189
 6278TIP3    H140325   2.320   6.330   5.444 -1.6558 -1.0238  0.5282
 6278TIP3    H240326   2.231   6.408   5.350  0.1292  1.6209  0.9275
 6279TIP3   OH240327   5.791   6.635  14.788 -0.5640 -0.2262  0.9468
 6279TIP3    H140328   5.854   6.703  14.765 -0.8112 -0.5401 -0.7432
 6279TIP3    H240329   5.845   6.555  14.796 -0.6234 -0.3294  0.3458
 6280TIP3   OH240330   4.213   2.699   5.144 -0.5788  0.0569  0.0913
 6280TIP3    H140331   4.274   2.674   5.213 -0.8171 -3.4263 -0.7865
 6280TIP3    H240332   4.170   2.778   5.177  1.4080  0.2315  2.5448
 6281TIP3   OH240333   5.760   4.541   0.326 -0.5052 -0.0559 -0.0380
 6281TIP3    H140334   5.851   4.513   0.315 -0.6938 -0.3294 -1.0640
 6281TIP3    H240335   5.760   4.634   0.304 -0.3809  0.0733  0.5037
 6282TIP3   OH240336   5.558   2.309   3.024 -0.5472 -0.0844 -0.4876
 6282TIP3    H140337   5.518   2.382   3.071 -0.6768 -0.8434  0.6225
 6282TIP3    H240338   5.634   2.285   3.077  0.5925  0.4356 -1.8380
 6283TIP3   OH240339   4.953   0.042   5.272  0.1628  0.2541 -0.0739
 6283TIP3    H140340   4.935  -0.028   5.335 -1.3228 -0.2787 -1.0388
 6283TIP3    H240341   5.005   0.000   5.203 -0.0582  0.2943 -0.2662
 6284TIP3   OH240342   5.214   4.247   3.468 -0.1248 -0.0618 -0.8199
 6284TIP3    H140343   5.181   4.217   3.553  0.8625 -1.4084 -0.8811
 6284TIP3    H240344   5.264   4.326   3.487 -0.7111  0.1799 -0.2849
 6285TIP3   OH240345   2.828   5.544  14.225 -0.7103 -0.7684 -0.3399
 6285TIP3    H140346   2.838   5.603  14.300 -2.7261 -0.0777 -0.5495
 6285TIP3    H240347   2.825   5.602  14.149 -0.4291 -1.3318 -0.7931
 6286TIP3   OH240348   4.635   0.587   5.287 -0.0784 -0.1167  0.0789
 6286TIP3    H140349   4.676   0.504   5.310 -1.7071 -1.1022 -0.3809
 6286TIP3    H240350   4.555   0.590   5.340 -1.2503 -0.0023 -1.6070
 6287TIP3   OH240351   4.170   0.930   5.275  0.0141 -0.2800  0.3271
 6287TIP3    H140352   4.087   0.885   5.260 -0.1792  0.6210 -1.6728
 6287TIP3    H240353   4.146   1.012   5.317  0.4178 -2.0807  4.5857
 6288TIP3   OH240354   1.290   5.570   1.415 -0.0276 -0.5718  0.3781
 6288TIP3    H140355   1.299   5.651   1.465  1.5092  0.4901 -1.4568
 6288TIP3    H240356   1.379   5.547   1.390 -0.6753 -1.1383 -1.6468
 6289TIP3   OH240357   0.814   5.685  15.379 -0.9667 -0.0540  0.4742
 6289TIP3    H140358   0.863   5.603  15.380 -0.8933 -0.0106  0.4510
 6289TIP3    H240359   0.810   5.712  15.471  0.6109  0.8634  0.3218
 6290TIP3   OH240360   5.545   3.769  14.078  0.3981 -0.2465  0.6046
 6290TIP3    H140361   5.482   3.837  14.054  0.6728  0.4157  1.6681
 6290TIP3    H240362   5.614   3.776  14.013  2.1352  2.8781  2.5174
 6291TIP3   OH240363   3.812   3.298  10.641 -0.3043  0.3290  0.1593
 6291TIP3    H140364   3.830   3.377  10.691 -0.2454  0.1859  0.3672
 6291TIP3    H240365   3.868   3.231  10.681 -0.4041  0.1673  0.0311
 6292TIP3   OH240366   3.579   4.340   2.574  0.6045 -0.1499 -0.3169
 6292TIP3    H140367   3.622   4.270   2.525  0.5298 -0.8940  0.6476
 6292TIP3    H240368   3.648   4.376   2.629  1.0721  1.7063 -1.9949
 6293TIP3   OH240369   4.191   0.370  16.908  0.0298  0.7265  0.7104
 6293TIP3    H140370   4.221   0.280  16.897 -2.7379 -0.0788 -1.5896
 6293TIP3    H240371   4.226   0.416  16.832  0.5822  1.3583  1.3392
 6294TIP3   OH240372   2.070   1.603   0.947 -0.2535  0.9359 -0.1289
 6294TIP3    H140373   2.101   1.619   0.857  0.2869 -0.3662 -0.1923
 6294TIP3    H240374   2.125   1.532   0.979 -0.0433  1.7653  1.4610
 6295TIP3   OH240375   1.994   2.998  13.136 -0.3848 -0.0435  0.0601
 6295TIP3    H140376   1.908   2.957  13.140 -1.1528  1.5038  0.0393
 6295TIP3    H240377   1.977   3.087  13.105  0.8778  1.1837  2.5445
 6296TIP3   OH240378   5.703   1.694   5.666 -0.6175 -0.3792 -0.4989
 6296TIP3    H140379   5.785   1.662   5.629 -1.7642 -0.1303 -3.5409
 6296TIP3    H240380   5.717   1.789   5.676 -0.5304 -0.3431 -0.9691
 6297TIP3   OH240381   3.188   3.323   3.966 -0.9183 -0.5482 -0.6759
 6297TIP3    H140382   3.212   3.413   3.944 -1.2861 -0.3004 -0.1064
 6297TIP3    H240383   3.096   3.316   3.939 -1.3349 -0.2832  0.5709
 6298TIP3   OH240384   3.547   4.536  14.525  0.2152  0.2707  0.2182
 6298TIP3    H140385   3.512   4.620  14.496 -1.3400 -0.6667 -0.7795
 6298TIP3    H240386   3.529   4.534  14.619  0.6221  1.2039  0.3312
 6299TIP3   OH240387   4.279   2.247  13.316 -0.4890  0.5155 -0.0481
 6299TIP3    H140388   4.297   2.339  13.295 -1.5956  0.1970 -2.9104
 6299TIP3    H240389   4.351   2.198  13.277 -0.1181  0.1125  1.1077
 6300TIP3   OH240390   1.589   0.358  11.327 -0.1420  0.0611 -0.6116
 6300TIP3    H140391   1.678   0.327  11.316 -0.1380 -0.4452  0.7245
 6300TIP3    H240392   1.583   0.434  11.269  1.5971  0.9770  0.3449
 6301TIP3   OH240393   5.996   0.695   4.478 -0.1993 -0.2334 -0.0166
 6301TIP3    H140394   6.050   0.730   4.407 -0.1221 -0.4829 -0.0807
 6301TIP3    H240395   6.059   0.672   4.547 -0.4165  1.8663  0.9449
 6302TIP3   OH240396   0.559   3.870  14.319 -0.7169  0.0374  0.1124
 6302TIP3    H140397   0.612   3.942  14.285  0.0275 -0.1015  0.9385
 6302TIP3    H240398   0.498   3.911  14.380  0.9015 -0.1822  1.9795
 6303TIP3   OH240399   2.628   4.377  12.102  0.0390 -0.5501 -0.1536
 6303TIP3    H140400   2.677   4.320  12.042 -1.4497  0.4578 -2.4345
 6303TIP3    H240401   2.550   4.326  12.125  1.1778 -1.4447  2.0790
 6304TIP3   OH240402   2.118   1.130   3.944  0.2833  0.0148  0.1857
 6304TIP3    H140403   2.194   1.102   3.995 -0.0759 -2.7367 -0.6398
 6304TIP3    H240404   2.085   1.050   3.904 -2.3372  1.3247 -0.4967
 6305TIP3   OH240405   2.472   3.800   3.254  0.2304  0.0589  0.2692
 6305TIP3    H140406   2.378   3.819   3.253  0.1773 -0.0252  1.4951
 6305TIP3    H240407   2.499   3.822   3.343  1.6107  1.1844 -0.3908
 6306TIP3   OH240408   3.452   3.959  15.524 -0.4602  0.3251 -0.0885
 6306TIP3    H140409   3.371   4.009  15.520 -0.6968  0.0967  1.3101
 6306TIP3    H240410   3.479   3.949  15.433 -2.3660 -0.1770 -0.6320
 6307TIP3   OH240411   2.062   0.903  16.526 -0.6796 -0.0118 -0.1920
 6307TIP3    H140412   2.017   0.898  16.441 -1.5921 -1.5333  0.3415
 6307TIP3    H240413   2.132   0.837  16.519 -1.6338 -1.1633  0.6965
 6308TIP3   OH240414   2.072   2.328   4.612  0.2225  0.0376 -0.1698
 6308TIP3    H140415   2.050   2.418   4.589  2.2620  0.2842 -1.4484
 6308TIP3    H240416   2.046   2.276   4.535 -0.4923 -0.3951  0.3588
 6309TIP3   OH240417   3.811   1.637   5.783 -0.3837 -0.1921 -0.2341
 6309TIP3    H140418   3.874   1.612   5.850  0.7519 -0.3125 -1.3010
 6309TIP3    H240419   3.730   1.592   5.807 -0.1656  0.1958  1.3271
 6310TIP3   OH240420   5.686   6.039  12.969 -0.8762 -0.0744  0.5465
 6310TIP3    H140421   5.667   6.039  13.063 -1.2211  0.1410  0.4794
 6310TIP3    H240422   5.757   5.976  12.959 -1.5196 -0.8579  0.8080
 6311TIP3   OH240423   3.609   2.278   3.210 -0.4123 -0.3023 -0.4265
 6311TIP3    H140424   3.684   2.295   3.267  0.3848 -1.5018 -1.0749
 6311TIP3    H240425   3.644   2.282   3.121 -1.4658  0.7256 -0.8202
 6312TIP3   OH240426   4.442   1.617   5.500 -0.2190  1.0140 -0.1526
 6312TIP3    H140427   4.493   1.592   5.423  0.5400 -1.3491  1.0002
 6312TIP3    H240428   4.351   1.606   5.472  0.0595 -0.8982 -0.4555
 6313TIP3   OH240429   5.738   4.834   3.651  0.5392 -0.1092 -0.6885
 6313TIP3    H140430   5.831   4.857   3.652  1.0499 -2.0286 -0.7640
 6313TIP3    H240431   5.711   4.839   3.743  1.0594 -0.8157 -0.4907
 6314TIP3   OH240432   2.594   4.233  12.388  0.4736 -0.0132 -0.3942
 6314TIP3    H140433   2.657   4.164  12.368  0.3047 -0.3454  0.1847
 6314TIP3    H240434   2.622   4.267  12.473  1.8036  2.0858 -1.5865
 6315TIP3   OH240435   4.697   0.810  14.762 -0.1559 -0.1905 -0.0137
 6315TIP3    H140436   4.636   0.761  14.708  0.9904 -0.3145 -1.2688
 6315TIP3    H240437   4.650   0.828  14.843 -1.2981 -1.5908 -0.3355
 6316TIP3   OH240438   4.789   4.088  12.969 -0.8040  0.3423 -0.7093
 6316TIP3    H140439   4.864   4.044  13.009 -0.0675  0.1901 -2.2069
 6316TIP3    H240440   4.794   4.065  12.876 -2.4177  0.7545 -0.9292
 6317TIP3   OH240441   3.768   6.304  15.450 -0.1806 -0.2469 -0.3431
 6317TIP3    H140442   3.834   6.367  15.478 -1.5106  1.7589 -1.5091
 6317TIP3    H240443   3.741   6.334  15.364 -0.7079 -2.6004 -1.0660
 6318TIP3   OH240444   3.723   1.631   4.723 -0.4032 -0.0546  0.0249
 6318TIP3    H140445   3.662   1.704   4.714 -0.9554 -0.5743 -0.5068
 6318TIP3    H240446   3.669   1.553   4.711  0.2429 -0.5418  0.2384
 6319TIP3   OH240447   4.857   2.604  16.537  0.4026  0.0435 -0.0819
 6319TIP3    H140448   4.825   2.680  16.587  0.7007 -0.1301  0.3794
 6319TIP3    H240449   4.876   2.538  16.604  0.1211 -0.4511 -0.4832
 6320TIP3   OH240450   2.366   0.423   4.775 -0.0614  0.6232  0.6182
 6320TIP3    H140451   2.287   0.450   4.728  2.1771  0.9326 -3.4924
 6320TIP3    H240452   2.379   0.332   4.750  0.6418  0.4487  1.5835
 6321TIP3   OH240453   6.356   0.368   3.381 -1.1085  0.0766 -0.4060
 6321TIP3    H140454   6.409   0.291   3.402  0.0896  0.9818 -0.0875
 6321TIP3    H240455   6.360   0.374   3.285 -1.2952 -0.3069 -0.4416
 6322TIP3   OH240456   4.736   3.849  15.798 -0.2675 -0.4381 -0.0152
 6322TIP3    H140457   4.656   3.858  15.849  0.5194  0.4792  1.1244
 6322TIP3    H240458   4.709   3.864  15.707 -1.4334 -0.5246  0.3025
 6323TIP3   OH240459   5.495   2.386   5.784  0.3766  0.4942  0.4697
 6323TIP3    H140460   5.481   2.476   5.814 -1.5081  1.0884 -1.8823
 6323TIP3    H240461   5.411   2.342   5.802 -1.0159  0.9631 -3.6976
 6324TIP3   OH240462   2.225   1.244  11.013 -0.3317  0.7457  0.1938
 6324TIP3    H140463   2.232   1.327  10.967  0.3416 -0.3005 -1.7068
 6324TIP3    H240464   2.155   1.197  10.966  0.3062 -0.3123  0.2724
 6325TIP3   OH240465   1.956   4.515   3.043 -0.1106 -0.5087 -0.1639
 6325TIP3    H140466   2.005   4.437   3.017  3.0973  0.4673  2.2732
 6325TIP3    H240467   1.885   4.481   3.097  0.4569 -1.8337 -0.2020
 6326TIP3   OH240468   2.356   1.756  13.481 -0.3277  0.3035 -0.2993
 6326TIP3    H140469   2.423   1.824  13.471  1.3931 -1.1938  0.4451
 6326TIP3    H240470   2.286   1.798  13.532  0.2075  1.8029 -0.7576
 6327TIP3   OH240471   4.542   5.275   2.256 -0.0595 -0.1207 -0.0839
 6327TIP3    H140472   4.510   5.252   2.343  0.2160  0.0037  0.0477
 6327TIP3    H240473   4.474   5.242   2.197 -0.6195  0.4636  0.2183
 6328TIP3   OH240474   3.440   2.451   0.669  0.2384 -0.1792  0.6917
 6328TIP3    H140475   3.345   2.455   0.661  0.4156  0.7001 -1.7862
 6328TIP3    H240476   3.461   2.514   0.738 -1.0209 -1.3215  2.1747
 6329TIP3   OH240477   1.206   6.795  14.600 -0.2243 -0.0763 -0.3879
 6329TIP3    H140478   1.225   6.832  14.686  0.6776  1.2197 -1.1088
 6329TIP3    H240479   1.120   6.831  14.577 -1.2076 -1.6684  0.5903
 6330TIP3   OH240480   6.550   4.150   2.807 -0.3246  0.1203 -0.0163
 6330TIP3    H140481   6.554   4.244   2.792 -0.5340  0.4422  1.7800
 6330TIP3    H240482   6.591   4.112   2.729  2.1827  1.7808  0.3741
 6331TIP3   OH240483   1.013   4.375   0.607 -0.4067  0.1974 -0.7874
 6331TIP3    H140484   1.106   4.373   0.585 -0.2544 -0.2006 -0.1594
 6331TIP3    H240485   0.999   4.294   0.657 -0.8492  0.7643  0.0238
 6332TIP3   OH240486   6.668   3.237   6.432  0.1500 -0.5284 -0.3024
 6332TIP3    H140487   6.670   3.301   6.503  2.2056 -0.7243 -0.0987
 6332TIP3    H240488   6.633   3.157   6.472  0.2640 -0.3286  0.1988
 6333TIP3   OH240489   1.128   5.374   4.996 -0.0999  0.8838 -0.2113
 6333TIP3    H140490   1.203   5.379   5.055  0.0109 -0.6971 -0.1943
 6333TIP3    H240491   1.068   5.312   5.038 -0.1143 -0.1087 -1.6293
 6334TIP3   OH240492   4.214   0.309  12.892  0.4072 -0.0536 -0.5265
 6334TIP3    H140493   4.139   0.256  12.920 -0.2112  0.5722 -0.9886
 6334TIP3    H240494   4.269   0.248  12.842 -0.4375 -0.1966 -1.3002
 6335TIP3   OH240495   3.044   0.359   4.277  0.3029 -0.7457  0.2746
 6335TIP3    H140496   2.992   0.282   4.252  0.2696 -0.3036 -1.0991
 6335TIP3    H240497   2.978   0.426   4.299  0.1272  0.3468 -3.0499
 6336TIP3   OH240498   4.559   2.444   5.515 -0.7505  0.0829  0.0715
 6336TIP3    H140499   4.515   2.524   5.485  1.0949  1.2247  0.2668
 6336TIP3    H240500   4.535   2.378   5.450 -0.4463  1.3862 -1.4376
 6337TIP3   OH240501   6.191   0.760   2.512  0.1508 -0.2950 -0.5223
 6337TIP3    H140502   6.138   0.831   2.478  0.8476  0.9558  0.8737
 6337TIP3    H240503   6.154   0.741   2.598 -0.4253 -2.0901 -1.1199
 6338TIP3   OH240504   4.127   4.934  14.664 -0.3503 -0.0753  0.3699
 6338TIP3    H140505   4.081   4.900  14.741 -0.2175 -2.7350 -0.6492
 6338TIP3    H240506   4.217   4.906  14.676 -0.3794 -0.7382 -0.8615
 6339TIP3   OH240507   1.363   1.587   4.342  0.2404 -0.5870 -0.2163
 6339TIP3    H140508   1.280   1.560   4.304  0.2723  1.0354 -1.5272
 6339TIP3    H240509   1.420   1.510   4.332 -0.1280 -0.6450 -2.3465
 6340TIP3   OH240510   1.438   4.696  13.087  0.0007 -0.0972 -0.3238
 6340TIP3    H140511   1.478   4.768  13.037 -0.6590  0.3564 -0.2105
 6340TIP3    H240512   1.394   4.739  13.160  0.4929 -0.7154  0.3456
 6341TIP3   OH240513   0.127   2.096  12.958 -0.4180  1.0821  0.3497
 6341TIP3    H140514   0.075   2.084  13.038 -1.2701  1.1503 -0.1730
 6341TIP3    H240515   0.144   2.007  12.927  1.6698  0.9679  1.6694
 6342TIP3   OH240516   2.139   5.428   4.910 -0.8554  0.2901 -0.2856
 6342TIP3    H140517   2.075   5.491   4.876  0.7420  1.8498 -0.5791
 6342TIP3    H240518   2.197   5.481   4.966 -1.3371 -1.5444  2.1341
 6343TIP3   OH240519   1.517   4.574   1.848  0.9781  0.3629 -0.1602
 6343TIP3    H140520   1.469   4.622   1.916 -2.3293 -1.1043 -1.2329
 6343TIP3    H240521   1.544   4.642   1.786  0.8688  1.3430  0.8271
 6344TIP3   OH240522   0.969   4.477  12.885 -0.4558  0.5335  0.3227
 6344TIP3    H140523   1.030   4.458  12.956 -1.2212 -0.7252  0.6666
 6344TIP3    H240524   0.894   4.518  12.928 -0.4809  0.7176  0.1036
 6345TIP3   OH240525   5.151   0.520   3.273  0.0058 -0.0603  0.4403
 6345TIP3    H140526   5.069   0.471   3.279 -0.8834  1.3108 -0.1264
 6345TIP3    H240527   5.143   0.588   3.341  0.1220  0.8513 -0.4395
 6346TIP3   OH240528   5.645   5.169  13.935  0.4525 -0.5404  0.5048
 6346TIP3    H140529   5.594   5.246  13.959  0.0241 -0.0542 -1.7418
 6346TIP3    H240530   5.711   5.202  13.874  1.4347 -1.6874  0.9058
 6347TIP3   OH240531   3.643   4.503  13.882  0.5797 -0.2759  0.1599
 6347TIP3    H140532   3.715   4.521  13.941  0.1941  1.1527  0.2369
 6347TIP3    H240533   3.622   4.588  13.843 -1.8440 -0.3846  1.0589
 6348TIP3   OH240534   0.294   1.061   0.315  0.0713  0.0072  0.5389
 6348TIP3    H140535   0.302   1.111   0.397  0.2074 -1.4874  1.4735
 6348TIP3    H240536   0.355   0.988   0.326 -1.7199 -1.6176  0.1741
 6349TIP3   OH240537   4.694   1.465   1.254  0.0248  0.7788  0.0346
 6349TIP3    H140538   4.680   1.374   1.228  0.1676  0.9067 -0.5025
 6349TIP3    H240539   4.774   1.491   1.209  0.1954  1.0559  0.4901
 6350TIP3   OH240540   4.734   3.821   2.483  0.0271  0.3553  0.1391
 6350TIP3    H140541   4.703   3.895   2.430 -2.1133 -0.2947  0.4136
 6350TIP3    H240542   4.687   3.829   2.565  2.9230  1.0428  1.8829
 6351TIP3   OH240543   3.177   6.210  14.869  0.3960  0.4826 -0.1246
 6351TIP3    H140544   3.090   6.173  14.887  0.6044 -0.1811 -0.4150
 6351TIP3    H240545   3.193   6.187  14.777  0.4098  1.5906 -0.4130
 6352TIP3   OH240546   2.154   2.074   1.491 -0.0478  0.1473  0.4187
 6352TIP3    H140547   2.069   2.077   1.534 -0.3907 -0.4211 -0.2045
 6352TIP3    H240548   2.138   2.029   1.408  0.6337  1.1111 -0.2543
 6353TIP3   OH240549   4.836   3.524   5.663 -0.2080 -0.2765 -0.0864
 6353TIP3    H140550   4.841   3.503   5.757 -1.2621 -0.6506 -0.1039
 6353TIP3    H240551   4.753   3.486   5.635 -0.2369  0.4688 -1.0215
 6354TIP3   OH240552   1.569   3.030   2.209  0.3185  0.0050  0.5295
 6354TIP3    H140553   1.533   2.941   2.215  0.1202 -0.1692 -2.0692
 6354TIP3    H240554   1.572   3.061   2.300  1.3565 -2.9993  1.6384
 6355TIP3   OH240555   2.303   5.043  17.055  0.1804 -0.2749 -0.0858
 6355TIP3    H140556   2.361   5.106  17.098  0.5677 -2.1588  2.4146
 6355TIP3    H240557   2.226   5.094  17.031  0.9208  1.3582  0.8511
 6356TIP3   OH240558   4.595   4.282  14.397 -0.2330  0.3789  0.3685
 6356TIP3    H140559   4.537   4.226  14.449  0.8239  0.7736  2.0565
 6356TIP3    H240560   4.645   4.331  14.462  0.0159  2.1154 -1.0653
 6357TIP3   OH240561   4.199   3.367   3.502 -0.2213 -0.1802  0.1810
 6357TIP3    H140562   4.115   3.324   3.517  0.3701 -1.2724  0.4243
 6357TIP3    H240563   4.261   3.320   3.557  0.8610 -0.4188 -1.1915
 6358TIP3   OH240564   2.389   2.482  15.665  0.0080 -0.0232  0.2709
 6358TIP3    H140565   2.339   2.456  15.743 -1.0424  4.7989  1.5601
 6358TIP3    H240566   2.480   2.463  15.687 -0.5791 -2.6039  0.8013
 6359TIP3   OH240567   0.452   1.345  16.727  0.3325 -0.3901 -0.5674
 6359TIP3    H140568   0.416   1.385  16.648 -1.0586 -2.1664 -0.9137
 6359TIP3    H240569   0.545   1.335  16.710  0.1060 -0.4106 -1.8407
 6360TIP3   OH240570   2.415   1.608   1.000 -0.1731 -0.3480  0.6036
 6360TIP3    H140571   2.379   1.521   1.013 -1.0297 -0.1600 -0.3372
 6360TIP3    H240572   2.474   1.622   1.074 -2.0390 -0.6747  2.2280
 6361TIP3   OH240573   1.991   6.773   4.574 -0.0226 -0.3442 -0.2036
 6361TIP3    H140574   2.043   6.853   4.582 -1.2614  0.3386  1.7648
 6361TIP3    H240575   2.039   6.707   4.624  0.4648 -0.5520 -0.9385
 6362TIP3   OH240576   0.382   2.607   1.142  0.5512 -0.0269 -0.7663
 6362TIP3    H140577   0.294   2.629   1.172 -0.1160 -1.9319 -1.1366
 6362TIP3    H240578   0.423   2.564   1.217  0.9076  0.2194 -0.8200
 6363TIP3   OH240579   5.521   6.370   5.104  0.1970 -0.1656  0.8886
 6363TIP3    H140580   5.464   6.309   5.149  1.5222 -2.8569 -0.8180
 6363TIP3    H240581   5.610   6.336   5.120  0.8551  0.2042 -1.5858
 6364TIP3   OH240582   1.915   6.654  11.611 -0.1699  0.0384  0.3100
 6364TIP3    H140583   1.965   6.574  11.622  0.0262  0.1023 -0.0947
 6364TIP3    H240584   1.957   6.717  11.670  1.8958  0.8531 -1.8537
 6365TIP3   OH240585   1.761   2.273   3.781 -0.0105  0.2142 -0.2216
 6365TIP3    H140586   1.694   2.214   3.816 -0.9476  0.7140 -1.1175
 6365TIP3    H240587   1.771   2.341   3.848  0.8330 -0.7423  0.6636
 6366TIP3   OH240588   0.897   3.046   6.367 -0.8029 -0.3681 -0.5221
 6366TIP3    H140589   0.862   3.116   6.423 -0.1216 -0.0241 -0.5173
 6366TIP3    H240590   0.971   3.012   6.416 -0.6495 -0.5582 -0.8894
 6367TIP3   OH240591   2.384   5.514   6.481  0.7700  0.2243  0.4737
 6367TIP3    H140592   2.296   5.492   6.449  1.5419 -1.4686 -0.6279
 6367TIP3    H240593   2.382   5.609   6.493 -1.1710  0.2364  0.3863
 6368TIP3   OH240594   4.495   5.611   4.924 -0.0984 -0.6827 -0.0123
 6368TIP3    H140595   4.537   5.537   4.968  0.7317 -0.2696 -0.0872
 6368TIP3    H240596   4.567   5.656   4.878 -0.7608 -0.4496 -0.8530
 6369TIP3   OH240597   0.505   1.658  11.794 -0.3350 -0.1533  0.2433
 6369TIP3    H140598   0.595   1.631  11.774 -0.4310  0.2491 -0.8207
 6369TIP3    H240599   0.483   1.610  11.873  0.9158 -0.0359  0.6876
 6370TIP3   OH240600   5.714   3.181  16.284  0.1235 -0.1670  0.7908
 6370TIP3    H140601   5.710   3.247  16.353 -0.4017  0.2616  0.3616
 6370TIP3    H240602   5.658   3.215  16.214 -2.2990 -2.2551  1.5798
 6371TIP3   OH240603   6.453   1.875   0.921 -0.6003  0.4308  0.2056
 6371TIP3    H140604   6.431   1.901   0.831  0.7403  0.0113 -0.2622
 6371TIP3    H240605   6.465   1.781   0.917  0.3429  0.5216  0.6261
 6372TIP3   OH240606   0.093   2.976   3.197 -0.6670 -0.6908  0.0993
 6372TIP3    H140607   0.081   2.886   3.168  0.9636 -1.2299  0.9792
 6372TIP3    H240608   0.006   3.004   3.226 -1.2802 -1.8151 -0.5881
 6373TIP3   OH240609   6.203   2.069  10.611  0.6676 -0.8140  0.0763
 6373TIP3    H140610   6.147   1.992  10.614 -0.5470  0.0714  0.6623
 6373TIP3    H240611   6.145   2.141  10.589  1.8931 -0.1362 -1.0818
 6374TIP3   OH240612   5.580   5.669  11.829  0.7716 -0.2356 -0.6139
 6374TIP3    H140613   5.547   5.579  11.823  0.1263 -0.0804  0.3350
 6374TIP3    H240614   5.616   5.687  11.742 -0.0523 -1.0454 -1.1463
 6375TIP3   OH240615   0.425   0.636  15.019  0.5781  0.1200  0.0179
 6375TIP3    H140616   0.444   0.627  14.925  2.0787  0.5561  0.2501
 6375TIP3    H240617   0.427   0.731  15.035  1.4243 -0.0021  0.6882
 6376TIP3   OH240618   4.547   6.027  12.910  0.3209 -0.4922  0.3545
 6376TIP3    H140619   4.609   6.093  12.881  1.4323 -1.3273  0.7133
 6376TIP3    H240620   4.527   6.051  13.001  1.3578 -1.0479  0.7605
 6377TIP3   OH240621   0.091   5.655   3.726 -0.2023 -0.2261  0.4551
 6377TIP3    H140622   0.016   5.608   3.690 -0.1200 -0.0318  0.0177
 6377TIP3    H240623   0.058   5.742   3.748  0.2204  0.3695 -1.1432
 6378TIP3   OH240624   5.942   2.331   1.698  0.2462  0.2853  0.2558
 6378TIP3    H140625   5.980   2.391   1.634  1.3697 -0.1247  0.5123
 6378TIP3    H240626   5.925   2.385   1.775 -0.3333  0.6087 -0.0947
 6379TIP3   OH240627   3.443   1.386  12.948 -0.5102 -0.0162  0.0082
 6379TIP3    H140628   3.519   1.411  13.001 -0.3389  1.0458 -0.7117
 6379TIP3    H240629   3.467   1.408  12.858 -1.5213  0.0029 -0.2765
 6380TIP3   OH240630   4.912   2.350  13.209  0.3074 -0.4422 -0.1938
 6380TIP3    H140631   4.837   2.403  13.235  1.0964 -0.2553  1.8361
 6380TIP3    H240632   4.919   2.282  13.275  2.8107  0.4565  0.6173
 6381TIP3   OH240633   3.856   2.082   2.857  0.4592  0.5284  0.0641
 6381TIP3    H140634   3.845   1.987   2.851  1.6498  0.4559 -1.8146
 6381TIP3    H240635   3.933   2.101   2.803 -0.0023  2.6161  0.0464
 6382TIP3   OH240636   2.351   5.641  14.588  0.1762  0.5218 -0.3550
 6382TIP3    H140637   2.417   5.662  14.522  0.5956 -1.0858 -0.4892
 6382TIP3    H240638   2.380   5.686  14.667  2.1621 -1.1071 -0.0668
 6383TIP3   OH240639   1.485   3.097   4.710 -0.2164  0.2356  0.2032
 6383TIP3    H140640   1.551   3.149   4.664  1.8700 -3.4532 -1.3631
 6383TIP3    H240641   1.501   3.115   4.803  0.8645  1.7771 -0.2369
 6384TIP3   OH240642   0.219   3.744   4.805 -0.3929 -0.4132  0.0147
 6384TIP3    H140643   0.236   3.711   4.893  0.0106 -0.6372 -0.1446
 6384TIP3    H240644   0.172   3.826   4.819  1.2265  0.4687  0.4891
 6385TIP3   OH240645   6.053   4.642   1.330 -0.1346  0.3029 -0.2794
 6385TIP3    H140646   6.001   4.703   1.382  0.6210  0.6430  0.0979
 6385TIP3    H240647   6.143   4.672   1.341  0.3460 -1.2937  0.4897
 6386TIP3   OH240648   4.088   3.654  13.402  0.1571 -0.4885  0.0575
 6386TIP3    H140649   4.006   3.628  13.361  1.0836 -2.5247 -0.6278
 6386TIP3    H240650   4.155   3.607  13.352  1.6832  0.5054  1.0999
 6387TIP3   OH240651   6.721   2.758  16.364  0.1718 -0.1432 -0.8103
 6387TIP3    H140652   6.730   2.678  16.416 -0.2251 -0.4797 -1.2515
 6387TIP3    H240653   6.626   2.770  16.354  0.2423  0.0168 -1.3059
 6388TIP3   OH240654   5.708   5.507   3.256  0.2652 -0.1361  0.3249
 6388TIP3    H140655   5.671   5.592   3.279 -1.9434 -0.9818  0.1648
 6388TIP3    H240656   5.696   5.454   3.334 -0.7509 -1.0075 -0.3959
 6389TIP3   OH240657   3.924   5.625   1.824 -0.0616  0.2032 -0.5417
 6389TIP3    H140658   3.997   5.566   1.844 -0.8628 -0.3230  1.0439
 6389TIP3    H240659   3.869   5.621   1.902  0.9045  4.7665  0.6454
 6390TIP3   OH240660   1.100   5.537   4.190 -0.1453 -0.0200  0.5658
 6390TIP3    H140661   1.084   5.452   4.229  0.8561 -1.0643 -1.1687
 6390TIP3    H240662   1.117   5.595   4.264  2.4146 -2.0373  1.7261
 6391TIP3   OH240663   1.891   3.643   1.919  0.0237 -0.0900 -0.0912
 6391TIP3    H140664   1.798   3.659   1.936  0.0761 -0.8404  0.9894
 6391TIP3    H240665   1.931   3.641   2.006  0.6231 -2.3172 -0.3637
 6392TIP3   OH240666   0.489   1.247   1.253  0.1419  0.1414  0.2328
 6392TIP3    H140667   0.440   1.188   1.310 -1.3438  0.6060 -0.5141
 6392TIP3    H240668   0.471   1.216   1.164 -0.8278  1.7864 -0.1908
 6393TIP3   OH240669   6.408   2.126  10.899  0.1658  0.2579  0.3772
 6393TIP3    H140670   6.369   2.074  10.969  0.1289  0.9946  0.9161
 6393TIP3    H240671   6.479   2.071  10.865 -0.0897 -0.2813  0.6997
 6394TIP3   OH240672   6.212   2.644  11.575  0.4197  0.6162  0.1078
 6394TIP3    H140673   6.133   2.682  11.613 -0.8745 -1.9828  0.1962
 6394TIP3    H240674   6.186   2.557  11.545  2.6796  0.5402 -2.0484
 6395TIP3   OH240675   0.759   2.837  17.215  0.0479 -0.4690 -0.4972
 6395TIP3    H140676   0.714   2.820  17.132 -1.8374 -0.0875  0.3970
 6395TIP3    H240677   0.701   2.801  17.282  1.1980 -0.1570  0.7106
 6396TIP3   OH240678   5.271   5.778   3.298 -0.4318 -0.5478 -0.3107
 6396TIP3    H140679   5.213   5.738   3.362  0.1760  1.0432  1.3025
 6396TIP3    H240680   5.357   5.775   3.338  0.3448 -1.3393 -1.9490
 6397TIP3   OH240681   1.033   4.085   4.122 -0.5756 -0.0269 -0.4303
 6397TIP3    H140682   1.024   4.175   4.151  1.4094  0.1985 -0.3265
 6397TIP3    H240683   0.952   4.042   4.148 -0.5739  1.1585  1.7480
 6398TIP3   OH240684   5.601   0.068  15.667 -0.4492 -0.2846  0.4423
 6398TIP3    H140685   5.672   0.005  15.681 -0.1537  0.1441  0.9040
 6398TIP3    H240686   5.557   0.074  15.752 -0.9229 -0.4042  0.2086
 6399TIP3   OH240687   6.460   3.347  13.259  0.3262 -0.1606 -0.2873
 6399TIP3    H140688   6.543   3.300  13.249  0.4604  0.4236 -2.4422
 6399TIP3    H240689   6.485   3.436  13.281  0.1086 -0.6672  2.3550
 6400TIP3   OH240690   4.028   0.698  11.904  0.1129 -0.0574  0.4413
 6400TIP3    H140691   4.072   0.779  11.878  0.8806 -0.6504 -0.1501
 6400TIP3    H240692   4.023   0.703  11.999  2.5248 -0.4789  0.6599
 6401TIP3   OH240693   0.044   4.250   1.412 -0.7985  0.1296  0.5220
 6401TIP3    H140694   0.102   4.224   1.340  1.2082 -0.6817  2.3165
 6401TIP3    H240695  -0.010   4.320   1.375  0.7598  0.3560 -1.5219
 6402TIP3   OH240696   1.880   2.720   6.853  0.0306  0.4059 -0.6703
 6402TIP3    H140697   1.939   2.789   6.823 -0.3593  0.5035 -1.2253
 6402TIP3    H240698   1.808   2.766   6.896  0.9580  0.2428  1.1562
 6403TIP3   OH240699   1.085   1.399   5.346 -0.1340  0.3610 -0.3393
 6403TIP3    H140700   1.104   1.431   5.258  2.7312 -1.6270 -0.5914
 6403TIP3    H240701   1.136   1.456   5.403 -0.8504  0.7468 -0.0710
 6404TIP3   OH240702   1.139   6.564  14.470  0.2823  0.1216  0.0906
 6404TIP3    H140703   1.102   6.493  14.523  1.9896  0.2160  1.5109
 6404TIP3    H240704   1.132   6.642  14.526  2.7331  0.0998  0.5416
 6405TIP3   OH240705   1.787   2.933   2.891  0.1195 -0.1731  0.0084
 6405TIP3    H140706   1.844   2.882   2.833  1.2942 -0.3672  1.2822
 6405TIP3    H240707   1.793   2.888   2.975 -1.4002  0.2196  0.3537
 6406TIP3   OH240708   1.654   2.330  12.644  1.0306 -0.0154  0.2967
 6406TIP3    H140709   1.697   2.251  12.611  1.6053  0.5905 -0.4220
 6406TIP3    H240710   1.561   2.308  12.645  1.1920 -0.7319  0.1874
 6407TIP3   OH240711   2.146   5.060   1.662  0.0359  0.4310  0.5303
 6407TIP3    H140712   2.176   5.137   1.614 -0.4169  1.4757  1.8372
 6407TIP3    H240713   2.203   5.058   1.740  0.9384 -1.3655 -0.1328
 6408TIP3   OH240714   3.510   0.085   0.654  0.1661 -0.0002 -0.4024
 6408TIP3    H140715   3.545   0.159   0.704  1.0346  0.3995 -1.5558
 6408TIP3    H240716   3.420   0.076   0.684 -0.0387  1.6975 -0.4045
 6409TIP3   OH240717   2.724   1.334  15.115  0.2285  0.1694 -0.3302
 6409TIP3    H140718   2.810   1.346  15.074  0.0233  1.1394 -0.4919
 6409TIP3    H240719   2.743   1.286  15.195  0.7901 -0.5792 -0.8894
 6410TIP3   OH240720   2.668   6.202   3.413  0.0398  0.2482 -0.2358
 6410TIP3    H140721   2.645   6.132   3.352  2.0911 -2.0237  1.4091
 6410TIP3    H240722   2.588   6.221   3.461 -0.3061 -1.8160  0.0609
 6411TIP3   OH240723   6.399   1.895  16.655  0.2047  0.2974 -0.3339
 6411TIP3    H140724   6.440   1.909  16.569 -0.4106  1.5678 -0.4522
 6411TIP3    H240725   6.455   1.831  16.698  2.4396  2.0868 -0.4104
 6412TIP3   OH240726   4.061   5.604  15.025  0.1193 -1.1371  0.4455
 6412TIP3    H140727   4.126   5.674  15.025  0.8354 -1.7893  0.6688
 6412TIP3    H240728   4.024   5.605  14.937  0.2152 -0.5709  0.4073
 6413TIP3   OH240729   6.648   3.578  15.706  0.0169 -0.1470  0.6832
 6413TIP3    H140730   6.726   3.528  15.682  0.5186  0.3964  1.1519
 6413TIP3    H240731   6.657   3.661  15.659 -0.9306 -0.5711 -0.2806
 6414TIP3   OH240732   1.707   5.195   4.175 -0.9273  0.5091  0.1392
 6414TIP3    H140733   1.652   5.241   4.238 -1.0232 -0.1075  0.5117
 6414TIP3    H240734   1.712   5.105   4.208 -0.2834  0.3845 -0.2768
 6415TIP3   OH240735   6.335   0.016  13.141  0.7329 -0.2679  0.0734
 6415TIP3    H140736   6.262   0.076  13.159  0.2681 -0.9000  0.3077
 6415TIP3    H240737   6.373  -0.002  13.227  0.8707 -0.3177  0.0031
 6416TIP3   OH240738   2.819   3.464  12.924  0.6497  0.6146  0.1644
 6416TIP3    H140739   2.833   3.553  12.957 -0.2692  0.6137  0.5719
 6416TIP3    H240740   2.766   3.421  12.991  2.6850 -0.8811  0.9455
 6417TIP3   OH240741   0.691   2.102  13.550  0.5713 -0.1346  0.4191
 6417TIP3    H140742   0.767   2.132  13.501 -0.8337  0.1452 -1.7377
 6417TIP3    H240743   0.719   2.101  13.641  2.8765  0.7290 -0.2279
 6418TIP3   OH240744   6.379   1.070   2.738  0.3380  0.8432 -0.4205
 6418TIP3    H140745   6.314   1.003   2.718  0.3860  0.0899  1.6623
 6418TIP3    H240746   6.454   1.020   2.772  0.4692  1.8971  0.9347
 6419TIP3   OH240747   2.190   6.278  13.349  0.3990  0.3080 -0.2683
 6419TIP3    H140748   2.203   6.334  13.426 -1.1144  0.1311  0.1425
 6419TIP3    H240749   2.109   6.310  13.309  1.0890  0.3055 -1.7297
 6420TIP3   OH240750   3.010   2.341  15.324  0.3794  0.4164 -0.3774
 6420TIP3    H140751   2.950   2.353  15.397  1.9830 -0.7248  1.2186
 6420TIP3    H240752   2.962   2.373  15.247 -2.4083 -0.8037  0.7258
 6421TIP3   OH240753   1.981   4.872  16.092  0.4220  0.3085 -0.7399
 6421TIP3    H140754   2.073   4.846  16.097 -0.0490 -1.2061  1.3795
 6421TIP3    H240755   1.952   4.872  16.183 -1.6317  1.0236 -1.3526
 6422TIP3   OH240756   5.710   5.141  11.415  0.1347  0.5153  0.2202
 6422TIP3    H140757   5.651   5.203  11.372 -0.7426  0.0733  0.7413
 6422TIP3    H240758   5.792   5.147  11.366 -0.1922  1.4897 -0.2327
 6423TIP3   OH240759   2.411   6.570  15.945 -0.5194  0.4339 -0.2993
 6423TIP3    H140760   2.417   6.481  15.980 -1.7291  0.6713  0.5914
 6423TIP3    H240761   2.498   6.588  15.910 -0.5663 -1.5100 -1.5754
 6424TIP3   OH240762   3.944   6.716   0.552 -0.4170 -0.8677  0.5028
 6424TIP3    H140763   3.882   6.656   0.511  0.2372 -0.5006 -1.1028
 6424TIP3    H240764   4.003   6.741   0.481  0.1005  0.6694  1.4329
 6425TIP3   OH240765   6.703   1.502  15.467  0.0841  0.4988  0.3567
 6425TIP3    H140766   6.765   1.575  15.478  0.7715 -0.2136  1.3420
 6425TIP3    H240767   6.684   1.501  15.374  2.1996  0.2380 -0.1132
 6426TIP3   OH240768   2.167   3.480   5.041 -0.1793 -0.3697 -0.2702
 6426TIP3    H140769   2.118   3.511   5.118 -1.3657 -2.7344  0.0196
 6426TIP3    H240770   2.139   3.538   4.970 -1.3419  0.0142  0.4775
 6427TIP3   OH240771   0.298   2.610  15.533  0.2182 -0.0751 -0.2224
 6427TIP3    H140772   0.324   2.551  15.462  1.4269  2.6927 -2.3028
 6427TIP3    H240773   0.221   2.656  15.499 -1.8100 -1.5345  2.0703
 6428TIP3   OH240774   1.241   3.707   3.016 -0.0876  0.0851  0.4406
 6428TIP3    H140775   1.298   3.767   2.969 -1.1520 -0.6729 -1.9361
 6428TIP3    H240776   1.299   3.636   3.045  0.2583 -0.6991 -1.9686
 6429TIP3   OH240777   2.829   4.677   4.015 -0.3568 -0.5149 -0.0878
 6429TIP3    H140778   2.755   4.623   3.987 -0.6431 -0.1456 -0.0387
 6429TIP3    H240779   2.906   4.627   3.988 -0.6145 -1.2043  0.4270
 6430TIP3   OH240780   0.439   5.918   1.661 -0.4203 -0.0096  0.5567
 6430TIP3    H140781   0.516   5.975   1.661  1.0985 -1.9608 -0.5246
 6430TIP3    H240782   0.469   5.837   1.703 -1.9771 -0.7076  0.3913
 6431TIP3   OH240783   1.638   6.677  12.112 -0.3518 -0.1488 -0.3627
 6431TIP3    H140784   1.589   6.746  12.158 -1.7298 -0.9244 -0.5943
 6431TIP3    H240785   1.633   6.702  12.020  0.2898  0.1274 -0.3232
 6432TIP3   OH240786   2.447   4.252   0.700 -0.0147 -0.1790 -0.1811
 6432TIP3    H140787   2.427   4.218   0.787 -0.0223 -0.9328 -0.4674
 6432TIP3    H240788   2.371   4.304   0.676  0.3378  0.7095  0.5974
 6433TIP3   OH240789   4.032   3.713  14.584  0.0164  1.4540 -1.0903
 6433TIP3    H140790   4.019   3.619  14.580 -0.2291  1.1977  2.5748
 6433TIP3    H240791   4.125   3.723  14.604 -0.1128  1.9308 -0.7107
 6434TIP3   OH240792   1.137   2.743  12.002  0.8138 -0.3271 -0.2269
 6434TIP3    H140793   1.224   2.703  12.003  0.0702 -2.0491 -0.4566
 6434TIP3    H240794   1.104   2.727  11.914  0.5803  1.0872 -0.4196
 6435TIP3   OH240795   0.476   4.202  12.346  0.2373  0.1105  0.0926
 6435TIP3    H140796   0.442   4.278  12.298  0.5194 -1.0444 -2.0461
 6435TIP3    H240797   0.571   4.216  12.349  0.5593 -1.0762 -2.1839
 6436TIP3   OH240798   0.082   5.981  11.227 -0.1043  0.0485 -0.0669
 6436TIP3    H140799   0.047   5.939  11.148 -1.9449  0.2862  0.5763
 6436TIP3    H240800   0.159   5.928  11.250  0.9721  0.4763 -2.4476
 6437TIP3   OH240801   2.322   5.955  13.741  0.2531  0.6190  0.8793
 6437TIP3    H140802   2.359   5.910  13.817  0.8005  0.1967  0.3676
 6437TIP3    H240803   2.248   6.004  13.777  0.9284  0.9889  1.8119
 6438TIP3   OH240804   5.939   5.298  11.598 -0.0414  0.4314  0.3554
 6438TIP3    H140805   5.858   5.246  11.600  0.3225 -0.1299  0.5004
 6438TIP3    H240806   5.930   5.358  11.672 -0.4352  0.5434  0.2242
 6439TIP3   OH240807   4.124   2.980  16.281  0.5843 -0.1792  0.3331
 6439TIP3    H140808   4.038   3.012  16.310  1.2834  1.9578  0.2035
 6439TIP3    H240809   4.116   2.975  16.185  0.7566  0.5103  0.2813
 6440TIP3   OH240810   3.429   5.302   2.480 -0.0164  0.0824 -0.6166
 6440TIP3    H140811   3.406   5.352   2.402  0.7694 -0.4267 -1.1876
 6440TIP3    H240812   3.446   5.213   2.448 -1.1585 -0.5096  0.3477
 6441TIP3   OH240813   5.433   1.818  13.114 -0.4090  0.4799  0.3427
 6441TIP3    H140814   5.342   1.829  13.142 -1.1769  1.6532 -2.3040
 6441TIP3    H240815   5.460   1.906  13.087  1.2164 -0.0329  0.2207
 6442TIP3   OH240816   0.809   5.085   1.701 -0.4254 -0.1441 -0.2339
 6442TIP3    H140817   0.785   5.173   1.731 -3.4878 -1.7464  2.7091
 6442TIP3    H240818   0.732   5.053   1.654  0.8609 -1.1096 -1.8100
 6443TIP3   OH240819   2.150   6.391   5.722 -0.6118  0.0909 -0.4441
 6443TIP3    H140820   2.122   6.323   5.662  0.9044  0.6003 -1.8144
 6443TIP3    H240821   2.203   6.450   5.668 -0.4256  1.3882  1.0810
 6444TIP3   OH240822   6.606   1.690  13.276  0.1838 -0.0032  0.4554
 6444TIP3    H140823   6.683   1.718  13.326  0.4252 -1.9869  1.2634
 6444TIP3    H240824   6.555   1.638  13.338 -1.8349  1.2381 -0.0741
 6445TIP3   OH240825   5.184   0.915  17.228  0.7515  0.5868  0.5145
 6445TIP3    H140826   5.094   0.899  17.256  1.1393 -1.8331  0.5465
 6445TIP3    H240827   5.180   1.000  17.184 -1.3976  0.8523  1.1102
 6446TIP3   OH240828   4.285   6.617   6.254 -0.2224  0.6471 -0.3301
 6446TIP3    H140829   4.323   6.697   6.218 -0.5915  0.3137 -1.4919
 6446TIP3    H240830   4.190   6.627   6.240 -0.6512  1.4549  2.4894
 6447TIP3   OH240831   2.930   4.323   1.892 -0.0042  0.6116 -0.0820
 6447TIP3    H140832   2.863   4.357   1.950  1.3094  1.6079  0.9032
 6447TIP3    H240833   2.970   4.251   1.942 -0.5378 -0.1988 -0.7972
 6448TIP3   OH240834   3.929   0.747   5.292 -0.0488 -0.0365  0.0835
 6448TIP3    H140835   3.944   0.691   5.368  3.8671 -1.7560 -1.6725
 6448TIP3    H240836   3.890   0.689   5.226  1.8650 -0.2166 -0.9726
 6449TIP3   OH240837   2.333   5.201  14.112  0.3857  0.3547  0.0073
 6449TIP3    H140838   2.267   5.192  14.043  0.5745  1.9609 -0.4171
 6449TIP3    H240839   2.296   5.266  14.172  2.7538  3.6954 -1.8309
 6450TIP3   OH240840   3.241   1.517  15.852 -0.0566 -0.1849 -0.0566
 6450TIP3    H140841   3.295   1.462  15.909  0.2833 -0.3651 -0.5485
 6450TIP3    H240842   3.293   1.528  15.773 -0.6429 -0.1586 -0.4440
 6451TIP3   OH240843   0.507   0.903  15.736  0.3419 -0.4426  0.1364
 6451TIP3    H140844   0.412   0.896  15.726  0.3328 -1.6015  0.8486
 6451TIP3    H240845   0.536   0.814  15.756  1.3955  0.1414  1.3739
 6452TIP3   OH240846   1.253   0.800  16.657 -0.1832 -0.2806  0.4455
 6452TIP3    H140847   1.259   0.789  16.563  1.4962 -0.8307  0.5784
 6452TIP3    H240848   1.236   0.894  16.670  2.9752  0.5287 -0.3903
 6453TIP3   OH240849   4.801   2.163   1.633 -0.4388  0.2850  0.0064
 6453TIP3    H140850   4.744   2.091   1.609  0.1930 -0.1805 -0.1184
 6453TIP3    H240851   4.890   2.129   1.619 -0.1261  0.8920  0.4828
 6454TIP3   OH240852   1.654   2.355  15.705 -0.0706 -0.5379 -0.0271
 6454TIP3    H140853   1.590   2.425  15.718 -1.3175 -1.3645 -1.3931
 6454TIP3    H240854   1.739   2.398  15.716 -0.8264  0.9419  0.2698
 6455TIP3   OH240855   1.156   2.251  12.226 -0.1232 -0.2749 -0.8041
 6455TIP3    H140856   1.080   2.299  12.193 -0.4675  2.1713  2.9108
 6455TIP3    H240857   1.129   2.159  12.225 -2.7923  0.4301 -0.4520
 6456TIP3   OH240858   4.000   0.552   1.366 -0.2195 -0.0951  0.0854
 6456TIP3    H140859   3.922   0.586   1.323  0.2765  1.4417  0.3334
 6456TIP3    H240860   3.967   0.500   1.439 -1.0373  1.4582  0.8768
 6457TIP3   OH240861   5.488   4.173  11.258  0.3956 -0.2481 -0.2626
 6457TIP3    H140862   5.467   4.200  11.168  2.6073  0.4107 -0.6272
 6457TIP3    H240863   5.580   4.197  11.269  0.2302 -0.5487  2.1129
 6458TIP3   OH240864   0.985   5.674  16.268  0.2293 -0.0579  0.5111
 6458TIP3    H140865   0.964   5.607  16.202  0.1133  1.4820 -1.0855
 6458TIP3    H240866   0.987   5.626  16.351  2.1969 -2.4275 -0.7842
 6459TIP3   OH240867   5.085   5.837   3.562 -0.0489  0.5137 -0.2435
 6459TIP3    H140868   5.047   5.886   3.635  0.3567 -0.6614  0.7890
 6459TIP3    H240869   5.011   5.821   3.503 -0.6161  0.5723  0.4341
 6460TIP3   OH240870   3.059   2.958  11.966  0.1534  0.3751  0.0232
 6460TIP3    H140871   3.039   2.888  11.903 -0.0952  0.1537  0.3457
 6460TIP3    H240872   3.099   3.027  11.913  1.0237 -0.2771 -0.1881
 6461TIP3   OH240873   2.888   6.563   3.955 -0.6844  0.3681 -0.5780
 6461TIP3    H140874   2.822   6.510   4.001 -0.5509 -0.6252 -1.5019
 6461TIP3    H240875   2.936   6.607   4.026 -1.2630 -0.1838  0.1797
 6462TIP3   OH240876   6.526   0.162   3.444  0.4239 -0.2552 -0.4067
 6462TIP3    H140877   6.469   0.086   3.436 -1.5154  1.0878 -0.0165
 6462TIP3    H240878   6.585   0.140   3.517  0.1124 -1.4820 -0.5039
 6463TIP3   OH240879   6.011   6.418  17.243 -0.5235  0.2354 -0.0438
 6463TIP3    H140880   5.916   6.418  17.228 -0.8172  1.2356  1.5977
 6463TIP3    H240881   6.026   6.344  17.301 -0.1359 -0.4719 -1.0126
 6464TIP3   OH240882   6.696   2.698   5.578  0.3488 -0.2597  0.3126
 6464TIP3    H140883   6.679   2.615   5.533  1.7865  0.2751 -1.3168
 6464TIP3    H240884   6.765   2.677   5.641 -1.1241 -0.8392  1.7872
 6465TIP3   OH240885   2.559   2.333  11.208 -0.0435  0.2272  0.1786
 6465TIP3    H140886   2.569   2.352  11.115 -0.1169  0.6336  0.2475
 6465TIP3    H240887   2.470   2.364  11.229 -1.1881 -2.5225 -0.2471
 6466TIP3   OH240888   0.472   1.809   5.352  0.2582  0.0007  0.0367
 6466TIP3    H140889   0.539   1.747   5.382 -0.9965 -0.8079  1.2735
 6466TIP3    H240890   0.389   1.765   5.369 -0.6317  1.3515 -0.6315
 6467TIP3   OH240891   5.025   2.342  17.134 -0.2484 -0.1496  0.1779
 6467TIP3    H140892   5.030   2.258  17.179  0.5410 -0.2576 -0.1036
 6467TIP3    H240893   5.005   2.319  17.043  1.0643 -0.1116 -0.1379
 6468TIP3   OH240894   2.736   3.905  13.270  0.5116  0.2029 -0.0125
 6468TIP3    H140895   2.759   3.883  13.360  3.0594 -0.4486 -0.7406
 6468TIP3    H240896   2.640   3.901  13.268  0.3950 -0.0953  2.5514
 6469TIP3   OH240897   3.046   5.674   1.121 -0.1667  0.1689  0.3564
 6469TIP3    H140898   3.015   5.693   1.033 -0.6529  1.1301  0.7189
 6469TIP3    H240899   3.029   5.580   1.132 -0.1275  0.0477 -0.5541
 6470TIP3   OH240900   0.972   4.985   2.651  0.7014 -0.0129  0.5336
 6470TIP3    H140901   0.994   5.071   2.614  1.1809  0.7674  2.4834
 6470TIP3    H240902   0.887   4.964   2.613  1.1166  0.7398 -0.9064
 6471TIP3   OH240903   1.824   2.614  14.597  0.4467 -0.4841 -0.0227
 6471TIP3    H140904   1.827   2.603  14.692  2.9862 -1.3921 -0.1443
 6471TIP3    H240905   1.833   2.708  14.583 -0.2190 -0.3148  0.6253
 6472TIP3   OH240906   0.542   0.421   4.921  0.6906  0.1925  0.0764
 6472TIP3    H140907   0.633   0.397   4.940  0.4409 -0.3014  0.6978
 6472TIP3    H240908   0.492   0.383   4.994  0.1415  1.5798  0.4614
 6473TIP3   OH240909   2.912   2.183  11.921 -0.3825  0.5716 -0.3113
 6473TIP3    H140910   2.913   2.270  11.960 -1.5104  1.1233 -1.4332
 6473TIP3    H240911   2.967   2.130  11.979  0.2119  1.9827  0.4642
 6474TIP3   OH240912   2.350   5.157  15.361  0.4621  0.3520  0.6919
 6474TIP3    H140913   2.353   5.246  15.325  1.1923 -0.0287 -0.2266
 6474TIP3    H240914   2.262   5.126  15.339  1.4763 -0.5850 -2.6718
 6475TIP3   OH240915   1.402   6.598   5.192  0.5808  0.1943 -0.2088
 6475TIP3    H140916   1.494   6.573   5.182  0.3197 -0.4504 -1.1763
 6475TIP3    H240917   1.372   6.548   5.268  0.5256 -1.1533 -1.0844
 6476TIP3   OH240918   4.190   1.556   2.668 -0.4380  0.6317 -0.1940
 6476TIP3    H140919   4.276   1.518   2.651 -0.2468  1.0002 -0.0569
 6476TIP3    H240920   4.137   1.482   2.699  0.3812  0.7586  1.6276
 6477TIP3   OH240921   0.171   2.996  11.083  0.1758  0.2586  0.0619
 6477TIP3    H140922   0.233   3.040  11.141 -0.3850  0.9147  0.1873
 6477TIP3    H240923   0.193   2.903  11.090  1.3819  0.5124 -0.2019
 6478TIP3   OH240924   4.229   1.021  11.377 -0.5372  0.1600  0.2510
 6478TIP3    H140925   4.259   0.948  11.321  1.7773  1.0532  0.2045
 6478TIP3    H240926   4.170   1.071  11.321 -0.0103 -0.1993 -0.6487
 6479TIP3   OH240927   5.436   3.074  16.056 -0.2617  0.1588  0.1354
 6479TIP3    H140928   5.415   3.127  16.133 -0.2056 -0.3869  0.5337
 6479TIP3    H240929   5.440   2.984  16.089  0.7405  0.0272 -0.3100
 6480TIP3   OH240930   1.450   4.978  13.507  0.1692  0.0753 -0.4181
 6480TIP3    H140931   1.378   5.017  13.557  0.5876  1.5875 -0.9476
 6480TIP3    H240932   1.498   4.927  13.572 -0.0122  0.9977  0.4759
 6481TIP3   OH240933   0.804   4.344   0.965  0.3380  0.1921 -0.6522
 6481TIP3    H140934   0.741   4.340   1.038  0.4839 -0.7720 -0.5716
 6481TIP3    H240935   0.883   4.303   1.000  0.2262 -0.8015 -1.5358
 6482TIP3   OH240936   4.442   3.734  12.554  0.0080  0.2861 -0.6774
 6482TIP3    H140937   4.403   3.769  12.475 -0.0582  0.2963 -0.6407
 6482TIP3    H240938   4.516   3.681  12.523  1.3601  2.0668 -0.6341
 6483TIP3   OH240939   0.500   6.064   3.311  0.3491  0.1158 -0.7960
 6483TIP3    H140940   0.489   5.997   3.379 -0.0925  0.3696 -0.6113
 6483TIP3    H240941   0.565   6.125   3.347 -0.7060  0.8653 -0.1053
 6484TIP3   OH240942   4.676   6.014  16.541  0.2848 -0.3635 -0.1189
 6484TIP3    H140943   4.725   6.070  16.602  1.2170 -1.0867 -0.1852
 6484TIP3    H240944   4.738   5.997  16.470  0.5961 -2.7917  0.6630
 6485TIP3   OH240945   5.917   1.522  10.933  0.4584 -0.3907 -0.3333
 6485TIP3    H140946   6.008   1.492  10.934  0.8819  0.8538  0.8047
 6485TIP3    H240947   5.913   1.583  10.859  1.2074  1.3483  0.9829
 6486TIP3   OH240948   1.803   5.252  14.583 -0.0840 -0.2007  0.5054
 6486TIP3    H140949   1.867   5.294  14.525 -0.2198 -0.6383  0.0387
 6486TIP3    H240950   1.813   5.299  14.666 -0.3307  0.8611 -0.0414
 6487TIP3   OH240951   5.879   5.135  17.082 -0.3060  0.8576  0.0316
 6487TIP3    H140952   5.948   5.134  17.015  0.4528 -0.6618  0.7787
 6487TIP3    H240953   5.817   5.202  17.052  0.1748  0.4573 -2.0065
 6488TIP3   OH240954   6.265   1.579   2.125  0.0927  0.0681  0.2183
 6488TIP3    H140955   6.292   1.628   2.048 -0.3864 -0.2565 -0.1637
 6488TIP3    H240956   6.339   1.521   2.144  0.3288  0.3604  0.1787
 6489TIP3   OH240957   6.660   4.411   1.898 -0.3297  0.1939 -0.0580
 6489TIP3    H140958   6.668   4.384   1.807  1.8215  1.0097 -0.1766
 6489TIP3    H240959   6.731   4.364   1.943 -0.5675  0.7703  0.9523
 6490TIP3   OH240960   2.116   0.886   4.918  0.4068  0.2283  0.5731
 6490TIP3    H140961   2.196   0.859   4.964 -0.2382 -2.7680  0.1819
 6490TIP3    H240962   2.056   0.812   4.931 -1.5586  1.4877 -0.9056
 6491TIP3   OH240963   0.711   1.239   4.959 -0.5446 -0.5312 -0.0171
 6491TIP3    H140964   0.678   1.300   4.893  0.1884 -0.7022 -0.5629
 6491TIP3    H240965   0.773   1.184   4.911 -0.1990 -0.8369  0.7628
 6492TIP3   OH240966   0.129   1.559   0.856  0.0616 -0.2737 -0.3020
 6492TIP3    H140967   0.072   1.493   0.815  0.3171  0.4477 -1.8888
 6492TIP3    H240968   0.187   1.588   0.786  0.4127  1.1539  0.5327
 6493TIP3   OH240969   2.775   0.351  13.614 -0.1467 -0.5877 -0.4706
 6493TIP3    H140970   2.833   0.420  13.580  0.8480 -0.9129  0.4958
 6493TIP3    H240971   2.745   0.385  13.699 -1.0709 -0.6020 -0.7804
 6494TIP3   OH240972   0.454   3.890   0.539  0.1620  0.0729  0.1432
 6494TIP3    H140973   0.523   3.852   0.486 -0.2457 -0.3854 -0.0701
 6494TIP3    H240974   0.405   3.946   0.478 -1.4516 -1.8949 -0.4840
 6495TIP3   OH240975   1.673   1.581   3.388 -0.1893 -0.2502  0.1061
 6495TIP3    H140976   1.604   1.643   3.411 -1.5842 -1.4926 -0.5483
 6495TIP3    H240977   1.721   1.568   3.469 -1.3746 -0.1369  0.8505
 6496TIP3   OH240978   2.442   4.688   6.483  0.0904  0.3555 -0.6796
 6496TIP3    H140979   2.424   4.595   6.463  0.1716  0.1279  0.2813
 6496TIP3    H240980   2.530   4.688   6.519  0.8556  1.0726 -2.4538
 6497TIP3   OH240981   4.721   0.086  11.026  0.5670 -0.2311  0.2341
 6497TIP3    H140982   4.729   0.136  10.944 -2.4153  0.5842  0.3314
 6497TIP3    H240983   4.756   0.145  11.093  1.1410 -0.0941 -0.1728
 6498TIP3   OH240984   2.146   4.170  13.757 -0.7280  0.0503  0.0248
 6498TIP3    H140985   2.234   4.190  13.724 -0.1880 -0.7988  0.8886
 6498TIP3    H240986   2.124   4.246  13.812  0.3572 -0.6227  1.4641
 6499TIP3   OH240987   1.574   3.751  12.221 -0.3622  0.1771  0.1613
 6499TIP3    H140988   1.647   3.738  12.282 -0.1818 -0.2303 -0.1424
 6499TIP3    H240989   1.596   3.832  12.175  0.0497 -0.1111 -0.1484
 6500TIP3   OH240990   6.519   3.089   1.405  0.0364  0.7293  0.8811
 6500TIP3    H140991   6.604   3.094   1.361 -0.4049  1.3591  0.0706
 6500TIP3    H240992   6.487   3.001   1.383  0.0504  0.8486  0.3622
 6501TIP3   OH240993   0.308   5.444  11.424  0.4349 -0.4353  0.0872
 6501TIP3    H140994   0.345   5.386  11.491  0.6593 -0.1346  0.2299
 6501TIP3    H240995   0.359   5.427  11.346  0.4239 -0.5128  0.0963
 6502TIP3   OH240996   3.021   4.451  14.318 -0.8632  0.1410  0.1661
 6502TIP3    H140997   2.984   4.363  14.325  0.3161 -0.2996  1.2792
 6502TIP3    H240998   3.101   4.448  14.371 -1.0482  2.0248  0.6303
 6503TIP3   OH240999   0.279   2.972   3.425 -0.0516 -0.6372 -0.2938
 6503TIP3    H141000   0.225   2.978   3.346  0.9801 -0.8588 -1.0464
 6503TIP3    H241001   0.272   2.880   3.451  1.0330 -0.9968 -1.2002
 6504TIP3   OH241002   5.151   3.285   2.561 -0.2338  0.2014 -0.0099
 6504TIP3    H141003   5.065   3.327   2.569 -1.0890 -1.6054  0.8410
 6504TIP3    H241004   5.213   3.356   2.574 -1.5219  1.9115 -2.3563
 6505TIP3   OH241005   1.600   4.377  17.027  0.4077  0.8507 -0.7150
 6505TIP3    H141006   1.625   4.437  17.098  1.6569  1.2757 -1.4728
 6505TIP3    H241007   1.519   4.412  16.993 -2.2250 -1.2550  2.6501
 6506TIP3   OH241008   3.047   6.651  15.924  0.3093  0.2519  0.0703
 6506TIP3    H141009   3.118   6.592  15.949 -0.4199 -0.6397  0.0812
 6506TIP3    H241010   3.076   6.737  15.954  1.0339 -0.2270  0.7951
 6507TIP3   OH241011   3.127   3.440  12.630  0.0692 -0.1629  0.0128
 6507TIP3    H141012   3.116   3.527  12.591 -1.0967 -1.3247 -2.4805
 6507TIP3    H241013   3.042   3.421  12.669  0.1159 -0.4250 -0.0136
 6508TIP3   OH241014   0.957   5.128   6.039  0.4694 -0.2701  0.5939
 6508TIP3    H141015   0.896   5.197   6.013 -0.1149 -0.2982  1.8267
 6508TIP3    H241016   0.902   5.062   6.081  1.4067  0.0689  2.4789
 6509TIP3   OH241017   2.585   4.339  13.201  0.2771 -0.0406 -0.2515
 6509TIP3    H141018   2.622   4.389  13.129 -0.3973 -1.6307 -1.7857
 6509TIP3    H241019   2.502   4.305  13.167 -0.0941 -0.8003  1.2948
 6510TIP3   OH241020   3.245   0.717   4.318 -0.2759  0.1994 -0.6273
 6510TIP3    H141021   3.207   0.770   4.388 -0.4088  0.5855 -0.9848
 6510TIP3    H241022   3.207   0.630   4.330 -0.0756  0.1908 -0.0485
 6511TIP3   OH241023   0.365   1.049   3.241 -0.5862  0.1423  0.5415
 6511TIP3    H141024   0.453   1.070   3.211 -1.2597  2.7300  0.0943
 6511TIP3    H241025   0.347   0.962   3.206  2.2894 -1.1462  1.9185
 6512TIP3   OH241026   3.081   1.561   3.908 -0.8749 -0.3466 -0.5087
 6512TIP3    H141027   3.078   1.541   4.002 -3.1032  2.0115  0.0279
 6512TIP3    H241028   3.077   1.476   3.866  0.5517 -1.5090  1.4903
 6513TIP3   OH241029   6.751   2.628   4.683 -0.4873  0.1692 -0.7353
 6513TIP3    H141030   6.781   2.618   4.593  3.8859  1.3134  0.3103
 6513TIP3    H241031   6.768   2.543   4.724  0.0040  0.3771 -0.4854
 6514TIP3   OH241032   2.818   3.241  15.573 -0.3613  0.3177 -0.0115
 6514TIP3    H141033   2.793   3.271  15.660  1.5616  0.4696  0.5276
 6514TIP3    H241034   2.758   3.287  15.514 -2.9388 -1.1838  1.2759
 6515TIP3   OH241035   6.770   6.688  11.846 -0.3873  0.5539  0.2635
 6515TIP3    H141036   6.759   6.595  11.826 -0.0956  0.6490 -0.3921
 6515TIP3    H241037   6.790   6.691  11.939  2.3021 -0.2950 -0.2010
 6516TIP3   OH241038   2.983   4.777   5.931  0.2670  0.0821 -0.5569
 6516TIP3    H141039   2.911   4.742   5.983 -0.0689  1.3340 -0.1412
 6516TIP3    H241040   2.987   4.722   5.853  0.4161 -1.4764  0.5215
 6517TIP3   OH241041   6.555   5.210  14.111 -0.2540 -0.5184  0.3392
 6517TIP3    H141042   6.629   5.255  14.070 -1.4368  1.9135  0.7276
 6517TIP3    H241043   6.503   5.177  14.038 -0.2796  0.2861 -0.0096
 6518TIP3   OH241044   3.790   0.134   1.936  0.0817  0.2122  0.1476
 6518TIP3    H141045   3.840   0.103   1.861  1.5785 -0.2800  1.2990
 6518TIP3    H241046   3.712   0.078   1.938  1.2809 -1.4920  0.4366
 6519TIP3   OH241047   1.836   0.800  14.043 -0.0348 -0.4630 -0.0258
 6519TIP3    H141048   1.848   0.834  13.955 -0.9478 -2.1415 -0.8370
 6519TIP3    H241049   1.784   0.866  14.088 -1.2531 -0.4775 -1.3624
 6520TIP3   OH241050   2.230   2.569   0.742  0.7602  0.7855  0.4904
 6520TIP3    H141051   2.209   2.616   0.661 -0.8797  0.1804  0.5128
 6520TIP3    H241052   2.288   2.498   0.714  0.4711  0.7752 -0.1032
 6521TIP3   OH241053   0.374   4.364  13.542  0.7619  0.0818  0.2078
 6521TIP3    H141054   0.387   4.386  13.634  1.2637  0.3264  0.0793
 6521TIP3    H241055   0.301   4.420  13.514 -0.0905 -0.7351  0.7211
 6522TIP3   OH241056   5.529   3.072   2.346 -0.2039 -0.5520  0.5143
 6522TIP3    H141057   5.621   3.087   2.324 -0.4007  0.4185  0.3083
 6522TIP3    H241058   5.480   3.103   2.269 -0.8573  2.0547  1.8483
 6523TIP3   OH241059   1.245   5.405   0.099  0.0499 -0.1862  0.5531
 6523TIP3    H141060   1.301   5.482   0.098 -1.2930  0.8056 -0.4588
 6523TIP3    H241061   1.215   5.395   0.009  0.1983 -1.9091  0.6562
 6524TIP3   OH241062   2.729   4.489  16.203  0.4199  0.0060  0.3208
 6524TIP3    H141063   2.637   4.482  16.227  0.5412 -1.7028  0.4043
 6524TIP3    H241064   2.775   4.438  16.269  1.3748  0.3867 -0.0346
 6525TIP3   OH241065   3.321   3.889  13.503 -0.4583 -0.5563  0.0647
 6525TIP3    H141066   3.346   3.924  13.418  1.7894 -1.0541  0.4797
 6525TIP3    H241067   3.316   3.794  13.490  1.5876 -0.8152  0.8306
 6526TIP3   OH241068   0.390   2.297   3.080 -0.7581 -0.4727  0.1968
 6526TIP3    H141069   0.394   2.392   3.081 -1.1581 -0.4181 -1.3163
 6526TIP3    H241070   0.414   2.271   3.169 -2.0500  1.0809  1.0464
 6527TIP3   OH241071   5.731   6.548  14.483 -0.5702 -0.2795  0.0495
 6527TIP3    H141072   5.661   6.582  14.539 -0.0541  0.9825 -0.0353
 6527TIP3    H241073   5.721   6.453  14.486 -0.9122 -0.2112  1.8100
 6528TIP3   OH241074   1.529   5.121  17.146 -0.2455 -0.2669  0.3458
 6528TIP3    H141075   1.478   5.194  17.182  0.2839  0.1624  0.2370
 6528TIP3    H241076   1.506   5.119  17.054 -0.1656 -0.1533  0.3220
 6529TIP3   OH241077   0.888   5.664  13.148  0.6597 -0.1220 -0.3448
 6529TIP3    H141078   0.811   5.714  13.178 -0.1012 -1.7318  0.5429
 6529TIP3    H241079   0.925   5.628  13.229  1.4629 -0.6126 -0.9221
 6530TIP3   OH241080   4.537   5.951   3.431  0.3265  0.7965  0.1870
 6530TIP3    H141081   4.542   6.020   3.365 -2.7165  1.0276  0.0677
 6530TIP3    H241082   4.508   5.996   3.510  1.5632  0.1326  1.0407
 6531TIP3   OH241083   0.165   2.118   1.468  0.6774  0.6201 -0.8293
 6531TIP3    H141084   0.151   2.196   1.521 -1.7777 -0.6277  0.5158
 6531TIP3    H241085   0.210   2.057   1.526  0.1723  0.0963 -0.9835
 6532TIP3   OH241086   4.084   1.877  14.976  0.4817  0.3352 -1.0780
 6532TIP3    H141087   4.168   1.860  15.019 -0.1201  1.0442  0.4589
 6532TIP3    H241088   4.107   1.927  14.898  1.4524  1.3083 -0.2102
 6533TIP3   OH241089   2.158   2.670  12.612 -0.3203  0.3124 -0.5204
 6533TIP3    H141090   2.241   2.687  12.566  0.4017  0.2587  0.7107
 6533TIP3    H241091   2.092   2.715  12.560  0.6481  1.3070 -0.9258
 6534TIP3   OH241092   2.173   0.925  13.503  0.3061  0.0664  0.7121
 6534TIP3    H141093   2.165   0.835  13.471 -0.2787 -0.1411  1.4360
 6534TIP3    H241094   2.246   0.922  13.565  0.9802  0.3250 -0.0431
 6535TIP3   OH241095   3.094   0.809  14.751 -0.3759 -0.1408 -0.3291
 6535TIP3    H141096   3.175   0.767  14.721 -0.4114 -0.1826 -0.3661
 6535TIP3    H241097   3.098   0.805  14.847 -0.1775  0.1521 -0.3229
 6536TIP3   OH241098   3.298   1.522   3.511  0.7583 -0.2324  0.4110
 6536TIP3    H141099   3.352   1.531   3.432  1.3120  1.1295  0.9148
 6536TIP3    H241100   3.284   1.428   3.519  0.6210 -0.4006 -1.3541
 6537TIP3   OH241101   2.841   1.476  11.415  0.1891  0.5494 -0.3586
 6537TIP3    H141102   2.828   1.550  11.356 -0.2034  0.5123 -0.3180
 6537TIP3    H241103   2.754   1.456  11.450  0.1004 -0.6482 -1.2086
 6538TIP3   OH241104   6.228   1.773  16.048 -0.1959 -0.2608 -0.2026
 6538TIP3    H141105   6.236   1.790  15.954  0.7511  1.0458  0.0809
 6538TIP3    H241106   6.198   1.857  16.084  1.2340 -0.1696  0.8667
 6539TIP3   OH241107   4.445   0.196   1.240  0.1207  0.4608 -0.5318
 6539TIP3    H141108   4.357   0.211   1.275 -0.2613 -1.7637 -0.4095
 6539TIP3    H241109   4.499   0.182   1.318  0.5293  1.4183 -0.6262
 6540TIP3   OH241110   4.970   4.436  16.997 -0.0470  0.2421 -0.0644
 6540TIP3    H141111   5.053   4.389  17.007 -0.7938 -1.1263 -0.0141
 6540TIP3    H241112   4.991   4.511  16.941  1.8054  1.5728  2.2567
 6541TIP3   OH241113   4.767   0.442  12.998  0.2485 -0.3000 -0.4658
 6541TIP3    H141114   4.840   0.384  13.015 -0.6563 -1.0694  0.9916
 6541TIP3    H241115   4.689   0.387  13.010 -0.6085  0.9637 -0.0146
 6542TIP3   OH241116   2.780   5.432  17.028  0.0243  0.2723  0.4577
 6542TIP3    H141117   2.717   5.491  17.070  0.3289  1.7284 -1.0714
 6542TIP3    H241118   2.865   5.470  17.046  0.1990  0.5605 -0.9172
 6543TIP3   OH241119   5.702   5.291  14.270  0.0943 -0.1572 -0.3058
 6543TIP3    H141120   5.744   5.206  14.288  0.1777  0.0816  0.6490
 6543TIP3    H241121   5.612   5.268  14.247 -0.1271 -0.4623  0.7978
 6544TIP3   OH241122   1.038   6.516  14.214 -0.9682  0.5295 -0.1405
 6544TIP3    H141123   1.063   6.505  14.306 -2.0372  2.4693  0.4299
 6544TIP3    H241124   1.118   6.495  14.165 -0.0752  0.4858  1.2709
 6545TIP3   OH241125   5.866   4.065   2.271 -0.0440  0.5647 -0.4808
 6545TIP3    H141126   5.860   4.101   2.183  0.8021  0.6617 -0.5095
 6545TIP3    H241127   5.960   4.064   2.290 -0.2894  3.1886  1.4995
 6546TIP3   OH241128   3.250   3.836   3.701  0.1929 -0.1373 -1.1117
 6546TIP3    H141129   3.237   3.899   3.630  2.8091  0.7123 -0.9277
 6546TIP3    H241130   3.250   3.889   3.781  2.6687 -0.2238 -0.9692
 6547TIP3   OH241131   4.417   0.190   1.766 -0.1047  0.0233 -0.0672
 6547TIP3    H141132   4.349   0.255   1.783  0.7388  1.3928 -1.6013
 6547TIP3    H241133   4.372   0.117   1.724 -0.7180  0.6750 -0.5538
 6548TIP3   OH241134   3.177   4.068   5.466  0.4971 -0.1039  0.0903
 6548TIP3    H141135   3.129   4.107   5.539  1.2785  0.9257  0.0786
 6548TIP3    H241136   3.268   4.093   5.482  0.7152 -0.0971 -1.1042
 6549TIP3   OH241137   0.161   5.121  17.170 -0.0007 -0.1231 -0.4079
 6549TIP3    H141138   0.099   5.060  17.130  1.0259  0.2748 -2.8083
 6549TIP3    H241139   0.143   5.205  17.128  1.8238  0.0918 -0.8816
 6550TIP3   OH241140   4.655   4.414  11.817  0.3252 -0.7978 -0.4207
 6550TIP3    H141141   4.609   4.347  11.869 -0.3458 -0.6464 -0.7977
 6550TIP3    H241142   4.589   4.443  11.753  0.3939  0.6909  0.1519
 6551TIP3   OH241143   5.732   2.326  12.892  0.2761  0.2088  0.2422
 6551TIP3    H141144   5.797   2.378  12.940 -0.0649  1.6316 -0.7585
 6551TIP3    H241145   5.781   2.284  12.822  0.6533 -1.3387  1.3731
 6552TIP3   OH241146   4.065   0.832  14.043 -0.0376  0.0786  0.3319
 6552TIP3    H141147   4.024   0.757  13.999 -0.6228  1.0126 -0.7723
 6552TIP3    H241148   4.016   0.908  14.010  1.4625  1.0687  0.3331
 6553TIP3   OH241149   3.492   4.428  10.760  0.6499  0.2097  0.0275
 6553TIP3    H141150   3.414   4.433  10.706  1.2154  2.4556 -0.6935
 6553TIP3    H241151   3.565   4.433  10.698  1.3687 -0.4042  0.7888
 6554TIP3   OH241152   0.070   4.591   6.229  0.1231  0.0539  0.0192
 6554TIP3    H141153  -0.006   4.571   6.284  0.4204 -0.9843  0.0647
 6554TIP3    H241154   0.139   4.533   6.260  1.5230  2.1526  1.1542
 6555TIP3   OH241155   1.886   3.570  16.982  0.1761  0.1752  0.6226
 6555TIP3    H141156   1.965   3.596  17.031  0.7346  0.5034 -0.4075
 6555TIP3    H241157   1.820   3.635  17.007  0.9235  1.3146 -0.2504
 6556TIP3   OH241158   0.628   1.656   5.505  0.3413  0.8867 -0.1387
 6556TIP3    H141159   0.571   1.628   5.577 -0.6601 -0.1224 -1.2821
 6556TIP3    H241160   0.715   1.663   5.545 -0.1652  0.1934  1.1438
 6557TIP3   OH241161   3.657   5.976   5.237  0.3298 -0.1777  0.0925
 6557TIP3    H141162   3.655   5.911   5.166 -0.5679  0.6940 -0.7259
 6557TIP3    H241163   3.744   5.968   5.275  0.6525 -1.0332 -0.7760
 6558TIP3   OH241164   1.895   0.030   3.965 -0.5895  0.6320  0.7902
 6558TIP3    H141165   1.938  -0.040   4.016  0.5221 -0.8705 -1.9740
 6558TIP3    H241166   1.925   0.111   4.006  1.1840 -0.4654  1.8050
 6559TIP3   OH241167   2.934   2.230   3.135  0.0878 -0.0936  0.1408
 6559TIP3    H141168   2.879   2.268   3.203  1.6203  1.7903  0.4051
 6559TIP3    H241169   2.949   2.140   3.163 -0.9912  0.0413  1.2053
 6560TIP3   OH241170   4.547   0.583   1.721  0.1650  0.3292  0.3093
 6560TIP3    H141171   4.578   0.674   1.715  0.6761  0.2384  1.4258
 6560TIP3    H241172   4.625   0.532   1.739 -0.5059  0.0155  2.5661
 6561TIP3   OH241173   3.592   5.733  15.103  0.4538  0.1765  0.3997
 6561TIP3    H141174   3.682   5.720  15.133  0.9172 -0.1904 -1.0388
 6561TIP3    H241175   3.600   5.799  15.034 -0.4507  0.4832  0.5886
 6562TIP3   OH241176   1.055   6.313  15.943 -0.1455 -0.6348  0.0556
 6562TIP3    H141177   0.960   6.324  15.942 -0.2290 -1.3249 -0.2309
 6562TIP3    H241178   1.089   6.402  15.954 -0.8147 -0.3120 -0.3842
 6563TIP3   OH241179   2.852   1.102  13.720 -0.2952 -0.1697 -0.6855
 6563TIP3    H141180   2.847   1.144  13.806  1.8656  0.0208 -0.5994
 6563TIP3    H241181   2.833   1.172  13.658 -2.4680 -0.4352 -0.4090
 6564TIP3   OH241182   2.900   6.299  13.340  0.1011 -0.0706 -0.2771
 6564TIP3    H141183   2.954   6.260  13.271 -0.1119  1.1423 -1.1744
 6564TIP3    H241184   2.943   6.382  13.360  0.2445 -0.4686  1.1936
 6565TIP3   OH241185   2.592   2.162   2.718  0.4287 -0.2586 -0.1066
 6565TIP3    H141186   2.577   2.196   2.630 -0.4208  0.1208  0.1800
 6565TIP3    H241187   2.639   2.232   2.763 -0.8241  0.3448  0.3112
 6566TIP3   OH241188   6.151   0.237   4.287 -0.4914 -0.0417 -0.4443
 6566TIP3    H141189   6.217   0.264   4.222 -0.4688 -1.4105 -1.0063
 6566TIP3    H241190   6.068   0.266   4.251 -0.2429  1.8140  0.3269
 6567TIP3   OH241191   0.795   0.665   5.380  0.0186  0.1287 -0.0538
 6567TIP3    H141192   0.842   0.683   5.461 -0.7872 -0.1656  0.4888
 6567TIP3    H241193   0.809   0.572   5.364  0.3807  0.2360 -0.3980
 6568TIP3   OH241194   0.483   4.158   1.378 -0.7426  0.3101  0.3942
 6568TIP3    H141195   0.554   4.140   1.317 -0.3832 -0.2226  0.9485
 6568TIP3    H241196   0.403   4.147   1.327 -0.6733 -4.1359  0.8055
 6569TIP3   OH241197   1.962   6.641  12.993  0.2427  0.0501  0.4024
 6569TIP3    H141198   1.997   6.730  12.997 -0.2361  0.2318  3.5234
 6569TIP3    H241199   1.971   6.615  12.902  0.9950  3.0490 -0.4852
 6570TIP3   OH241200   1.877   2.733  15.256 -0.0312  0.7110  0.2363
 6570TIP3    H141201   1.971   2.753  15.264 -0.1821  1.9737 -0.8297
 6570TIP3    H241202   1.872   2.638  15.266  1.7163  0.2469 -2.2410
 6571TIP3   OH241203   5.449   1.602   3.541 -0.0201  0.1195  0.0503
 6571TIP3    H141204   5.427   1.576   3.452 -0.0003 -0.7296  0.2837
 6571TIP3    H241205   5.403   1.685   3.554  0.1483  0.3557 -0.8185
 6572TIP3   OH241206   1.249   2.819  13.827 -0.1504 -0.1393 -0.4329
 6572TIP3    H141207   1.272   2.735  13.867  1.2452  0.3294 -0.1801
 6572TIP3    H241208   1.310   2.827  13.753  1.8295  1.9362  1.2645
 6573TIP3   OH241209   5.597   3.409  17.172  0.1110 -0.2400  0.2211
 6573TIP3    H141210   5.638   3.494  17.156  3.7480 -2.1060 -1.6467
 6573TIP3    H241211   5.616   3.358  17.093 -2.5584 -2.6512  0.9636
 6574TIP3   OH241212   2.387   2.357   0.681  0.5108  0.1468  0.5353
 6574TIP3    H141213   2.422   2.318   0.762 -0.5935 -1.7423  0.1631
 6574TIP3    H241214   2.434   2.312   0.611  1.8382  2.1469  0.0705
 6575TIP3   OH241215   5.986   5.490  16.579 -0.0348 -0.3572 -0.2089
 6575TIP3    H141216   5.970   5.400  16.553 -2.5376  0.0527 -0.3651
 6575TIP3    H241217   6.022   5.532  16.501 -2.0565 -0.4787 -1.2683
 6576TIP3   OH241218   5.835   4.737   4.862 -0.2625  0.1279  0.3200
 6576TIP3    H141219   5.804   4.827   4.875  0.2642  0.1882  1.1634
 6576TIP3    H241220   5.760   4.693   4.822 -0.3370  1.0723 -0.6616
 6577TIP3   OH241221   2.523   1.928   3.993  0.2420 -0.4147  0.1626
 6577TIP3    H141222   2.542   2.018   3.968  2.3562 -0.2909  1.9362
 6577TIP3    H241223   2.429   1.918   3.979 -0.3891  2.6433  1.6049
 6578TIP3   OH241224   6.151   1.635   6.543  0.2560 -0.7502 -0.0992
 6578TIP3    H141225   6.095   1.628   6.466  0.4515 -1.6138 -0.1670
 6578TIP3    H241226   6.103   1.590   6.612  0.7583 -1.3112 -0.1047
 6579TIP3   OH241227   0.661   4.137  15.073 -0.3565  0.1361 -0.4155
 6579TIP3    H141228   0.716   4.149  14.995 -1.2617  1.1095 -0.9208
 6579TIP3    H241229   0.723   4.114  15.142  0.2880 -2.8180 -1.8187
 6580TIP3   OH241230   1.503   6.263  13.845  0.1304  0.3194  0.1056
 6580TIP3    H141231   1.578   6.208  13.824  0.7018  0.8028  0.8059
 6580TIP3    H241232   1.515   6.285  13.937 -0.3884  1.1394 -0.0135
 6581TIP3   OH241233   1.326   1.988   1.000 -0.4908 -0.1639 -0.1591
 6581TIP3    H141234   1.409   1.941   0.988  0.3673  0.8808  1.2443
 6581TIP3    H241235   1.308   1.979   1.094 -1.1327  0.9703 -0.1669
 6582TIP3   OH241236   4.251   5.547   4.394  0.2789  0.2539  1.0704
 6582TIP3    H141237   4.206   5.516   4.315 -0.3832  1.2873  1.0305
 6582TIP3    H241238   4.344   5.544   4.372  0.1573 -0.4187  0.6145
 6583TIP3   OH241239   2.731   4.381   5.925 -0.3839  0.3384 -0.3762
 6583TIP3    H141240   2.809   4.400   5.978 -0.2636 -1.0245 -0.0295
 6583TIP3    H241241   2.657   4.404   5.982 -0.2450 -0.2090  0.0283
 6584TIP3   OH241242   5.505   1.708   2.012 -0.4964 -0.0278 -0.1201
 6584TIP3    H141243   5.589   1.677   2.048 -0.0326 -0.4617 -1.5154
 6584TIP3    H241244   5.456   1.737   2.089  0.5875 -0.5880  0.8240
 6585TIP3   OH241245   6.433   5.383  12.605  0.6546 -0.4801 -0.3486
 6585TIP3    H141246   6.383   5.382  12.523  0.7671 -1.1738 -0.4171
 6585TIP3    H241247   6.422   5.295  12.641 -0.8179  0.3223  1.2723
 6586TIP3   OH241248   6.573   1.490  16.958 -0.2472 -0.0664  0.1667
 6586TIP3    H141249   6.615   1.561  17.008  0.1760 -0.3486  0.2177
 6586TIP3    H241250   6.617   1.411  16.989 -0.8709 -0.3739  0.2653
 6587TIP3   OH241251   5.088   0.739   4.757  0.0390 -0.0630 -0.4666
 6587TIP3    H141252   5.149   0.678   4.716 -2.2935 -1.8371 -1.4958
 6587TIP3    H241253   5.077   0.706   4.846  1.5817  1.1095  0.2129
 6588TIP3   OH241254   6.519   5.217   6.013  0.0353 -0.4221  0.4040
 6588TIP3    H141255   6.564   5.281   6.069 -0.2544 -0.5513  0.7884
 6588TIP3    H241256   6.450   5.182   6.068  0.9829 -2.0128  0.6525
 6589TIP3   OH241257   6.097   1.239   2.026 -0.3148 -0.9119  0.1377
 6589TIP3    H141258   6.046   1.270   1.952  0.6022 -0.7230 -0.4227
 6589TIP3    H241259   6.040   1.174   2.069 -0.9377 -0.8501 -0.5854
 6590TIP3   OH241260   2.602   0.996  13.827 -0.1748 -0.5213 -0.4328
 6590TIP3    H141261   2.543   1.039  13.889  0.4440  1.0470 -0.8785
 6590TIP3    H241262   2.689   1.009  13.864  0.1672  0.0838 -1.4082
 6591TIP3   OH241263   6.353   3.563  12.175 -0.3604 -0.3645  0.0860
 6591TIP3    H141264   6.315   3.510  12.105  0.7905 -2.6467  1.1118
 6591TIP3    H241265   6.408   3.627  12.129 -1.2549 -0.4538 -1.1553
 6592TIP3   OH241266   5.105   4.989   2.416 -0.8700 -0.2288  0.6372
 6592TIP3    H141267   5.155   4.940   2.481 -0.1121  0.0534  0.2777
 6592TIP3    H241268   5.075   5.067   2.463  1.8321  1.2976  0.0641
 6593TIP3   OH241269   1.859   2.383  17.109 -0.2606  0.1172 -0.3256
 6593TIP3    H141270   1.898   2.344  17.187 -0.5007  1.0511  0.2861
 6593TIP3    H241271   1.933   2.402  17.052  0.2178  1.8314  0.8026
 6594TIP3   OH241272   3.914   5.024   1.614 -0.1351  0.6147  0.3401
 6594TIP3    H141273   3.844   5.029   1.549 -1.9656 -0.6643  2.0836
 6594TIP3    H241274   3.975   5.093   1.590 -2.9078  3.0242 -0.2477
 6595TIP3   OH241275   3.816   0.371  13.201 -0.3524  0.1117 -0.7304
 6595TIP3    H141276   3.882   0.435  13.174 -0.9918  1.5707  1.0371
 6595TIP3    H241277   3.815   0.376  13.296 -1.1264 -1.8533 -0.5848
 6596TIP3   OH241278   0.412   0.873   0.087  0.1464 -0.4290 -0.6077
 6596TIP3    H141279   0.331   0.841   0.047 -1.4944  0.9797  1.3900
 6596TIP3    H241280   0.441   0.801   0.142 -0.7674 -0.3137  0.0456
 6597TIP3   OH241281   1.510   4.940   0.963 -0.3039  0.6243 -0.4544
 6597TIP3    H141282   1.544   5.029   0.976  0.1110  0.2224  1.5784
 6597TIP3    H241283   1.442   4.930   1.030 -0.6545 -0.4437 -0.9454
 6598TIP3   OH241284   0.701   3.400   1.235  0.2511  0.0439  0.2775
 6598TIP3    H141285   0.768   3.350   1.282  1.1193 -0.9499 -1.8973
 6598TIP3    H241286   0.628   3.406   1.297  0.2468 -3.6266  0.8270
 6599TIP3   OH241287   3.520   4.465   5.075 -0.2491  0.0610 -0.2363
 6599TIP3    H141288   3.562   4.391   5.120  0.1630  0.1866 -0.4099
 6599TIP3    H241289   3.590   4.505   5.024 -0.8762 -0.5479 -1.6099
 6600TIP3   OH241290   4.762   4.707  16.533  0.7452  0.1832  0.2610
 6600TIP3    H141291   4.785   4.714  16.625  1.2765  0.4280  0.1094
 6600TIP3    H241292   4.834   4.659  16.493  0.7160  0.4373 -0.1050
 6601TIP3   OH241293   5.460   3.877   2.133 -0.0666  0.0324 -0.0862
 6601TIP3    H141294   5.381   3.870   2.079  0.1071 -0.7934 -0.2581
 6601TIP3    H241295   5.523   3.818   2.091  0.5749  0.5221  0.1692
 6602TIP3   OH241296   4.977   5.625  16.841  0.3632  0.0852 -0.3279
 6602TIP3    H141297   5.068   5.650  16.830  0.8707 -0.7778  1.5115
 6602TIP3    H241298   4.950   5.592  16.755  1.9737 -0.2526 -0.7282
 6603TIP3   OH241299   0.502   2.321  13.506  0.3724  0.0577  0.4276
 6603TIP3    H141300   0.575   2.259  13.511  1.0547  0.7677 -0.3736
 6603TIP3    H241301   0.451   2.304  13.585  0.0649 -2.0971 -0.1648
 6604TIP3   OH241302   1.624   4.508   6.289 -0.1694  0.1579  0.3646
 6604TIP3    H141303   1.580   4.492   6.372 -0.7305 -1.9539 -0.2703
 6604TIP3    H241304   1.718   4.498   6.309 -0.3545 -1.5380  0.5677
 6605TIP3   OH241305   3.795   2.525   3.841  0.2382 -0.0698 -0.2434
 6605TIP3    H141306   3.805   2.493   3.752  0.4273 -2.6342  0.6085
 6605TIP3    H241307   3.706   2.560   3.844  0.0715 -0.3640 -1.3105
 6606TIP3   OH241308   0.539   1.327  15.313  0.0440 -0.4181 -0.2288
 6606TIP3    H141309   0.503   1.379  15.242  0.5400  0.6714  0.2906
 6606TIP3    H241310   0.463   1.290  15.357 -0.6226  2.7823  1.5749
 6607TIP3   OH241311   1.466   0.776  13.596  0.3749 -0.9404 -0.7472
 6607TIP3    H141312   1.472   0.869  13.574 -0.1077 -0.4707  0.9476
 6607TIP3    H241313   1.553   0.754  13.630 -0.3140 -0.2686  1.6750
 6608TIP3   OH241314   4.482   2.512   2.900 -0.4595  0.0935  0.1419
 6608TIP3    H141315   4.435   2.430   2.885 -0.6984  0.1215  0.6872
 6608TIP3    H241316   4.526   2.499   2.984  0.8578 -0.0786 -0.5510
 6609TIP3   OH241317   2.474   6.614  17.085  0.3791 -0.0579  0.1135
 6609TIP3    H141318   2.524   6.693  17.105 -1.5455  1.2975 -0.2330
 6609TIP3    H241319   2.494   6.555  17.158  0.9376  1.1780  1.0023
 6610TIP3   OH241320   4.054   5.851   3.526  0.0721 -0.1577 -0.2021
 6610TIP3    H141321   3.974   5.860   3.578 -0.3961 -0.5570 -0.8361
 6610TIP3    H241322   4.045   5.916   3.456  0.4337 -0.0162 -0.1214
 6611TIP3   OH241323   1.275   3.811   4.894  0.4428  0.1286 -0.2191
 6611TIP3    H141324   1.358   3.766   4.910  0.3001 -0.4594 -1.0510
 6611TIP3    H241325   1.216   3.742   4.864  0.0977  0.8033 -1.1297
 6612TIP3   OH241326   6.382   5.275  16.649 -0.2401 -0.0782  0.2096
 6612TIP3    H141327   6.379   5.351  16.590  0.0643  0.8449  1.3413
 6612TIP3    H241328   6.472   5.245  16.645 -0.5643 -0.9748 -0.9321
 6613TIP3   OH241329   5.955   0.574  12.790 -0.0397  0.2787  0.5664
 6613TIP3    H141330   6.034   0.603  12.834  0.7129  0.2449 -0.7166
 6613TIP3    H241331   5.887   0.634  12.822  0.8225  1.3501  0.4703
 6614TIP3   OH241332   5.216   5.420   3.593  0.2790  0.4635 -0.2071
 6614TIP3    H141333   5.120   5.430   3.590 -0.2990 -2.9895  1.6323
 6614TIP3    H241334   5.240   5.392   3.505 -0.9712 -1.7382  0.0775
 6615TIP3   OH241335   6.424   2.776   2.983  0.6342  0.0748  0.4642
 6615TIP3    H141336   6.497   2.831   3.012 -0.6510  0.6757  2.7913
 6615TIP3    H241337   6.392   2.819   2.904  0.7193  1.7579  1.3025
 6616TIP3   OH241338   1.283   4.631   1.183  0.2678  0.2003 -0.2073
 6616TIP3    H141339   1.355   4.647   1.245  0.4549 -0.5870 -0.2113
 6616TIP3    H241340   1.207   4.612   1.239  0.3688 -0.2285 -0.2145
 6617TIP3   OH241341   4.500   4.312  16.687 -0.3824 -0.7522  0.0673
 6617TIP3    H141342   4.522   4.378  16.752  1.6055 -0.8654 -0.4279
 6617TIP3    H241343   4.434   4.353  16.632 -1.8355 -0.5273  1.9005
 6618TIP3   OH241344   2.335   2.206   2.067 -0.5882  0.5705  0.0190
 6618TIP3    H141345   2.275   2.236   2.135 -0.6274 -0.2345  0.3541
 6618TIP3    H241346   2.383   2.284   2.040 -0.7601  0.9457  0.7837
 6619TIP3   OH241347   2.677   1.137   4.023  0.6583  0.0879 -0.2869
 6619TIP3    H141348   2.763   1.094   4.022  0.8159  0.4081 -1.0070
 6619TIP3    H241349   2.652   1.143   3.930 -0.0287  0.2260 -0.0999
 6620TIP3   OH241350   3.556   5.102   5.354 -0.1109 -0.7254  0.2711
 6620TIP3    H141351   3.576   5.053   5.274  1.3846  0.4702 -0.1437
 6620TIP3    H241352   3.503   5.176   5.324 -1.0430 -1.2182  0.6669
 6621TIP3   OH241353   3.906   3.000   0.921  0.3627 -0.2454  0.0695
 6621TIP3    H141354   3.961   2.922   0.932 -0.0035 -0.5934 -0.5040
 6621TIP3    H241355   3.954   3.055   0.860 -0.1092 -0.7379 -0.7595
 6622TIP3   OH241356   0.266   1.543   5.378  0.2000 -0.1414  0.8184
 6622TIP3    H141357   0.284   1.479   5.447 -1.0198 -1.7290 -0.2438
 6622TIP3    H241358   0.281   1.494   5.297 -0.7326  0.9428 -0.0307
 6623TIP3   OH241359   6.491   6.146   0.438 -0.2575 -0.1043  0.1532
 6623TIP3    H141360   6.433   6.075   0.467 -0.2274  0.5414  1.9195
 6623TIP3    H241361   6.431   6.217   0.413 -0.2933 -0.7553 -1.7694
 6624TIP3   OH241362   5.536   2.358  13.146 -0.3655  0.7708  0.1110
 6624TIP3    H141363   5.577   2.350  13.060  0.0360 -1.8201  0.4717
 6624TIP3    H241364   5.610   2.373  13.206 -0.3031 -0.2959  0.3208
 6625TIP3   OH241365   3.428   6.386  14.412 -0.2460  0.6531 -1.0573
 6625TIP3    H141366   3.425   6.334  14.492 -1.5531  0.0976 -1.4434
 6625TIP3    H241367   3.450   6.475  14.442 -1.0879  0.5374 -0.0363
 6626TIP3   OH241368   2.936   6.516  15.693  0.3741  0.4001 -0.0406
 6626TIP3    H141369   2.984   6.542  15.772 -0.7421 -1.3716  1.3091
 6626TIP3    H241370   3.004   6.502  15.627  1.4057  1.1472  0.8300
 6627TIP3   OH241371   4.668   2.031   0.695  0.5283  0.1620  0.6014
 6627TIP3    H141372   4.613   1.957   0.668  1.0672 -0.2044  0.5031
 6627TIP3    H241373   4.662   2.032   0.790  2.0230 -1.2039  0.7608
 6628TIP3   OH241374   0.334   4.608  14.110  0.6403 -0.1098 -0.0561
 6628TIP3    H141375   0.246   4.600  14.074  1.1489 -1.5698 -1.0977
 6628TIP3    H241376   0.386   4.642  14.037  1.1293 -0.2192  0.2400
 6629TIP3   OH241377   3.437   3.002   4.306 -0.1664  0.9537  0.5814
 6629TIP3    H141378   3.532   2.994   4.316 -0.3138 -0.3505  1.0263
 6629TIP3    H241379   3.414   2.935   4.242 -0.9482  0.3703  1.4527
 6630TIP3   OH241380   0.573   3.053   0.085  0.1733  0.1708 -0.8497
 6630TIP3    H141381   0.478   3.052   0.074  0.0178 -0.3069  0.4324
 6630TIP3    H241382   0.601   2.967   0.053 -0.0509 -0.4184  0.4784
 6631TIP3   OH241383   2.925   4.893   5.484  0.2176 -0.1463 -0.2245
 6631TIP3    H141384   2.951   4.973   5.531 -1.5797 -0.0678  0.7259
 6631TIP3    H241385   2.921   4.920   5.392 -0.3552  0.8711  0.0800
 6632TIP3   OH241386   3.811   0.587   3.021  0.1991  0.7837 -0.4089
 6632TIP3    H141387   3.776   0.673   2.998  1.0247  1.2766  0.1506
 6632TIP3    H241388   3.749   0.525   2.982 -0.5251  1.6264 -0.6225
 6633TIP3   OH241389   2.663   2.023  16.329 -0.7409  0.5811 -0.0717
 6633TIP3    H141390   2.757   2.008  16.338 -0.8914 -0.6839 -0.4959
 6633TIP3    H241391   2.656   2.083  16.255 -0.3593 -0.9363 -1.3839
 6634TIP3   OH241392   3.373   1.003  14.054  0.0994 -0.4603  0.9178
 6634TIP3    H141393   3.296   0.975  14.003 -1.0283  1.8878  1.2020
 6634TIP3    H241394   3.381   0.936  14.123 -0.2792 -1.9680 -0.4411
 6635TIP3   OH241395   0.599   0.289  16.987 -0.6490  0.0555 -0.3896
 6635TIP3    H141396   0.603   0.197  17.013 -0.3173  0.2317  0.2044
 6635TIP3    H241397   0.535   0.328  17.047  0.7887  0.6616  0.7879
 6636TIP3   OH241398   2.195   1.242   1.252  0.2069  0.0692  0.1199
 6636TIP3    H141399   2.242   1.276   1.328  0.3229  3.1903 -1.2135
 6636TIP3    H241400   2.105   1.270   1.265  0.0053 -0.3178 -0.3966
 6637TIP3   OH241401   0.698   0.572  15.102  0.0125 -0.2209 -0.8724
 6637TIP3    H141402   0.613   0.572  15.058 -0.0722 -0.9801 -0.7148
 6637TIP3    H241403   0.686   0.630  15.177  0.0444  0.7769 -1.6139
 6638TIP3   OH241404   5.199   6.609  13.973 -0.4563 -0.0361 -0.3266
 6638TIP3    H141405   5.128   6.632  14.033  0.6777 -2.8759  2.4280
 6638TIP3    H241406   5.187   6.516  13.956  1.2548 -0.0547 -1.7114
 6639TIP3   OH241407   0.993   6.264  16.584  0.0586 -0.9373 -0.0327
 6639TIP3    H141408   1.024   6.199  16.647 -0.7765  0.6232  2.1043
 6639TIP3    H241409   1.073   6.303  16.550  0.5287 -0.8907  1.0854
 6640TIP3   OH241410   1.765   2.726  17.034 -0.1209  0.4446 -0.2127
 6640TIP3    H141411   1.814   2.717  16.952  1.9057 -3.1855  1.1600
 6640TIP3    H241412   1.717   2.643  17.042 -0.3334  0.7289  2.1897
 6641TIP3   OH241413   3.303   6.733   3.351 -0.0463 -0.0405  0.0269
 6641TIP3    H141414   3.231   6.783   3.389  0.0505  0.2327 -0.1470
 6641TIP3    H241415   3.368   6.726   3.422 -0.5419 -0.8959  0.4073
 6642TIP3   OH241416   5.504   2.686  11.554  0.0014  0.4361 -0.0155
 6642TIP3    H141417   5.583   2.633  11.542  2.4170  3.2807  1.9906
 6642TIP3    H241418   5.458   2.644  11.626  1.3041  0.3873  0.8227
 6643TIP3   OH241419   6.226   3.302  16.668 -0.0554 -0.0154 -0.0799
 6643TIP3    H141420   6.258   3.227  16.719  0.1440 -0.1004 -0.3307
 6643TIP3    H241421   6.267   3.292  16.582  3.2073  2.5153  0.9973
 6644TIP3   OH241422   2.516   1.369  11.019 -0.0622  0.1860 -0.3081
 6644TIP3    H141423   2.438   1.371  11.075 -1.6851 -0.9969 -2.3566
 6644TIP3    H241424   2.511   1.450  10.968  0.2785  0.3018 -0.1580
 6645TIP3   OH241425   4.940   4.357  14.398  0.1936  0.3049  0.1596
 6645TIP3    H141426   4.910   4.268  14.416 -0.1834 -0.1883 -2.5083
 6645TIP3    H241427   4.935   4.402  14.483  1.5993 -2.4918  1.8493
 6646TIP3   OH241428   2.843   2.171   0.863 -0.1184 -0.0855  0.8458
 6646TIP3    H141429   2.799   2.105   0.918 -1.2364 -0.4715 -0.4618
 6646TIP3    H241430   2.822   2.254   0.905 -3.2680 -0.1244 -0.3713
 6647TIP3   OH241431   5.006   3.432   0.631 -0.7075  0.3416  0.4097
 6647TIP3    H141432   4.940   3.431   0.562 -1.9398  1.6348  1.5073
 6647TIP3    H241433   5.005   3.343   0.667  1.2294 -0.9417 -2.2704
 6648TIP3   OH241434   5.827   2.556  12.187 -0.1877  0.1057 -0.4116
 6648TIP3    H141435   5.855   2.539  12.098  0.8381 -0.4629  0.0028
 6648TIP3    H241436   5.852   2.478  12.236 -1.0732  0.2502  0.3098
 6649TIP3   OH241437   4.155   1.009  10.180  0.5387 -0.4742  0.1668
 6649TIP3    H141438   4.228   1.066  10.154  1.7867 -0.8413  2.5591
 6649TIP3    H241439   4.151   1.017  10.276 -1.3140 -1.9819  0.2821
 6650TIP3   OH241440   1.648   5.221   6.015 -0.7460  1.0673 -0.4140
 6650TIP3    H141441   1.589   5.184   6.081 -0.1417  0.7917 -0.0097
 6650TIP3    H241442   1.648   5.156   5.944  1.0008 -0.2154  0.6771
 6651TIP3   OH241443   2.936   4.164  15.249 -0.0831  0.0986  0.0457
 6651TIP3    H141444   2.908   4.206  15.331 -0.8699 -0.1649 -0.0781
 6651TIP3    H241445   2.918   4.229  15.181 -2.2469 -0.7333 -0.2766
 6652TIP3   OH241446   4.573   5.920  11.499 -0.2696 -0.2061  0.0643
 6652TIP3    H141447   4.605   5.997  11.546 -1.0491  0.2193 -0.0910
 6652TIP3    H241448   4.481   5.938  11.483 -0.5223 -1.2724  0.2285
 6653TIP3   OH241449   5.958   5.380  15.558 -0.2300  0.1810 -0.5469
 6653TIP3    H141450   6.046   5.350  15.537 -0.8290 -0.9480 -1.5625
 6653TIP3    H241451   5.907   5.300  15.570 -1.2710  0.8091 -0.6602
 6654TIP3   OH241452   6.440   3.506   0.065 -0.6844  0.6628 -0.2309
 6654TIP3    H141453   6.368   3.550   0.020  0.0439  0.1433 -2.0085
 6654TIP3    H241454   6.507   3.573   0.074 -1.8229  1.5476  2.7114
 6655TIP3   OH241455   0.547   2.915  14.243  0.4953 -0.1286 -0.9429
 6655TIP3    H141456   0.566   2.929  14.151  0.0059 -0.6285 -1.1235
 6655TIP3    H241457   0.631   2.891  14.282  0.5461 -0.7443 -1.4250
 6656TIP3   OH241458   3.845   6.710   0.819 -0.2297 -0.1500  0.0392
 6656TIP3    H141459   3.877   6.733   0.732  1.3819 -1.5699  0.2078
 6656TIP3    H241460   3.754   6.740   0.820  0.3007  1.6989 -1.4038
 6657TIP3   OH241461   2.241   4.719   4.046 -0.2149  0.3549  0.0143
 6657TIP3    H141462   2.246   4.633   4.003  2.4595 -0.6081  1.9621
 6657TIP3    H241463   2.198   4.701   4.130  2.8563  0.1420  1.7185
 6658TIP3   OH241464   0.613   3.914  11.398 -0.0088  0.0787  0.1062
 6658TIP3    H141465   0.613   3.840  11.337 -1.0066 -0.2238  0.4486
 6658TIP3    H241466   0.585   3.876  11.481  2.1177  0.3210  0.9996
 6659TIP3   OH241467   1.052   3.519   4.487  0.0607 -0.1910  0.8267
 6659TIP3    H141468   1.013   3.436   4.513  1.0601 -0.4015  1.6877
 6659TIP3    H241469   0.976   3.577   4.474 -0.6699 -1.3073 -0.1666
 6660TIP3   OH241470   1.593   1.993   3.543 -0.2883  0.2696  0.2766
 6660TIP3    H141471   1.685   2.007   3.564 -0.2289  0.3393 -0.0130
 6660TIP3    H241472   1.566   2.075   3.500 -0.6651  0.5063  0.9551
 6661TIP3   OH241473   3.592   4.663  15.184 -0.4124  0.4930  0.0826
 6661TIP3    H141474   3.687   4.663  15.199 -0.2403  4.4766  0.2169
 6661TIP3    H241475   3.583   4.674  15.089 -0.6318  1.4465  0.1988
 6662TIP3   OH241476   3.049   6.171   1.228  0.2179  0.1745 -0.4382
 6662TIP3    H141477   3.092   6.133   1.304  1.5099  0.8261 -0.8140
 6662TIP3    H241478   2.983   6.107   1.202 -0.8068  0.2881  1.6868
 6663TIP3   OH241479   2.671   3.701  14.811  0.8647 -0.4746 -0.0481
 6663TIP3    H141480   2.735   3.692  14.740  0.2039  2.3437 -1.1378
 6663TIP3    H241481   2.590   3.666  14.775  1.0170 -0.9749  0.0945
 6664TIP3   OH241482   4.640   1.677   2.652  0.1937 -0.4297 -0.3594
 6664TIP3    H141483   4.689   1.626   2.588  0.9603 -0.0422 -0.0897
 6664TIP3    H241484   4.706   1.709   2.713 -0.5316 -0.8792  0.6901
 6665TIP3   OH241485   3.842   6.087  10.480  0.1379  0.1848  0.0843
 6665TIP3    H141486   3.779   6.018  10.458 -0.2943  0.8529 -0.8337
 6665TIP3    H241487   3.920   6.066  10.429 -0.2694  0.7942 -0.8102
 6666TIP3   OH241488   2.383   2.877  15.343  0.2373  0.1773 -0.3022
 6666TIP3    H141489   2.436   2.806  15.377 -0.5169  0.1614  0.9118
 6666TIP3    H241490   2.382   2.943  15.413 -0.1773  0.7799 -0.8575
 6667TIP3   OH241491   6.561   4.699  14.246 -0.1230 -0.0042  0.3773
 6667TIP3    H141492   6.547   4.716  14.339  0.2329  1.1943  0.2260
 6667TIP3    H241493   6.620   4.623  14.244 -0.1930 -0.0856  1.1180
 6668TIP3   OH241494   4.701   4.170   6.359 -0.0528 -0.1399 -0.0579
 6668TIP3    H141495   4.771   4.107   6.337  0.2293  0.6910 -1.7327
 6668TIP3    H241496   4.736   4.221   6.431 -0.3997 -2.0420  1.5479
 6669TIP3   OH241497   4.652   0.185  12.700  0.9854  0.1206  0.0986
 6669TIP3    H141498   4.736   0.139  12.698  1.0615  0.2472  0.4003
 6669TIP3    H241499   4.666   0.262  12.644  0.6904 -0.5015 -0.8580
 6670TIP3   OH241500   0.822   4.078   1.462  0.1344  0.0312 -0.4677
 6670TIP3    H141501   0.779   4.155   1.499  0.3554 -0.2353  0.3489
 6670TIP3    H241502   0.905   4.112   1.426  1.0223 -0.0828  1.3813
 6671TIP3   OH241503   2.965   2.578   1.271  0.1863 -0.6197  0.2590
 6671TIP3    H141504   2.955   2.537   1.185 -1.8654 -0.1752  0.2422
 6671TIP3    H241505   2.981   2.505   1.331 -2.7247 -1.5066  0.1260
 6672TIP3   OH241506   1.311   3.481   2.260 -0.1198  0.5945 -0.1207
 6672TIP3    H141507   1.282   3.571   2.275  0.4056  1.0479 -1.5915
 6672TIP3    H241508   1.266   3.455   2.179 -0.1926 -0.4413  0.2414
 6673TIP3   OH241509   3.323   0.108   5.049 -0.2050  0.2381  0.8311
 6673TIP3    H141510   3.323   0.024   5.095 -3.5499 -0.1335  0.4295
 6673TIP3    H241511   3.257   0.160   5.095 -0.6430  1.3691 -0.9673
 6674TIP3   OH241512   3.711   3.304   6.492  0.1635 -0.2015  0.4468
 6674TIP3    H141513   3.705   3.374   6.557 -1.3247  0.1164 -0.0020
 6674TIP3    H241514   3.749   3.230   6.541  0.1760  0.3911  1.3606
 6675TIP3   OH241515   1.114   5.759  14.561 -0.2293  0.2561 -0.4749
 6675TIP3    H141516   1.044   5.779  14.624  0.5174  0.7605  0.2039
 6675TIP3    H241517   1.067   5.723  14.485 -1.1289 -0.5229  0.4205
 6676TIP3   OH241518   2.081   6.004   5.274  0.1910 -0.1524 -1.0177
 6676TIP3    H141519   2.014   5.965   5.218 -0.7008  0.8531 -0.6966
 6676TIP3    H241520   2.117   5.931   5.324 -1.3159 -0.6036 -0.5280
 6677TIP3   OH241521   5.924   4.505  14.086  0.0396  0.1499 -0.7565
 6677TIP3    H141522   5.886   4.427  14.045  1.2996 -0.4334 -0.8650
 6677TIP3    H241523   5.994   4.532  14.026  0.7961  0.2913  0.1561
 6678TIP3   OH241524   2.678   4.195   4.013 -0.6481 -0.4010 -0.3908
 6678TIP3    H141525   2.773   4.203   4.019 -0.5889 -0.2643 -1.3540
 6678TIP3    H241526   2.647   4.213   4.102  0.0620  2.1172 -0.5706
 6679TIP3   OH241527   6.179   4.284  11.706 -0.9168  0.1338 -0.6377
 6679TIP3    H141528   6.122   4.343  11.757 -1.2084 -0.4361 -0.2969
 6679TIP3    H241529   6.210   4.220  11.770  0.5993  0.7858 -0.6851
 6680TIP3   OH241530   3.738   5.749   5.050  0.7205  0.2703 -0.0406
 6680TIP3    H141531   3.812   5.688   5.054  2.1963  1.8507 -1.4114
 6680TIP3    H241532   3.733   5.775   4.958 -0.2740  1.6789  0.3802
 6681TIP3   OH241533   5.090   5.345   1.562 -0.0418  0.5012 -0.3788
 6681TIP3    H141534   5.135   5.413   1.511  1.8358 -1.0369 -0.8899
 6681TIP3    H241535   5.054   5.286   1.496  0.8917 -0.5565  0.0364
 6682TIP3   OH241536   2.147   1.513  12.172  0.2842 -0.0122  0.1615
 6682TIP3    H141537   2.163   1.522  12.266  0.9704  1.0625 -0.0449
 6682TIP3    H241538   2.083   1.443  12.165 -0.2781  0.3509  1.4794
 6683TIP3   OH241539   0.575   3.814  15.434  0.2099 -0.4081 -0.7577
 6683TIP3    H141540   0.644   3.807  15.368 -0.1632 -1.6565 -1.0431
 6683TIP3    H241541   0.499   3.844  15.385  0.4861  0.7818 -0.4786
 6684TIP3   OH241542   3.094   5.131  13.508  0.2128 -0.1827 -0.5288
 6684TIP3    H141543   3.145   5.212  13.513 -0.4434  0.1960  0.3644
 6684TIP3    H241544   3.069   5.124  13.416  1.4799 -0.1458 -0.9082
 6685TIP3   OH241545   3.449   6.269  12.043  0.4363  0.2509 -0.0836
 6685TIP3    H141546   3.388   6.337  12.072  0.4509  0.7051 -1.0842
 6685TIP3    H241547   3.531   6.290  12.089 -0.1474 -0.4024  1.3172
 6686TIP3   OH241548   2.961   5.799   3.336  0.4905 -0.1526 -0.3767
 6686TIP3    H141549   3.011   5.877   3.359  1.9474 -1.2588  0.4235
 6686TIP3    H241550   2.991   5.776   3.248  1.6196 -0.9315  0.1813
 6687TIP3   OH241551   3.271   5.952  16.368  0.0832 -0.2826 -0.0257
 6687TIP3    H141552   3.318   5.951  16.452  0.4567 -1.0355 -0.2350
 6687TIP3    H241553   3.253   6.045  16.352  0.2805 -0.1029  0.7338
 6688TIP3   OH241554   2.712   1.212   0.271 -0.2090  0.1366 -0.1367
 6688TIP3    H141555   2.701   1.199   0.177  1.7013  1.6615 -0.6243
 6688TIP3    H241556   2.676   1.298   0.289 -0.8909 -0.2873  0.6241
 6689TIP3   OH241557   1.992   6.219   5.102 -0.4516 -0.1649  0.5814
 6689TIP3    H141558   2.022   6.135   5.138 -0.7714  0.0945  1.4812
 6689TIP3    H241559   2.073   6.265   5.078 -0.3081 -1.4317 -1.6425
 6690TIP3   OH241560   0.484   0.706   5.365  0.4409  0.2823 -0.8992
 6690TIP3    H141561   0.563   0.658   5.339 -1.7431 -4.7470  0.5432
 6690TIP3    H241562   0.492   0.717   5.459  0.4903  2.3098 -1.0818
 6691TIP3   OH241563   5.275   2.224  13.359  0.0424  0.2583  0.8111
 6691TIP3    H141564   5.189   2.203  13.396 -0.1724  1.4235  1.0301
 6691TIP3    H241565   5.261   2.307  13.314  0.4395 -0.8406 -1.4594
 6692TIP3   OH241566   6.248   3.903   0.065  0.1457 -1.2402 -0.0237
 6692TIP3    H141567   6.289   3.821   0.093  3.3460  0.4954  0.7960
 6692TIP3    H241568   6.178   3.917   0.129  2.3589 -1.2269  2.5400
 6693TIP3   OH241569   6.616   3.117  14.656 -0.0261  0.0833  0.2728
 6693TIP3    H141570   6.591   3.030  14.626 -0.5954  0.0436  0.8553
 6693TIP3    H241571   6.557   3.177  14.610  0.8121  0.2240 -0.6473
 6694TIP3   OH241572   1.692   6.784  16.868 -0.4388  0.0667 -0.6570
 6694TIP3    H141573   1.630   6.711  16.861 -1.5557  0.9890 -0.7586
 6694TIP3    H241574   1.704   6.813  16.777  0.0484 -0.0180 -0.6211
 6695TIP3   OH241575   2.382   2.109  16.943  0.5467 -0.1780  0.2742
 6695TIP3    H141576   2.462   2.075  16.985  0.0041  0.3669  1.8333
 6695TIP3    H241577   2.411   2.188  16.898  0.6192  1.1079  2.4227
 6696TIP3   OH241578   4.348   2.563  14.668  0.2964 -0.0807 -0.3292
 6696TIP3    H141579   4.428   2.539  14.619  0.5510  1.7698 -0.9009
 6696TIP3    H241580   4.364   2.653  14.696 -0.0545 -0.9149  2.8371
 6697TIP3   OH241581   1.479   2.183   4.434 -0.3322  0.3631  0.2914
 6697TIP3    H141582   1.478   2.266   4.386 -0.0669  0.8055  1.0286
 6697TIP3    H241583   1.567   2.179   4.473  0.5094 -1.3439 -1.5426
 6698TIP3   OH241584   4.342   5.538  15.807  0.3385  0.2338  0.2241
 6698TIP3    H141585   4.310   5.476  15.872 -0.5463  0.0461 -0.3738
 6698TIP3    H241586   4.404   5.486  15.754 -1.4028 -0.5715 -1.1224
 6699TIP3   OH241587   6.133   2.339  15.470 -0.1408  0.6234  0.4305
 6699TIP3    H141588   6.226   2.322  15.459 -0.0475  1.2741  0.1777
 6699TIP3    H241589   6.127   2.401  15.542 -0.4085  0.2443  0.7342
 6700TIP3   OH241590   3.782   5.477   5.297  0.3283  0.4193 -0.3507
 6700TIP3    H141591   3.780   5.388   5.261 -1.0912  0.2973 -0.0100
 6700TIP3    H241592   3.845   5.472   5.369  1.1478  0.0016 -1.0671
 6701TIP3   OH241593   5.248   1.762  12.226 -0.5150  0.2766  0.4173
 6701TIP3    H141594   5.292   1.782  12.309 -1.1929 -0.3008  0.9354
 6701TIP3    H241595   5.319   1.734  12.168 -0.2891 -1.8337  1.6047
 6702TIP3   OH241596   1.485   4.552  13.875 -0.0803  0.0603  1.0676
 6702TIP3    H141597   1.415   4.497  13.839 -0.6124  0.9415  0.7076
 6702TIP3    H241598   1.440   4.633  13.900  0.9578  1.0095 -0.0388
 6703TIP3   OH241599   3.402   3.336   3.651  0.6158 -0.2718 -0.6205
 6703TIP3    H141600   3.414   3.405   3.586  0.1317  0.2879 -0.1202
 6703TIP3    H241601   3.399   3.382   3.735  1.1418 -0.9803 -0.2031
 6704TIP3   OH241602   0.179   0.794   5.826  0.0985 -0.2359  0.1180
 6704TIP3    H141603   0.262   0.818   5.866  0.2045  0.8309 -0.6992
 6704TIP3    H241604   0.202   0.736   5.754 -0.0195 -1.3069  0.9007
 6705TIP3   OH241605   2.999   4.638   2.786 -0.5318  0.1160 -0.3306
 6705TIP3    H141606   3.073   4.591   2.747  0.6718  2.3208 -0.8531
 6705TIP3    H241607   2.994   4.605   2.876 -0.5291 -1.8403 -0.9958
 6706TIP3   OH241608   1.565   5.761  16.566 -0.5484  0.2656 -0.8285
 6706TIP3    H141609   1.579   5.854  16.582 -0.7339  0.1823 -0.1277
 6706TIP3    H241610   1.560   5.753  16.471 -3.1785  1.3986 -0.8782
 6707TIP3   OH241611   3.747   6.804   3.277  0.1469 -0.1341 -0.7809
 6707TIP3    H141612   3.811   6.854   3.329 -0.6139 -0.0846  0.1368
 6707TIP3    H241613   3.797   6.730   3.242  0.9259  0.4325 -0.8833
 6708TIP3   OH241614   2.180   3.563   2.891 -0.8047  0.0117 -0.1666
 6708TIP3    H141615   2.090   3.594   2.898 -1.2639 -0.9267 -1.4002
 6708TIP3    H241616   2.234   3.639   2.911 -1.8319  0.0814  2.7074
 6709TIP3   OH241617   6.785   4.900   4.235  0.4427 -0.2405  0.4785
 6709TIP3    H141618   6.833   4.976   4.266  0.4483 -0.4081  0.8915
 6709TIP3    H241619   6.736   4.931   4.159  1.8775 -0.2792 -0.5029
 6710TIP3   OH241620   1.394   1.317   4.275 -0.8355 -0.0860  0.6388
 6710TIP3    H141621   1.330   1.334   4.205 -0.0584  0.6749  0.0851
 6710TIP3    H241622   1.460   1.262   4.233 -1.8409 -2.1356  1.6218
 6711TIP3   OH241623   2.108   3.194   4.387  0.0127  0.3884 -0.3169
 6711TIP3    H141624   2.093   3.112   4.342 -1.4393 -0.3870  1.4507
 6711TIP3    H241625   2.159   3.247   4.325 -1.2411 -0.8448 -2.5048
 6712TIP3   OH241626   6.056   5.716   4.572 -0.1460 -0.5306 -0.4812
 6712TIP3    H141627   6.140   5.721   4.619  0.4717  0.0908 -1.6197
 6712TIP3    H241628   6.040   5.622   4.564  1.3228 -0.7184 -1.7264
 6713TIP3   OH241629   3.873   4.328   5.619 -0.7947 -0.6747 -0.1140
 6713TIP3    H141630   3.823   4.357   5.544 -1.6197  0.7398  0.9410
 6713TIP3    H241631   3.929   4.258   5.585 -0.2173  0.7563 -2.3147
 6714TIP3   OH241632   2.851   1.777   1.038 -0.7085  0.1343  0.0199
 6714TIP3    H141633   2.945   1.796   1.040 -0.4750 -0.7768  2.9096
 6714TIP3    H241634   2.845   1.690   0.997 -0.5182  0.9328 -1.7747
 6715TIP3   OH241635   0.424   1.503  16.521 -0.4478  0.0357  0.0513
 6715TIP3    H141636   0.490   1.567  16.547  1.2857 -1.7128  0.1507
 6715TIP3    H241637   0.433   1.497  16.426 -1.2469  0.5833 -0.0689
 6716TIP3   OH241638   2.420   3.368  10.585  0.3185  0.4137 -0.0840
 6716TIP3    H141639   2.342   3.322  10.616  0.6781 -0.7934 -0.9023
 6716TIP3    H241640   2.437   3.434  10.652 -1.8477  1.2242 -0.2683
 6717TIP3   OH241641   1.730   2.763  16.629  0.8624 -0.2067 -0.4205
 6717TIP3    H141642   1.696   2.702  16.694  1.3648 -1.3959 -1.2326
 6717TIP3    H241643   1.825   2.750  16.631  1.0330  0.9043 -0.2867
 6718TIP3   OH241644   0.453   2.206  12.438  0.2859  0.0866 -0.4695
 6718TIP3    H141645   0.437   2.114  12.416 -0.5770  0.2958 -0.7389
 6718TIP3    H241646   0.518   2.235  12.374  0.2176 -0.2023 -0.6718
 6719TIP3   OH241647   5.744   6.310  15.722  0.0342 -0.3184  0.0358
 6719TIP3    H141648   5.682   6.318  15.649 -1.6067 -0.0500  1.3860
 6719TIP3    H241649   5.770   6.400  15.741 -1.4984 -0.1151  1.3415
 6720TIP3   OH241650   2.100   4.719   2.781 -0.0053  0.0819 -0.5884
 6720TIP3    H141651   2.042   4.789   2.751 -0.4791 -0.4886 -1.0305
 6720TIP3    H241652   2.180   4.764   2.808 -0.3139  0.7948 -0.8381
 6721TIP3   OH241653   1.434   5.977   6.957  0.3545 -0.5156  0.3612
 6721TIP3    H141654   1.410   5.885   6.951 -0.4263 -0.3143  0.2982
 6721TIP3    H241655   1.396   6.017   6.878  2.0302 -0.4181 -0.4494
 6722TIP3   OH241656   4.781   1.405   5.843 -0.5452  0.2616 -0.5144
 6722TIP3    H141657   4.868   1.434   5.817 -0.2338 -1.2492 -1.2979
 6722TIP3    H241658   4.797   1.342   5.914 -0.9970 -0.0440 -0.6824
 6723TIP3   OH241659   6.256   2.822   0.798 -0.9701 -0.0016  0.1164
 6723TIP3    H141660   6.342   2.793   0.768 -0.8886  0.8328 -0.5038
 6723TIP3    H241661   6.194   2.782   0.737 -0.9333  0.2795 -0.1092
 6724TIP3   OH241662   0.205   5.725   0.185  0.4036 -0.0065  0.2061
 6724TIP3    H141663   0.205   5.807   0.235 -0.6311  0.3526 -0.3515
 6724TIP3    H241664   0.175   5.750   0.097  0.3275 -0.9357 -0.0463
 6725TIP3   OH241665   2.644   2.237  16.150 -0.7811 -0.4888 -0.1534
 6725TIP3    H141666   2.600   2.201  16.074  0.6904 -0.7578 -0.9156
 6725TIP3    H241667   2.647   2.331  16.135 -1.3616 -0.4351  0.0558
 6726TIP3   OH241668   0.230   0.264  13.267 -0.4578  0.4341 -0.1688
 6726TIP3    H141669   0.180   0.197  13.221  0.4180 -0.1660 -0.2569
 6726TIP3    H241670   0.281   0.217  13.332  0.1772  1.0116 -0.2363
 6727TIP3   OH241671   5.819   5.552  14.480  0.4881  0.0693  0.5020
 6727TIP3    H141672   5.757   5.568  14.551  0.4697 -1.7401  0.9426
 6727TIP3    H241673   5.853   5.464  14.497  2.1571  0.4749 -0.4971
 6728TIP3   OH241674   0.054   1.140  15.084 -0.2156 -0.0100 -0.1103
 6728TIP3    H141675   0.124   1.107  15.027 -0.6325  1.5254 -1.5864
 6728TIP3    H241676   0.030   1.224  15.046  0.8112  2.1123  3.4485
 6729TIP3   OH241677   1.125   1.204   2.655  0.4112 -0.9086  0.4308
 6729TIP3    H141678   1.212   1.243   2.653 -0.0260  0.1412  1.1239
 6729TIP3    H241679   1.066   1.276   2.679 -0.7459 -1.4434 -0.6925
 6730TIP3   OH241680   3.122   2.098   4.392  0.5675  0.2071 -0.2623
 6730TIP3    H141681   3.163   2.025   4.346 -2.4860 -2.8043  1.3001
 6730TIP3    H241682   3.028   2.081   4.383 -0.2414  3.0199  1.6643
 6731TIP3   OH241683   6.556   3.168  14.929 -0.0001  0.0991  0.1993
 6731TIP3    H141684   6.570   3.263  14.924 -2.1708  0.4139 -1.0410
 6731TIP3    H241685   6.599   3.133  14.851  1.1143 -0.0119  0.8443
 6732TIP3   OH241686   6.560   0.940  13.660  0.1461  0.1029 -0.1151
 6732TIP3    H141687   6.599   0.876  13.601 -0.8206 -1.2086  0.6132
 6732TIP3    H241688   6.602   1.023  13.637  2.3592 -0.9844 -0.2780
 6733TIP3   OH241689   0.898   2.340   4.958  0.2768  0.6530 -0.9860
 6733TIP3    H141690   0.965   2.389   4.910 -0.6110  3.4807  0.4306
 6733TIP3    H241691   0.815   2.380   4.930 -0.5400 -0.3064 -0.0239
 6734TIP3   OH241692   4.063   1.795  13.740  0.2611  0.5792  0.3680
 6734TIP3    H141693   4.143   1.839  13.767  1.9331 -0.6827 -2.1332
 6734TIP3    H241694   4.048   1.729  13.808  0.8213  1.3801  1.2985
 6735TIP3   OH241695   1.176   3.352   3.069  0.4525  0.2229  0.3495
 6735TIP3    H141696   1.238   3.400   3.124  1.1108 -0.6832  0.4347
 6735TIP3    H241697   1.222   3.271   3.047 -1.1433 -1.0153  1.3568
 6736TIP3   OH241698   3.507   2.543   4.575  0.3668 -0.0573  0.5712
 6736TIP3    H141699   3.564   2.613   4.607 -1.6838  2.2886 -0.5954
 6736TIP3    H241700   3.525   2.538   4.481 -1.0860  0.5015  0.2419
 6737TIP3   OH241701   4.100   5.572  16.221  0.1838 -0.0942 -0.1605
 6737TIP3    H141702   4.098   5.535  16.309  0.3004 -0.8107 -0.4510
 6737TIP3    H241703   4.089   5.666  16.234  1.3915 -0.0475  0.7062
 6738TIP3   OH241704   6.713   1.675   5.859  0.1218 -0.2486  0.3576
 6738TIP3    H141705   6.780   1.733   5.895 -0.5827 -0.0910  1.4742
 6738TIP3    H241706   6.662   1.731   5.801  0.9276 -0.3667 -0.4914
 6739TIP3   OH241707   3.060   6.023   6.131  0.5391 -0.4247 -0.3120
 6739TIP3    H141708   2.988   6.057   6.184  0.8620  2.7869 -1.6892
 6739TIP3    H241709   3.135   6.022   6.190  0.1191 -0.4665  0.2269
 6740TIP3   OH241710   3.473   3.862   3.100  0.0989  0.0466 -0.0505
 6740TIP3    H141711   3.409   3.792   3.084  0.5715  0.2674 -3.6315
 6740TIP3    H241712   3.549   3.816   3.135 -0.1717 -1.0308 -0.8092
 6741TIP3   OH241713   1.803   6.637   3.381 -0.2397  0.1386  0.1567
 6741TIP3    H141714   1.767   6.702   3.320 -1.7917  0.7762  1.6850
 6741TIP3    H241715   1.862   6.688   3.437 -0.3438 -0.0633  0.4481
 6742TIP3   OH241716   0.622   2.936   2.459 -0.0037  0.0929  0.1227
 6742TIP3    H141717   0.704   2.984   2.463  0.1944 -0.3232  1.1646
 6742TIP3    H241718   0.554   3.001   2.480  0.1182  0.2549  0.0187
 6743TIP3   OH241719   0.791   1.339   1.918 -0.5137  0.6641  1.0674
 6743TIP3    H141720   0.811   1.432   1.925  0.0260  0.6649 -0.2813
 6743TIP3    H241721   0.700   1.336   1.888 -0.2721  0.7887  0.2947
 6744TIP3   OH241722   0.085   3.362   2.111  0.1076  1.1741  0.6213
 6744TIP3    H141723   0.085   3.266   2.107 -1.3718  1.1531  0.7524
 6744TIP3    H241724   0.173   3.386   2.083 -0.5876 -0.0727 -3.1726
 6745TIP3   OH241725   0.990   2.011  13.713  0.1020 -0.1807  0.3881
 6745TIP3    H141726   0.977   1.928  13.759 -1.3385 -0.1187  0.1556
 6745TIP3    H241727   0.994   1.986  13.621  3.4676 -0.3580  0.4864
 6746TIP3   OH241728   1.641   6.295  13.359  0.2871 -0.0761  0.4216
 6746TIP3    H141729   1.592   6.289  13.441  3.7381  1.1271  2.7804
 6746TIP3    H241730   1.660   6.388  13.349  0.7628 -0.3225 -1.2670
 6747TIP3   OH241731   4.999   0.199   6.094 -0.3742  0.5987 -0.4696
 6747TIP3    H141732   4.989   0.289   6.125  3.0200  0.2973  2.1894
 6747TIP3    H241733   4.963   0.145   6.165  2.7650 -0.0546  0.8082
 6748TIP3   OH241734   2.865   1.813   2.411  0.4422  0.0045  0.4030
 6748TIP3    H141735   2.915   1.784   2.334  1.8519  1.9371  0.5194
 6748TIP3    H241736   2.929   1.814   2.482  0.5373  3.1680  0.4144
 6749TIP3   OH241737   1.474   1.364   2.340 -0.2212  0.0143  0.2409
 6749TIP3    H141738   1.412   1.422   2.295 -1.4092 -0.8948  0.6655
 6749TIP3    H241739   1.528   1.423   2.393  0.3425  0.9728 -1.3510
 6750TIP3   OH241740   0.258   1.194   4.242  0.3022 -0.3026  0.6322
 6750TIP3    H141741   0.260   1.113   4.293  0.4080  0.1474  1.3728
 6750TIP3    H241742   0.252   1.263   4.309  1.6697  0.3751  0.0895
 6751TIP3   OH241743   6.738   4.395   3.393 -0.2676 -0.0552 -0.7202
 6751TIP3    H141744   6.738   4.485   3.360 -1.3986 -0.0600 -0.7676
 6751TIP3    H241745   6.830   4.370   3.394  0.1712  1.4541  0.2412
 6752TIP3   OH241746   2.263   1.916   5.975 -1.6077  0.0830 -0.1159
 6752TIP3    H141747   2.226   1.868   6.049  0.3736 -0.9358  0.2747
 6752TIP3    H241748   2.294   1.998   6.013  0.0301 -0.7243  0.3894
 6753TIP3   OH241749   6.403   2.713  14.014  0.0695  0.1769 -0.0482
 6753TIP3    H141750   6.498   2.713  14.031  0.0192 -0.2023  0.2492
 6753TIP3    H241751   6.364   2.698  14.100 -0.2698  0.5551 -0.1344
 6754TIP3   OH241752   0.372   0.199   3.577  0.3029 -0.4472  0.0280
 6754TIP3    H141753   0.367   0.193   3.482 -1.8781  0.3178  0.0320
 6754TIP3    H241754   0.331   0.119   3.609  0.8051 -0.5876  0.3289
 6755TIP3   OH241755   4.754   1.263  11.402 -0.3991 -0.2063 -0.0926
 6755TIP3    H141756   4.667   1.284  11.434  0.3407  2.3386  0.5100
 6755TIP3    H241757   4.800   1.229  11.480 -0.6841 -1.1077 -0.3024
 6756TIP3   OH241758   1.738   3.946   3.011  0.1892  0.2781  0.1153
 6756TIP3    H141759   1.795   4.005   3.061 -1.6029  1.6757  0.6161
 6756TIP3    H241760   1.736   3.984   2.923 -1.5974  1.4963  0.6407
 6757TIP3   OH241761   5.436   0.428   3.855 -0.6417 -0.0112 -0.1242
 6757TIP3    H141762   5.485   0.363   3.806 -1.0301 -0.8167  0.5300
 6757TIP3    H241763   5.495   0.503   3.861  0.6964 -1.0994  1.0105
 6758TIP3   OH241764   0.359   3.479  13.895  1.1849 -0.6023  0.0373
 6758TIP3    H141765   0.430   3.432  13.938  2.0538  0.6382  0.0160
 6758TIP3    H241766   0.315   3.527  13.965  1.4487 -0.0238 -0.1889
 6759TIP3   OH241767   5.468   1.965  16.394  0.4663  0.0746 -0.1452
 6759TIP3    H141768   5.451   1.948  16.301 -0.8263  1.8940 -0.3065
 6759TIP3    H241769   5.526   1.894  16.421  1.2790 -0.2418 -2.4529
 6760TIP3   OH241770   4.154   6.776   2.906 -0.5497 -0.5758  0.3376
 6760TIP3    H141771   4.116   6.688   2.914 -1.2462 -0.2133  1.1009
 6760TIP3    H241772   4.104   6.817   2.836 -0.5635 -0.6127  0.3257
 6761TIP3   OH241773   1.442   2.893  16.265 -0.5463  0.0594  0.4076
 6761TIP3    H141774   1.350   2.920  16.275 -0.2607  0.5516  1.9500
 6761TIP3    H241775   1.462   2.845  16.345  0.9105  1.0699  0.6799
 6762TIP3   OH241776   3.953   3.773  11.569  0.5718  0.4015 -0.9834
 6762TIP3    H141777   3.898   3.757  11.492 -1.6826  0.3965  0.5666
 6762TIP3    H241778   3.986   3.687  11.593 -0.2244  0.1366 -0.8451
 6763TIP3   OH241779   0.879   4.281   4.759  0.5499 -0.4158 -0.7260
 6763TIP3    H141780   0.914   4.278   4.670  0.1009 -0.3896 -0.9048
 6763TIP3    H241781   0.805   4.342   4.754  0.2547 -0.7463 -0.4291
 6764TIP3   OH241782   6.776   6.181   3.654  0.6521  0.5306  0.2121
 6764TIP3    H141783   6.704   6.237   3.627  0.5736  1.1971  1.7047
 6764TIP3    H241784   6.836   6.181   3.580 -1.0918 -0.4905 -1.3086
 6765TIP3   OH241785   0.285   2.180   2.584 -0.4795  0.4406 -0.4814
 6765TIP3    H141786   0.193   2.178   2.558 -0.6888  0.3886  0.2259
 6765TIP3    H241787   0.330   2.219   2.510 -0.9093 -0.5705 -1.3118
 6766TIP3   OH241788   4.824   2.250  16.924 -0.0493 -0.7039 -0.1876
 6766TIP3    H141789   4.752   2.193  16.899 -0.7941  0.9073 -1.9317
 6766TIP3    H241790   4.900   2.192  16.928 -1.0815 -2.0982 -0.1809
 6767TIP3   OH241791   3.375   1.466   4.388  0.1081  0.6438  0.3947
 6767TIP3    H141792   3.317   1.459   4.464  0.7534 -1.0861  0.7614
 6767TIP3    H241793   3.401   1.559   4.386 -0.5794  0.8883  1.7783
 6768TIP3   OH241794   5.996   2.113   5.092  0.0037  0.4952  0.2556
 6768TIP3    H141795   6.072   2.057   5.106 -0.6562 -1.2824 -2.5539
 6768TIP3    H241796   5.922   2.061   5.121 -0.3234  1.6249  1.5483
 6769TIP3   OH241797   2.044   4.887   6.650  0.5248  0.1167 -0.0542
 6769TIP3    H141798   1.985   4.811   6.652 -0.1294  0.6339  1.1798
 6769TIP3    H241799   2.130   4.849   6.631  0.2137 -0.9414  0.5394
 6770TIP3   OH241800   3.451   0.342   1.527 -0.0200  0.5247  0.3007
 6770TIP3    H141801   3.503   0.420   1.547  0.9446 -0.1656  0.5318
 6770TIP3    H241802   3.501   0.296   1.460 -0.1337 -0.3504  0.8039
 6771TIP3   OH241803   4.737   4.196   2.573  0.3144  0.2055  0.3456
 6771TIP3    H141804   4.680   4.272   2.557  2.2001  1.4804 -0.7204
 6771TIP3    H241805   4.728   4.143   2.494  2.4316  1.7194 -1.0395
 6772TIP3   OH241806   1.580   3.664   0.389  0.7007 -0.4004 -0.4424
 6772TIP3    H141807   1.596   3.757   0.405  0.2980 -0.6015  1.3831
 6772TIP3    H241808   1.515   3.662   0.318  0.2681  0.7395 -0.0959
 6773TIP3   OH241809   1.142   4.581   4.991  0.0589 -0.1683  0.5403
 6773TIP3    H141810   1.160   4.531   4.911  1.5238 -0.7372  1.1978
 6773TIP3    H241811   1.225   4.621   5.014 -0.2081 -0.4218  2.0677
 6774TIP3   OH241812   4.314   3.511  16.640  0.8891  0.4625 -0.1409
 6774TIP3    H141813   4.374   3.469  16.701 -1.6440  0.3694  2.4966
 6774TIP3    H241814   4.278   3.440  16.588 -0.2175 -0.1261  1.3769
 6775TIP3   OH241815   1.718   3.347  10.788 -0.6914  0.2262 -0.3245
 6775TIP3    H141816   1.771   3.275  10.754 -1.8702 -0.3659 -0.9860
 6775TIP3    H241817   1.770   3.384  10.859 -0.1162 -1.3976  0.1515
 6776TIP3   OH241818   0.306   5.207  13.581 -0.0555 -0.2282 -0.0150
 6776TIP3    H141819   0.330   5.222  13.672 -0.0742  0.3828 -0.1058
 6776TIP3    H241820   0.291   5.113  13.575  0.2841 -0.3190  0.5290
 6777TIP3   OH241821   1.482   1.774  11.224  0.3860  0.1395  0.8003
 6777TIP3    H141822   1.464   1.708  11.157 -0.7553  0.5184  0.6965
 6777TIP3    H241823   1.422   1.846  11.202  3.1249  2.2058 -0.4394
 6778TIP3   OH241824   4.545   1.296  14.446  0.2000 -0.0534  0.1788
 6778TIP3    H141825   4.600   1.255  14.513 -1.6630 -1.6983  0.8171
 6778TIP3    H241826   4.561   1.244  14.367 -0.6834 -0.8178  0.4770
 6779TIP3   OH241827   3.899   6.452  16.743  0.1533  0.2690 -0.7834
 6779TIP3    H141828   3.849   6.511  16.799  1.2028 -0.3586  0.8971
 6779TIP3    H241829   3.897   6.368  16.789 -1.6081 -1.2030 -3.2806
 6780TIP3   OH241830   4.122   5.275   3.441 -0.2510  0.1523 -0.6794
 6780TIP3    H141831   4.197   5.236   3.486 -1.1704 -1.1810 -0.2112
 6780TIP3    H241832   4.073   5.320   3.510 -0.4086  0.1365 -0.7789
 6781TIP3   OH241833   5.032   3.874  13.040  0.3451 -0.4447  0.2602
 6781TIP3    H141834   5.058   3.812  12.972 -2.9300 -0.5259 -1.0563
 6781TIP3    H241835   4.999   3.819  13.111  2.2216 -0.2952  1.3104
 6782TIP3   OH241836   2.202   5.475   3.284  0.3396  0.0893 -0.3405
 6782TIP3    H141837   2.144   5.409   3.323  1.3838 -0.2898  0.6235
 6782TIP3    H241838   2.260   5.501   3.355 -0.9316  3.1615 -0.2419
 6783TIP3   OH241839   2.421   2.651  13.351  0.3793  0.9593  0.4593
 6783TIP3    H141840   2.506   2.682  13.320  0.5859  1.4908  1.5177
 6783TIP3    H241841   2.404   2.701  13.431  0.2213 -0.8637  1.6210
 6784TIP3   OH241842   4.220   0.278   1.381  0.2133  0.1337 -0.1956
 6784TIP3    H141843   4.276   0.346   1.419 -0.7272  0.0597  1.4151
 6784TIP3    H241844   4.168   0.324   1.316  0.5951  0.6577 -0.1399
 6785TIP3   OH241845   0.045   4.964   2.836  0.9171 -0.6321 -0.3751
 6785TIP3    H141846  -0.047   4.984   2.853  1.5240  0.8506  1.6762
 6785TIP3    H241847   0.067   4.896   2.901  1.8336  0.8112  0.8932
 6786TIP3   OH241848   6.085   4.281  15.977  0.2518  0.0574 -0.0977
 6786TIP3    H141849   6.165   4.284  15.925  0.2108  0.6108 -0.1353
 6786TIP3    H241850   6.018   4.320  15.920  0.4115  1.5801  0.7049
 6787TIP3   OH241851   5.263   0.063  15.622  0.2539  0.0859 -0.5867
 6787TIP3    H141852   5.284  -0.029  15.601  0.6200 -0.2564  1.1435
 6787TIP3    H241853   5.329   0.088  15.687  0.3253  1.6795 -1.2427
 6788TIP3   OH241854   6.646   0.321   3.799  0.3127  0.2253  0.6832
 6788TIP3    H141855   6.700   0.243   3.783 -1.0133 -0.5748 -0.0138
 6788TIP3    H241856   6.644   0.366   3.714 -0.3993  0.0611  0.6122
 6789TIP3   OH241857   4.367   5.039  15.987  0.6459 -0.4733 -0.1161
 6789TIP3    H141858   4.369   5.057  15.893 -0.4912 -0.9561 -0.2594
 6789TIP3    H241859   4.302   5.101  16.021  2.7386  1.3534  0.7776
 6790TIP3   OH241860   4.137   4.371  15.375  0.5351 -0.1586 -0.2230
 6790TIP3    H141861   4.174   4.283  15.382 -2.0466 -1.2570  0.7312
 6790TIP3    H241862   4.044   4.357  15.358  0.1399  2.4204 -0.6228
 6791TIP3   OH241863   2.655   3.948   2.389 -0.3206 -0.0878  0.2021
 6791TIP3    H141864   2.622   3.911   2.307 -0.1341 -0.4193  0.2740
 6791TIP3    H241865   2.712   3.880   2.425 -0.7814 -0.1395  0.8519
 6792TIP3   OH241866   4.859   2.780  15.108  0.3506  0.3850 -0.0851
 6792TIP3    H141867   4.834   2.833  15.184  0.8324  1.9004 -0.9482
 6792TIP3    H241868   4.826   2.693  15.129 -0.3098  0.9572  1.4695
 6793TIP3   OH241869   5.154   1.172  16.424  0.1144 -0.2964  0.8919
 6793TIP3    H141870   5.108   1.244  16.467 -1.8930 -0.3966 -0.8742
 6793TIP3    H241871   5.111   1.093  16.456 -0.5985 -0.4318 -0.3424
 6794TIP3   OH241872   0.340   3.533  17.245  0.1110  0.5315 -0.2345
 6794TIP3    H141873   0.290   3.463  17.287  0.1725 -0.6952 -2.0512
 6794TIP3    H241874   0.404   3.560  17.310  0.8306 -1.9368  0.1658
 6795TIP3   OH241875   2.848   3.504   5.218 -0.4753 -0.1877 -0.1720
 6795TIP3    H141876   2.805   3.519   5.134  0.3919  0.1488 -0.5669
 6795TIP3    H241877   2.938   3.481   5.196 -0.4273 -0.8350  0.6373
 6796TIP3   OH241878   1.152   1.598  16.820  0.6609 -0.3729  0.1775
 6796TIP3    H141879   1.246   1.605  16.836  0.9251 -1.3274 -0.8868
 6796TIP3    H241880   1.113   1.657  16.885  2.0442  1.0400 -0.2199
 6797TIP3   OH241881   1.418   5.903   5.779 -0.4856 -0.5792  0.4115
 6797TIP3    H141882   1.500   5.865   5.811  0.5109  1.9330  1.1077
 6797TIP3    H241883   1.395   5.849   5.703  0.2505 -3.0828  1.8312
 6798TIP3   OH241884   1.097   1.028  14.867  0.0821  0.3640  0.1764
 6798TIP3    H141885   1.083   1.060  14.956 -0.1617 -1.5801  0.8911
 6798TIP3    H241886   1.181   1.066  14.842 -1.5759  4.0910 -0.3423
 6799TIP3   OH241887   1.628   3.257  16.918 -0.0488 -0.3886  0.0013
 6799TIP3    H141888   1.644   3.163  16.928  0.1900 -0.3115  0.3564
 6799TIP3    H241889   1.542   3.262  16.876 -1.1275 -0.7511  1.9898
 6800TIP3   OH241890   2.083   5.037   3.709  0.4399 -0.4036  0.2831
 6800TIP3    H141891   2.004   5.045   3.656  1.3288 -0.8133 -1.1492
 6800TIP3    H241892   2.087   4.944   3.732 -1.5791  0.1968  3.7861
 6801TIP3   OH241893   5.380   3.667   2.584 -0.1133  0.0668 -0.4978
 6801TIP3    H141894   5.397   3.753   2.546 -0.7323 -0.3002 -1.6440
 6801TIP3    H241895   5.378   3.682   2.679  0.6345  1.1498 -0.6333
 6802TIP3   OH241896   2.380   4.043   1.395 -0.2164  0.1217 -0.6123
 6802TIP3    H141897   2.308   3.984   1.416  1.5457 -1.8359  0.3303
 6802TIP3    H241898   2.369   4.061   1.302 -1.8203 -0.2448 -0.5288
 6803TIP3   OH241899   1.670   2.587   0.294 -0.3118 -0.6469  0.6690
 6803TIP3    H141900   1.673   2.531   0.216  0.4910 -0.2685  0.4141
 6803TIP3    H241901   1.669   2.676   0.259 -1.4895 -0.4848  1.0744
 6804TIP3   OH241902   0.444   5.769  13.680 -0.2985 -0.1419  0.7218
 6804TIP3    H141903   0.493   5.745  13.758  0.2310 -1.1805  0.0844
 6804TIP3    H241904   0.366   5.814  13.713  0.1519 -0.1587  1.8178
 6805TIP3   OH241905   4.456   4.102  17.268  0.5135 -0.5083  0.7440
 6805TIP3    H141906   4.386   4.127  17.208  0.0919 -1.4537  0.8232
 6805TIP3    H241907   4.523   4.170  17.258  0.6335 -0.8559 -1.0815
 6806TIP3   OH241908   4.463   5.236  16.459  0.4907  0.2648 -0.3767
 6806TIP3    H141909   4.422   5.181  16.392 -1.2650  0.2148  0.6787
 6806TIP3    H241910   4.538   5.184  16.490  0.0772 -0.6268 -0.8342
 6807TIP3   OH241911   3.305   0.687  13.878 -0.6792 -0.5479  0.0336
 6807TIP3    H141912   3.246   0.759  13.856  0.4486 -0.0797 -1.6712
 6807TIP3    H241913   3.279   0.616  13.819  2.1660  0.6047 -2.9038
 6808TIP3   OH241914   3.359   1.624  10.746  0.5136 -0.0132 -0.1765
 6808TIP3    H141915   3.416   1.679  10.693 -0.7220  1.8443  0.3191
 6808TIP3    H241916   3.348   1.544  10.695  2.1952  0.2702 -1.0360
 6809TIP3   OH241917   6.449   1.585   3.260  0.2622  0.3353 -0.1492
 6809TIP3    H141918   6.461   1.623   3.173  0.7488  0.0426 -0.2124
 6809TIP3    H241919   6.386   1.514   3.246 -1.8105  1.9969  0.2181
 6810TIP3   OH241920   0.343   0.059  13.432  0.4340  0.3296  0.0217
 6810TIP3    H141921   0.328   0.036  13.524  0.8701  0.2383  0.0707
 6810TIP3    H241922   0.433   0.034  13.415  0.6967  1.3178 -0.1302
 6811TIP3   OH241923   5.919   4.449  11.568  0.2357  0.0678  0.6106
 6811TIP3    H141924   5.948   4.360  11.552  0.3938 -0.0907  1.6803
 6811TIP3    H241925   5.981   4.504  11.521  0.4126 -0.3732  0.3249
 6812TIP3   OH241926   2.683   2.189  11.726  0.0168  0.6038  0.5848
 6812TIP3    H141927   2.694   2.173  11.632  0.1508 -1.3325  0.8973
 6812TIP3    H241928   2.766   2.228  11.754  0.6849 -0.5302  0.2292
 6813TIP3   OH241929   5.611   3.875  17.246 -0.0945 -0.3382 -0.4398
 6813TIP3    H141930   5.599   3.941  17.178  1.2369 -0.8320 -1.1925
 6813TIP3    H241931   5.523   3.842  17.264 -0.5607  0.4067 -1.3058
 6814TIP3   OH241932   5.661   2.597   3.382 -0.3909  0.3184  0.5509
 6814TIP3    H141933   5.649   2.633   3.295 -0.3407 -0.1530  0.3464
 6814TIP3    H241934   5.711   2.664   3.429  0.9223 -0.0800 -0.2461
 6815TIP3   OH241935   4.583   3.727  14.679 -0.0816  0.1271 -0.1522
 6815TIP3    H141936   4.586   3.655  14.615 -0.0864 -0.8095  0.8788
 6815TIP3    H241937   4.600   3.805  14.627 -0.1688 -0.6020 -1.3204
 6816TIP3   OH241938   2.356   1.823   1.418 -0.3767  0.4364  0.4731
 6816TIP3    H141939   2.323   1.756   1.478 -0.5377  0.1701  0.0924
 6816TIP3    H241940   2.333   1.906   1.460 -2.1511  0.2787 -0.0813
 6817TIP3   OH241941   4.987   6.617   2.593 -0.6256  0.6345 -0.7409
 6817TIP3    H141942   5.081   6.634   2.585 -0.6532  1.3677  0.2904
 6817TIP3    H241943   4.972   6.540   2.538  0.3884  1.1164 -1.7361
 6818TIP3   OH241944   5.333   2.470   3.830  0.3351 -0.4801  0.2271
 6818TIP3    H141945   5.298   2.472   3.741 -0.8158 -1.4170  0.6289
 6818TIP3    H241946   5.333   2.377   3.854  0.5961 -0.2419  1.2173
 6819TIP3   OH241947   1.365   4.960   3.402 -0.4907  0.2374 -0.3504
 6819TIP3    H141948   1.387   4.934   3.491 -3.2656  1.6490  0.8753
 6819TIP3    H241949   1.341   4.878   3.358  0.3203 -0.4048  0.3813
 6820TIP3   OH241950   2.169   2.907  13.317  0.0867  0.7399  0.0858
 6820TIP3    H141951   2.141   2.816  13.328  1.5374  0.1868 -0.5233
 6820TIP3    H241952   2.117   2.940  13.244  0.4750 -0.0327 -0.5613
 6821TIP3   OH241953   5.369   2.474  16.301 -0.3785 -0.4561  0.1453
 6821TIP3    H141954   5.432   2.470  16.373  0.6679  3.2260 -0.3271
 6821TIP3    H241955   5.285   2.488  16.343 -0.5714 -2.7872  0.6882
 6822TIP3   OH241956   5.503   4.697  10.518  0.1284 -0.3056 -0.4397
 6822TIP3    H141957   5.564   4.651  10.575 -0.4835 -0.4120  0.1447
 6822TIP3    H241958   5.472   4.630  10.456  2.2359  0.2097 -2.2038
 6823TIP3   OH241959   1.872   0.469  16.398 -0.4206  0.0606 -0.0663
 6823TIP3    H141960   1.790   0.452  16.445  0.0528  1.1190  1.2150
 6823TIP3    H241961   1.849   0.536  16.334 -1.0330 -1.2686 -1.2948
 6824TIP3   OH241962   4.501   1.232   2.701 -0.4185 -0.6111  0.0328
 6824TIP3    H141963   4.419   1.183   2.704 -0.1827 -1.0798 -0.7983
 6824TIP3    H241964   4.474   1.324   2.698 -0.9331 -0.7678 -0.5164
 6825TIP3   OH241965   2.394   1.385   1.431 -0.7726  0.0169 -0.0941
 6825TIP3    H141966   2.313   1.430   1.456 -0.8405  0.3129 -0.8116
 6825TIP3    H241967   2.430   1.439   1.360  0.0083 -0.1598  0.1576
 6826TIP3   OH241968   5.923   4.280   2.854 -0.4094  0.1308 -0.3519
 6826TIP3    H141969   5.943   4.352   2.794 -0.6851  0.8231  0.3798
 6826TIP3    H241970   5.874   4.320   2.925  1.0363 -0.4313  1.0268
 6827TIP3   OH241971   4.144   5.505  14.390  0.3536 -0.5760  0.2870
 6827TIP3    H141972   4.210   5.441  14.362 -0.1201 -1.3365  0.8588
 6827TIP3    H241973   4.127   5.558  14.312  1.9884 -0.0424  0.2488
 6828TIP3   OH241974   1.495   1.374   3.433  0.4178 -0.8978 -0.2392
 6828TIP3    H141975   1.569   1.419   3.474 -0.0064  2.3339 -2.6392
 6828TIP3    H241976   1.428   1.373   3.501  1.2456  0.0252  0.6376
 6829TIP3   OH241977   2.683   5.816   3.980 -0.7404 -0.6654  0.5348
 6829TIP3    H141978   2.687   5.896   3.927 -0.2771  0.5052  2.2288
 6829TIP3    H241979   2.707   5.746   3.920 -0.6328  0.5322 -0.8859
 6830TIP3   OH241980   2.165   3.211  16.017 -0.0342  0.0134  0.0777
 6830TIP3    H141981   2.089   3.249  15.974 -0.5873 -3.7307 -2.7027
 6830TIP3    H241982   2.130   3.150  16.081  0.7512  0.5290  1.0448
 6831TIP3   OH241983   6.196   4.359   5.481 -0.2918  0.2510  0.0258
 6831TIP3    H141984   6.169   4.447   5.508  0.1561  0.4337 -0.1095
 6831TIP3    H241985   6.291   4.357   5.497 -0.3828 -0.3919  0.5250
 6832TIP3   OH241986   5.446   2.156  12.536 -0.0601  0.6310 -0.5152
 6832TIP3    H141987   5.356   2.188  12.544  0.7192  2.8511  0.0522
 6832TIP3    H241988   5.501   2.232  12.556  1.9614 -1.0274  0.7365
 6833TIP3   OH241989   4.050   1.762  12.719 -0.7161  0.0660 -0.0908
 6833TIP3    H141990   3.956   1.748  12.719 -0.5713 -0.9824 -0.0072
 6833TIP3    H241991   4.079   1.729  12.804  0.3204 -4.1139 -1.8208
 6834TIP3   OH241992   6.414   5.947   5.082 -0.1770 -0.3472 -0.0169
 6834TIP3    H141993   6.456   6.014   5.029  1.0311 -0.7773  0.3786
 6834TIP3    H241994   6.321   5.970   5.079 -0.0217  0.2024 -1.4935
 6835TIP3   OH241995   3.158   1.067   2.257  0.0597 -0.0118  0.0351
 6835TIP3    H141996   3.146   1.104   2.345  0.7223 -0.3975  0.2914
 6835TIP3    H241997   3.210   1.132   2.211  0.3700 -0.1655  0.1700
 6836TIP3   OH241998   6.689   1.882  16.826 -0.5067 -0.2671 -0.1527
 6836TIP3    H141999   6.784   1.883  16.834 -0.3166  0.2923 -2.0212
 6836TIP3    H242000   6.665   1.790  16.831  0.2891 -0.5353 -1.1478
 6837TIP3   OH242001   0.468   1.887   1.076 -0.1517  0.4243 -0.0343
 6837TIP3    H142002   0.541   1.888   1.138 -0.6509 -0.8064  0.5992
 6837TIP3    H242003   0.395   1.925   1.124 -1.0873 -2.3561  0.9075
 6838TIP3   OH242004   5.701   2.400  13.343 -0.3518 -0.1026 -0.0146
 6838TIP3    H142005   5.667   2.384  13.430 -1.1479 -0.1797 -0.3314
 6838TIP3    H242006   5.750   2.481  13.351 -0.5660 -0.0179  0.4660
 6839TIP3   OH242007   5.435   2.122   4.542 -0.3652  0.4176  0.0496
 6839TIP3    H142008   5.498   2.191   4.521 -2.8223  3.3341  1.4215
 6839TIP3    H242009   5.428   2.123   4.637 -0.9428 -1.3404  0.0755
 6840TIP3   OH242010   0.556   3.268   2.188 -0.2599  0.2631 -0.0474
 6840TIP3    H142011   0.573   3.174   2.185  1.1515  0.5201 -1.0274
 6840TIP3    H242012   0.621   3.302   2.249  0.2239  0.7713 -0.8293
 6841TIP3   OH242013   3.621   5.103  15.970  0.2857 -0.4068 -0.5317
 6841TIP3    H142014   3.680   5.053  16.027 -1.1573 -0.9610  0.5136
 6841TIP3    H242015   3.580   5.167  16.028 -0.0150  0.1056 -1.2921
 6842TIP3   OH242016   3.782   5.445   3.722 -0.0544 -0.5794  0.2538
 6842TIP3    H142017   3.746   5.370   3.676 -1.9277 -0.6002  1.6490
 6842TIP3    H242018   3.839   5.487   3.658 -1.9356 -1.0205 -1.8391
 6843TIP3   OH242019   1.132   0.357   5.417 -0.3688 -0.2456 -0.6399
 6843TIP3    H142020   1.226   0.358   5.399 -0.2661 -1.5209 -0.2474
 6843TIP3    H242021   1.124   0.368   5.511 -0.6505  0.4128 -0.7315
 6844TIP3   OH242022   0.078   3.159  11.497  0.0955 -0.1141  0.6655
 6844TIP3    H142023   0.116   3.074  11.474  0.5616  0.7525 -2.2271
 6844TIP3    H242024   0.021   3.180  11.423  0.1882  2.1884  1.1780
 6845TIP3   OH242025   1.283   2.038  15.312  0.3014 -0.6707 -0.0172
 6845TIP3    H142026   1.203   2.072  15.352  1.1114  0.9980  0.2297
 6845TIP3    H242027   1.340   2.114  15.303  1.9315 -1.8546 -0.0493
 6846TIP3   OH242028   2.177   3.811   1.694  0.0110  0.9842  0.2149
 6846TIP3    H142029   2.261   3.789   1.735  0.5345  0.5645 -1.0290
 6846TIP3    H242030   2.199   3.875   1.626 -0.5071  0.1648 -0.7586
 6847TIP3   OH242031   0.976   5.148   3.992 -0.3612 -0.0727  0.1395
 6847TIP3    H142032   0.882   5.145   4.008 -0.5894  1.0198 -0.8244
 6847TIP3    H242033   1.000   5.239   4.006  0.8548 -0.5953  1.7622
 6848TIP3   OH242034   3.274   6.086  14.426  0.8342  0.0021  0.4551
 6848TIP3    H142035   3.361   6.123  14.440  0.3235  2.8034 -2.6583
 6848TIP3    H242036   3.290   5.993  14.412  3.4148  0.4812 -0.3826
 6849TIP3   OH242037   0.671   3.428   3.945  0.0723  0.0054 -0.0378
 6849TIP3    H142038   0.699   3.462   4.030  0.4662  1.2499 -0.6377
 6849TIP3    H242039   0.589   3.474   3.927  0.0173 -0.2153 -0.3525
 6850TIP3   OH242040   3.344   0.718  15.435  0.7266 -0.1963  0.7914
 6850TIP3    H142041   3.338   0.762  15.520 -0.8693 -0.4811  0.8603
 6850TIP3    H242042   3.331   0.625  15.456 -1.6147 -0.1033  0.1027
 6851TIP3   OH242043   0.625   0.765  14.640 -0.0543 -0.2439 -0.4609
 6851TIP3    H142044   0.602   0.712  14.717  0.8429 -1.0147 -0.7044
 6851TIP3    H242045   0.642   0.700  14.571 -0.1805  0.4158 -1.1249
 6852TIP3   OH242046   6.511   6.812   5.592  0.1122 -0.3178  0.0510
 6852TIP3    H142047   6.475   6.847   5.510 -0.1384 -0.0454  0.2759
 6852TIP3    H242048   6.604   6.833   5.588 -0.1743  1.1609  0.5737
 6853TIP3   OH242049   1.211   0.567  11.286 -0.0649 -0.2415 -0.2328
 6853TIP3    H142050   1.180   0.617  11.361  0.6169  1.4024 -0.9879
 6853TIP3    H242051   1.306   0.582  11.285 -0.0455 -0.3675 -1.3037
 6854TIP3   OH242052   5.350   2.599   3.518 -0.8928 -0.6912  0.1407
 6854TIP3    H142053   5.361   2.609   3.424 -0.2063 -1.4983  0.1286
 6854TIP3    H242054   5.382   2.681   3.555  0.4467 -1.0301 -0.2247
 6855TIP3   OH242055   2.773   5.611   3.004  1.0226 -0.3120 -0.0986
 6855TIP3    H142056   2.759   5.575   2.917 -0.9332 -0.8907  0.4029
 6855TIP3    H242057   2.715   5.561   3.061 -2.7597  4.0802  0.4980
 6856TIP3   OH242058   4.761   4.342   3.579  0.0077  0.0548 -0.4948
 6856TIP3    H142059   4.842   4.381   3.612  0.6418 -1.8514  0.3743
 6856TIP3    H242060   4.702   4.343   3.654 -0.2782  0.1130 -0.7175
 6857TIP3   OH242061   5.951   0.649   6.114  0.6583  0.0149 -0.3172
 6857TIP3    H142062   6.011   0.574   6.119  0.1768 -0.3761 -0.4003
 6857TIP3    H242063   5.978   0.704   6.188  1.7131  0.2918 -0.8827
 6858TIP3   OH242064   0.587   1.861   6.008  0.2530 -0.1859  0.1080
 6858TIP3    H142065   0.628   1.867   6.095  0.6661  1.4767 -0.1652
 6858TIP3    H242066   0.609   1.773   5.977  1.0997 -0.3813  1.1951
 6859TIP3   OH242067   2.775   0.678  11.776 -0.3052 -0.0291 -0.2634
 6859TIP3    H142068   2.696   0.625  11.767 -0.0984 -0.5352  0.6584
 6859TIP3    H242069   2.782   0.726  11.694 -0.2812 -1.7430 -1.3208
 6860TIP3   OH242070   4.369   2.736   0.313  0.5690 -0.3829  0.3524
 6860TIP3    H142071   4.456   2.776   0.322  0.0151  1.3567 -1.2893
 6860TIP3    H242072   4.386   2.642   0.312  2.6781 -0.0715 -1.4892
 6861TIP3   OH242073   3.452   4.777  14.459 -0.4212 -0.5305  0.4967
 6861TIP3    H142074   3.489   4.865  14.464 -2.1150  0.5402 -2.6332
 6861TIP3    H242075   3.442   4.760  14.365 -0.3738 -4.0224  0.9590
 6862TIP3   OH242076   2.750   6.034  12.961  0.0011  0.1103  0.1521
 6862TIP3    H142077   2.772   6.111  12.909  0.6547  0.1208  0.4336
 6862TIP3    H242078   2.660   6.050  12.990  0.4283  1.2172  0.9694
 6863TIP3   OH242079   2.875   2.044   1.542 -0.7902  0.4352 -0.8420
 6863TIP3    H142080   2.955   2.078   1.583 -0.4506 -0.0940 -1.0500
 6863TIP3    H242081   2.904   2.011   1.457 -0.8561 -1.4534 -0.1770
 6864TIP3   OH242082   1.761   2.933  15.108 -0.0043  0.1957  0.2269
 6864TIP3    H142083   1.783   2.860  15.166  0.4311  1.5638  1.8862
 6864TIP3    H242084   1.669   2.953  15.128 -1.3021 -2.0364 -2.7645
 6865TIP3   OH242085   4.187   1.496   5.407 -0.1400  0.0257 -0.2824
 6865TIP3    H142086   4.115   1.467   5.463 -0.2060 -2.3155 -1.4802
 6865TIP3    H242087   4.144   1.538   5.332 -0.1775  0.2767 -0.1213
 6866TIP3   OH242088   2.176   1.276  13.711  0.2122 -0.0708 -0.7233
 6866TIP3    H142089   2.260   1.252  13.672 -0.0862 -0.2626 -1.2528
 6866TIP3    H242090   2.145   1.195  13.752 -0.0499 -0.1908 -1.1496
 6867TIP3   OH242091   6.360   4.817   5.926  0.1252  0.5710  0.0942
 6867TIP3    H142092   6.334   4.725   5.935  0.7554  0.3647 -0.1001
 6867TIP3    H242093   6.353   4.852   6.015 -1.8680  0.8412 -0.1263
 6868TIP3   OH242094   2.059   6.135   0.843 -0.3167 -0.4571  0.1471
 6868TIP3    H142095   1.983   6.151   0.787  1.1412  1.5811 -1.4666
 6868TIP3    H242096   2.107   6.065   0.798 -0.8127 -1.1953  0.7416
 6869TIP3   OH242097   2.203   1.442   5.989  0.4330 -0.2143 -0.0865
 6869TIP3    H142098   2.124   1.443   5.935  1.4867 -0.5107 -1.7040
 6869TIP3    H242099   2.172   1.415   6.075 -1.0379 -1.7682 -1.0315
 6870TIP3   OH242100   5.145   2.115  12.285 -0.2033  0.2139 -0.1737
 6870TIP3    H142101   5.125   2.129  12.192 -1.2622  0.1235  0.0310
 6870TIP3    H242102   5.085   2.173  12.331 -0.0484 -0.1318  0.4710
 6871TIP3   OH242103   1.140   3.356   4.207 -0.3296 -0.3841 -0.5687
 6871TIP3    H142104   1.182   3.271   4.222 -2.1553 -1.1579  0.3909
 6871TIP3    H242105   1.184   3.415   4.269 -1.8452 -1.6123  1.8297
 6872TIP3   OH242106   5.813   1.639  15.674  0.1341 -0.6954 -0.0457
 6872TIP3    H142107   5.891   1.680  15.636  0.6492 -2.3987 -0.9048
 6872TIP3    H242108   5.792   1.567  15.615 -0.1661 -2.2817  1.8728
 6873TIP3   OH242109   0.938   3.395   0.395  0.1621 -0.2064 -0.0937
 6873TIP3    H142110   0.974   3.483   0.385 -2.2371  1.0309  1.3417
 6873TIP3    H242111   1.013   3.340   0.418  1.4697  1.7740  0.5424
 6874TIP3   OH242112   4.371   1.029  11.982 -0.4100  0.1122  0.4168
 6874TIP3    H142113   4.435   1.028  12.053 -0.7387 -3.2331  0.8298
 6874TIP3    H242114   4.287   1.017  12.025 -0.9833  1.1482 -0.3626
 6875TIP3   OH242115   1.293   0.334  16.788 -0.4216 -0.1336  0.1733
 6875TIP3    H142116   1.211   0.331  16.837 -0.6829 -0.8351 -0.2961
 6875TIP3    H242117   1.273   0.384  16.709 -1.3282 -2.9486 -1.5472
 6876TIP3   OH242118   6.025   3.439  17.300 -0.3273  0.6953  0.0870
 6876TIP3    H142119   6.043   3.494  17.224 -1.1706  1.0372  0.1245
 6876TIP3    H242120   6.111   3.421  17.337  0.2965 -0.9608 -1.9358
 6877TIP3   OH242121   2.431   4.375   3.654 -0.2745  0.5004  0.1633
 6877TIP3    H142122   2.389   4.289   3.645 -1.3545  1.0565 -0.3135
 6877TIP3    H242123   2.518   4.356   3.688 -0.4638 -0.7903 -0.0351
 6878TIP3   OH242124   5.734   3.943  16.250  0.0169 -0.4049  0.1867
 6878TIP3    H142125   5.753   4.033  16.276  0.7423 -0.7336  0.8392
 6878TIP3    H242126   5.675   3.951  16.176 -0.9730  0.5985  1.0534
 6879TIP3   OH242127   1.431   0.945  11.492 -0.9810 -0.3444 -0.1728
 6879TIP3    H142128   1.355   0.893  11.467 -1.1512 -0.4322  0.5259
 6879TIP3    H242129   1.465   0.979  11.409 -1.4250 -0.7939 -0.5416
 6880TIP3   OH242130   6.647   0.549  13.405  0.0011  0.6960  0.5789
 6880TIP3    H142131   6.726   0.498  13.425 -0.4297  0.1405  0.9122
 6880TIP3    H242132   6.606   0.564  13.490 -0.6110  0.3683  0.3508
 6881TIP3   OH242133   0.829   3.695   4.465 -0.3461 -0.4785 -0.1103
 6881TIP3    H142134   0.835   3.747   4.385 -0.5606 -1.0677 -0.5145
 6881TIP3    H242135   0.802   3.758   4.532  0.4618  0.1465 -0.3586
 6882TIP3   OH242136   4.611   5.662  10.767 -0.0856 -0.2315  0.0100
 6882TIP3    H142137   4.664   5.742  10.762 -0.1796 -0.1631  0.1261
 6882TIP3    H242138   4.669   5.593  10.733 -0.1455 -0.0448 -0.4878
 6883TIP3   OH242139   4.724   4.310  14.138 -0.1980 -0.0379 -0.8431
 6883TIP3    H142140   4.685   4.289  14.223  0.5084 -1.6150 -0.8595
 6883TIP3    H242141   4.732   4.405  14.138  4.2799 -0.0115  3.0347
 6884TIP3   OH242142   0.237   5.532   1.849  0.2463 -0.3644  0.3032
 6884TIP3    H142143   0.239   5.539   1.753  0.6100 -0.5029  0.2983
 6884TIP3    H242144   0.169   5.594   1.876 -0.3061 -0.7856 -0.0867
 6885TIP3   OH242145   2.991   1.489  16.019 -0.0695  0.2570  0.9639
 6885TIP3    H142146   3.079   1.488  15.982  0.9515 -0.3923  3.2280
 6885TIP3    H242147   3.003   1.524  16.108 -1.4789 -2.9850  2.5853
 6886TIP3   OH242148   0.988   3.729  16.880  0.4208 -0.0218 -0.0295
 6886TIP3    H142149   0.926   3.695  16.945  0.5892 -1.1371 -0.4385
 6886TIP3    H242150   1.046   3.656  16.861  0.9045  0.5504 -0.8061
 6887TIP3   OH242151   2.489   2.868   5.287  0.6356 -0.0641  0.0580
 6887TIP3    H142152   2.582   2.843   5.287  0.7173  0.1593  1.3610
 6887TIP3    H242153   2.489   2.960   5.260  0.8685  0.1154  0.6405
 6888TIP3   OH242154   3.903   5.401  14.438  0.2687 -0.2942  0.1154
 6888TIP3    H142155   3.914   5.313  14.474 -1.3629  0.2389  2.1016
 6888TIP3    H242156   3.993   5.433  14.426  0.8862 -1.8483  0.2973
 6889TIP3   OH242157   6.254   6.389  15.165  0.1375 -0.2014 -0.3418
 6889TIP3    H142158   6.176   6.430  15.126  0.3339 -0.0293 -0.5550
 6889TIP3    H242159   6.219   6.335  15.236 -0.2572 -0.7044 -0.8958
 6890TIP3   OH242160   6.646   4.018   3.632  0.5819 -0.2024  0.4343
 6890TIP3    H142161   6.597   4.098   3.610 -1.2724 -0.8499  1.9227
 6890TIP3    H242162   6.579   3.950   3.639  2.0576 -1.7924 -0.1837
 6891TIP3   OH242163   5.812   6.688  10.988 -0.1323  0.4213 -0.0866
 6891TIP3    H142164   5.902   6.720  10.985 -0.3694  1.2715  1.1755
 6891TIP3    H242165   5.778   6.704  10.900  0.0314  2.8711  0.2308
 6892TIP3   OH242166   1.158   2.566  15.694 -0.3801 -0.0043 -0.2172
 6892TIP3    H142167   1.178   2.594  15.605 -1.5101 -0.6938 -0.7075
 6892TIP3    H242168   1.072   2.526  15.688 -0.6725  0.3290  1.2772
 6893TIP3   OH242169   2.342   1.228   0.844  0.5477  0.0671  0.4205
 6893TIP3    H142170   2.410   1.187   0.897  1.0751  0.3080 -0.0652
 6893TIP3    H242171   2.358   1.196   0.755  1.0430  1.4058  0.0096
 6894TIP3   OH242172   0.819   5.140  15.661 -0.0995  0.6878 -0.1922
 6894TIP3    H142173   0.835   5.209  15.597 -2.4142  0.2887 -1.2959
 6894TIP3    H242174   0.875   5.067  15.633  2.0074  1.8909  0.7159
 6895TIP3   OH242175   0.456   3.716  13.770  0.0414 -0.2632 -0.1912
 6895TIP3    H142176   0.434   3.642  13.827  1.4754 -0.0765  0.6295
 6895TIP3    H242177   0.397   3.786  13.798 -0.4368 -0.6904 -0.1026
 6896TIP3   OH242178   6.490   4.389   0.396  0.0291 -0.0595  0.1540
 6896TIP3    H142179   6.445   4.473   0.392 -0.4056 -0.2111  1.3861
 6896TIP3    H242180   6.448   4.342   0.468  2.1173 -0.2280  1.3653
 6897TIP3   OH242181   5.105   2.828  14.720  0.4203 -0.1469 -0.1924
 6897TIP3    H142182   5.010   2.830  14.706  0.2231  1.3689  1.1299
 6897TIP3    H242183   5.139   2.780  14.644 -1.3093  0.0497 -1.1427
 6898TIP3   OH242184   3.209   1.051   5.603  0.3936  0.5153 -0.2417
 6898TIP3    H142185   3.272   1.113   5.566  1.3129 -0.5204 -0.4619
 6898TIP3    H242186   3.212   0.976   5.544 -0.4110  0.0906  0.2439
 6899TIP3   OH242187   0.090   1.351  15.985  0.0845 -0.3682  0.0814
 6899TIP3    H142188   0.173   1.377  15.945 -0.4107  0.2913 -0.5541
 6899TIP3    H242189   0.034   1.429  15.976 -0.6878 -0.8925  0.2563
 6900TIP3   OH242190   4.744   5.729  15.076  0.7565  0.2712  0.4929
 6900TIP3    H142191   4.724   5.636  15.088 -0.3658  0.3228 -0.8091
 6900TIP3    H242192   4.825   5.742  15.126  0.7125 -1.3029  1.0359
 6901TIP3   OH242193   4.051   5.607   1.507  0.1629 -0.0922  0.2675
 6901TIP3    H142194   4.096   5.525   1.526 -0.4392 -0.6816 -0.7847
 6901TIP3    H242195   4.075   5.628   1.417 -0.3594  0.4492  0.2459
 6902TIP3   OH242196   4.814   5.175   4.423 -0.3611 -0.1849  0.0701
 6902TIP3    H142197   4.833   5.123   4.345  0.1099  1.0548 -0.6707
 6902TIP3    H242198   4.900   5.195   4.460 -0.5177  0.2661  0.2007
 6903TIP3   OH242199   5.103   3.735   2.294  0.2766  0.4792  0.1324
 6903TIP3    H142200   5.023   3.689   2.269  0.5430  0.6909 -1.1533
 6903TIP3    H242201   5.173   3.688   2.250  0.7163  1.1524  0.0969
 6904TIP3   OH242202   5.084   3.175   2.167 -0.1253  0.0191 -0.2826
 6904TIP3    H142203   4.991   3.177   2.186 -0.3062  1.1674 -1.2050
 6904TIP3    H242204   5.115   3.094   2.208 -1.2794  0.2445  1.0866
 6905TIP3   OH242205   3.752   2.474   0.546 -0.1415  0.9621 -0.3398
 6905TIP3    H142206   3.680   2.424   0.585 -1.1226  1.7386 -1.1084
 6905TIP3    H242207   3.831   2.429   0.576 -0.9339 -2.5739 -2.9591
 6906TIP3   OH242208   2.446   6.085  14.964  0.4586  0.4317  0.1515
 6906TIP3    H142209   2.425   6.133  15.044  0.7415  0.9022 -0.0557
 6906TIP3    H242210   2.383   6.012  14.963  0.2020  0.6431  0.5998
 6907TIP3   OH242211   3.597   3.484  16.905 -0.2240 -1.1122  0.1059
 6907TIP3    H142212   3.543   3.493  16.984  1.7065 -0.6797  1.4477
 6907TIP3    H242213   3.549   3.532  16.838 -0.8324  0.4936  1.6150
 6908TIP3   OH242214   5.466   5.885  16.302 -0.5461  0.4045  0.4664
 6908TIP3    H142215   5.379   5.913  16.274 -0.2174  0.2565 -0.7668
 6908TIP3    H242216   5.451   5.804  16.351 -0.9702 -0.8187 -1.5586
 6909TIP3   OH242217   4.156   4.880   4.446 -0.0499  0.1292 -0.6316
 6909TIP3    H142218   4.230   4.940   4.438 -0.5031  1.0464  1.3689
 6909TIP3    H242219   4.105   4.892   4.366  1.3752  0.2679 -1.5531
 6910TIP3   OH242220   1.466   1.071  11.255 -0.0237 -0.2993  0.0050
 6910TIP3    H142221   1.423   1.156  11.265  1.3626  0.6713 -1.6363
 6910TIP3    H242222   1.520   1.081  11.176  0.0772 -2.7640 -0.3089
 6911TIP3   OH242223   5.783   6.197   1.837  0.2153  0.6201  0.0901
 6911TIP3    H142224   5.714   6.134   1.816  0.9739 -0.0419 -0.4769
 6911TIP3    H242225   5.739   6.262   1.892 -0.9062  0.3193 -0.4055
 6912TIP3   OH242226   0.937   0.136   5.082 -0.1035 -0.1272 -0.3083
 6912TIP3    H142227   0.983   0.115   5.164 -0.0191  0.0023 -0.3213
 6912TIP3    H242228   0.976   0.219   5.054 -1.8116  1.1290  0.7910
 6913TIP3   OH242229   5.378   0.335   3.302  0.2134 -0.5108 -0.0038
 6913TIP3    H142230   5.387   0.276   3.377 -1.0680 -0.8757 -0.1241
 6913TIP3    H242231   5.303   0.389   3.323  0.7896  0.4372 -0.3415
 6914TIP3   OH242232   0.893   5.925  13.413  0.8028  0.5798  0.6466
 6914TIP3    H142233   0.825   5.907  13.479  1.2511 -0.8898  0.7574
 6914TIP3    H242234   0.973   5.888  13.451  1.4139  1.1950 -0.0155
 6915TIP3   OH242235   1.156   4.743   5.284 -0.4054  0.2955  0.1757
 6915TIP3    H142236   1.083   4.804   5.299 -2.5966 -1.9867 -0.4039
 6915TIP3    H242237   1.171   4.746   5.190 -1.6988 -1.1960 -0.1208
 6916TIP3   OH242238   2.021   6.290  12.652  0.3072 -0.0561 -0.3518
 6916TIP3    H142239   2.104   6.258  12.687  0.7245  0.5105 -0.8001
 6916TIP3    H242240   2.020   6.260  12.561  0.4244  0.6593 -0.5984
 6917TIP3   OH242241   1.424   5.121  11.254  0.0986  0.6640 -0.4127
 6917TIP3    H142242   1.484   5.090  11.186  0.7546  1.1340 -0.0570
 6917TIP3    H242243   1.396   5.042  11.299  1.8847  0.5606  0.5995
 6918TIP3   OH242244   3.947   4.046  11.469  0.0313 -0.0813  0.3047
 6918TIP3    H142245   3.956   3.951  11.479 -1.6964 -0.1971  0.9943
 6918TIP3    H242246   3.972   4.081  11.554  2.7582  0.3044 -0.5532
 6919TIP3   OH242247   3.718   0.571  16.065  0.0718  0.4442  0.2969
 6919TIP3    H142248   3.730   0.665  16.047  0.2737  0.7982  2.0507
 6919TIP3    H242249   3.639   0.548  16.018 -0.8508  1.9045  1.0205
 6920TIP3   OH242250   4.141   0.192  11.439  0.0445  0.1564 -0.6132
 6920TIP3    H142251   4.107   0.281  11.449 -1.6251 -0.3996 -1.0232
 6920TIP3    H242252   4.081   0.149  11.379  1.2090 -1.0715 -0.9637
 6921TIP3   OH242253   0.116   2.213  16.707 -0.5126 -0.7609 -0.0876
 6921TIP3    H142254   0.060   2.156  16.654 -1.0934 -1.5802  1.3473
 6921TIP3    H242255   0.063   2.235  16.783  0.7789 -0.7951  0.8643
 6922TIP3   OH242256   1.208   2.149  11.513  0.4511 -0.3229 -0.1965
 6922TIP3    H142257   1.244   2.085  11.575  1.2537 -2.2762 -2.5384
 6922TIP3    H242258   1.277   2.214  11.503  1.5103 -1.5264 -1.1096
 6923TIP3   OH242259   2.321   0.657   4.503 -0.5151  0.7822  0.3303
 6923TIP3    H142260   2.346   0.652   4.411  0.3699  0.6301  0.5737
 6923TIP3    H242261   2.251   0.592   4.512 -1.7655  1.9404 -0.5807
 6924TIP3   OH242262   3.263   6.568  12.754 -0.6109 -0.5878  0.0561
 6924TIP3    H142263   3.307   6.497  12.708  0.9997  0.0304  0.5673
 6924TIP3    H242264   3.179   6.531  12.780 -0.8181 -1.5165 -1.7716
 6925TIP3   OH242265   3.183   2.959  14.278  0.0733 -0.3121 -0.9114
 6925TIP3    H142266   3.103   2.997  14.242 -0.1299 -0.2888 -0.4483
 6925TIP3    H242267   3.176   2.975  14.372  0.4676 -0.6051 -0.8320
 6926TIP3   OH242268   0.361   1.711   6.103 -0.5651 -0.2757  0.0196
 6926TIP3    H142269   0.453   1.711   6.075 -0.4440  2.2598  0.1674
 6926TIP3    H242270   0.361   1.667   6.187  0.7105  0.4463  0.4243
 6927TIP3   OH242271   2.736   1.795  15.492  0.1110 -0.2068  0.2189
 6927TIP3    H142272   2.759   1.706  15.466 -2.4153 -1.0061  0.4658
 6927TIP3    H242273   2.750   1.848  15.414  0.4756 -1.0471 -0.2899
 6928TIP3   OH242274   4.146   1.562   3.799 -0.4866  0.0378  0.4319
 6928TIP3    H142275   4.118   1.583   3.888 -1.3024  1.6620 -0.1694
 6928TIP3    H242276   4.234   1.599   3.791 -0.9245  1.0340  0.1683
 6929TIP3   OH242277   0.865   5.173   6.759  0.3056 -0.1473 -0.0099
 6929TIP3    H142278   0.873   5.096   6.817 -1.1188 -0.8219 -0.6605
 6929TIP3    H242279   0.916   5.149   6.682 -0.8440 -0.8421 -0.5814
 6930TIP3   OH242280   5.818   4.819  16.156  0.2122 -0.6785  0.3064
 6930TIP3    H142281   5.781   4.735  16.183 -2.0334 -0.5774 -2.0876
 6930TIP3    H242282   5.797   4.879  16.227  0.5938 -1.8025  1.4038
 6931TIP3   OH242283   5.736   2.943  11.890 -0.0343  0.2793  0.0780
 6931TIP3    H142284   5.710   2.855  11.863 -0.4786  0.5629 -0.4476
 6931TIP3    H242285   5.659   2.979  11.933  0.8614 -0.3930  2.3734
 6932TIP3   OH242286   6.629   6.409   3.587 -0.1902  0.1822  0.4702
 6932TIP3    H142287   6.701   6.470   3.607 -0.2384  0.9306 -1.4778
 6932TIP3    H242288   6.600   6.434   3.500 -2.3281 -0.6115  0.8927
 6933TIP3   OH242289   6.806   0.625   2.063 -0.2728  0.1502  0.3165
 6933TIP3    H142290   6.845   0.562   2.002 -0.9502 -0.7146  0.7590
 6933TIP3    H242291   6.715   0.632   2.036 -0.1699  1.0666  0.1805
 6934TIP3   OH242292   4.121   4.015   3.728 -0.2088  0.3960  0.4634
 6934TIP3    H142293   4.078   3.952   3.669 -0.3955  2.5201 -1.8488
 6934TIP3    H242294   4.052   4.077   3.749  0.3187  0.6227  1.5538
 6935TIP3   OH242295   2.540   4.909   6.361 -0.1080  0.4498 -0.1398
 6935TIP3    H142296   2.622   4.916   6.411 -0.0298  1.6899 -0.4102
 6935TIP3    H242297   2.481   4.859   6.418  0.0084  1.7415  1.1680
 6936TIP3   OH242298   6.110   2.005   1.513 -0.2329  0.4566  0.5790
 6936TIP3    H142299   6.154   2.050   1.585 -0.0152  0.6146  0.3483
 6936TIP3    H242300   6.143   1.915   1.519 -0.4911  0.3804  0.8965
 6937TIP3   OH242301   2.466   1.697  13.113 -0.3131  0.0470 -0.3397
 6937TIP3    H142302   2.450   1.654  13.029 -0.7778  0.0935 -0.2798
 6937TIP3    H242303   2.393   1.669  13.169 -0.4789  0.6985 -0.2196
 6938TIP3   OH242304   1.008   2.695  11.743  0.6148 -0.0258  0.6777
 6938TIP3    H142305   1.004   2.610  11.699  1.1445  0.7450 -0.9131
 6938TIP3    H242306   1.027   2.757  11.673  1.0354  1.3087  1.9497
 6939TIP3   OH242307   4.558   4.920   2.932  0.3236  0.5372 -0.4075
 6939TIP3    H142308   4.551   4.898   3.025 -0.3602  0.4319 -0.4770
 6939TIP3    H242309   4.467   4.920   2.901  0.4764  1.4832 -0.8692
 6940TIP3   OH242310   2.042   1.502  11.748  0.2840  0.2634  0.3536
 6940TIP3    H142311   2.056   1.429  11.688 -1.0041  1.0642 -1.0091
 6940TIP3    H242312   1.968   1.475  11.802 -1.9714  1.4448 -1.8931
 6941TIP3   OH242313   6.429   2.720   5.792 -0.3190 -0.3451  0.3679
 6941TIP3    H142314   6.335   2.737   5.794 -0.1638  2.2152 -3.2225
 6941TIP3    H242315   6.469   2.806   5.781  2.3324 -1.5054  0.1604
 6942TIP3   OH242316   3.653   1.823   6.451  0.2965 -0.8453  0.1059
 6942TIP3    H142317   3.641   1.734   6.416  0.2377 -2.3606  3.4905
 6942TIP3    H242318   3.742   1.823   6.486  1.3461  1.5102 -2.2876
 6943TIP3   OH242319   5.827   3.846  12.577 -0.2024 -0.7104  0.5023
 6943TIP3    H142320   5.883   3.923  12.584 -0.9910  0.1377 -1.5107
 6943TIP3    H242321   5.887   3.772  12.579  1.5020  0.2182 -4.0004
 6944TIP3   OH242322   5.877   2.527  11.909 -0.6931 -0.0276 -0.0191
 6944TIP3    H142323   5.793   2.568  11.892 -1.2244 -0.9894  0.1832
 6944TIP3    H242324   5.936   2.563  11.842 -0.9986  1.3969  0.4573
 6945TIP3   OH242325   5.933   4.083   0.087 -0.5675 -0.5340  0.3111
 6945TIP3    H142326   5.866   4.047   0.144 -0.6116 -0.3118  0.3989
 6945TIP3    H242327   5.887   4.102   0.005 -1.2868  2.3098  1.2831
 6946TIP3   OH242328   3.348   2.595  12.158  0.0207 -0.4161  0.1195
 6946TIP3    H142329   3.304   2.584  12.073 -0.2323 -0.7529  0.2928
 6946TIP3    H242330   3.332   2.687  12.181  0.9861 -0.0152 -0.6886
 6947TIP3   OH242331   3.697   2.451   4.269 -0.4365  0.2687 -0.1788
 6947TIP3    H142332   3.682   2.377   4.328 -2.3701  0.2800 -0.5903
 6947TIP3    H242333   3.642   2.433   4.193  1.3339  0.6968 -1.6383
 6948TIP3   OH242334   6.042   6.706  15.399  0.1134  0.3249 -0.1255
 6948TIP3    H142335   6.069   6.667  15.483  2.1700  2.5341  0.3610
 6948TIP3    H242336   5.964   6.757  15.421  0.4058  0.5719  0.3639
 6949TIP3   OH242337   6.450   5.217  16.290  0.2493 -0.1666  0.4883
 6949TIP3    H142338   6.435   5.294  16.346  0.9579  0.1634  0.2384
 6949TIP3    H242339   6.450   5.144  16.351 -2.8850 -0.3253  0.4742
 6950TIP3   OH242340   5.944   2.905  13.800  0.6094  0.5443  1.0789
 6950TIP3    H142341   5.911   2.922  13.889  1.2612 -0.2409  1.4829
 6950TIP3    H242342   6.037   2.888  13.812  0.6483  0.1648  0.2750
 6951TIP3   OH242343   5.605   0.020  13.221  0.1805 -0.4025 -0.3260
 6951TIP3    H142344   5.611   0.073  13.301 -0.7589 -0.7356 -0.0190
 6951TIP3    H242345   5.542   0.067  13.166  0.3097 -0.5333 -0.5853
 6952TIP3   OH242346   0.671   4.069   2.983  0.0295  0.2906 -0.6389
 6952TIP3    H142347   0.739   4.007   3.008 -1.9381 -1.4506  0.8295
 6952TIP3    H242348   0.629   4.029   2.907 -1.4443 -0.4482  0.4950
 6953TIP3   OH242349   0.303   4.104  15.678  0.1123 -0.2466 -0.6257
 6953TIP3    H142350   0.283   4.178  15.736 -0.6951 -0.2422 -0.8869
 6953TIP3    H242351   0.281   4.136  15.590 -0.9449 -1.0118 -0.6679
 6954TIP3   OH242352   4.116   0.970   4.429 -0.2979 -0.1220 -0.1159
 6954TIP3    H142353   4.184   0.974   4.497 -0.7076 -1.8036  0.4406
 6954TIP3    H242354   4.121   1.054   4.385  0.5044  0.7196  1.5067
 6955TIP3   OH242355   0.121   6.310   5.525  0.3967  0.6255  0.4247
 6955TIP3    H142356   0.136   6.243   5.459  5.0944  2.3899 -0.6710
 6955TIP3    H242357   0.052   6.365   5.487 -1.2190 -1.6254 -0.1099
 6956TIP3   OH242358   5.915   2.021  11.191 -0.0886 -0.2411  0.0512
 6956TIP3    H142359   5.997   2.000  11.147 -0.1017  1.1698 -0.7209
 6956TIP3    H242360   5.942   2.050  11.279  0.3435  1.0809 -0.4972
 6957TIP3   OH242361   0.080   5.094   3.228  0.1411 -0.2019  0.3624
 6957TIP3    H142362   0.114   5.166   3.174 -0.6006  0.2160  0.4325
 6957TIP3    H242363   0.158   5.053   3.265  0.5736  1.0804  0.9697
 6958TIP3   OH242364   2.553   3.345  13.156 -0.4644  0.1420 -0.0406
 6958TIP3    H142365   2.637   3.302  13.138 -0.8473 -0.4408 -0.4625
 6958TIP3    H242366   2.514   3.357  13.070 -1.1375 -0.2510  0.2089
 6959TIP3   OH242367   2.926   3.921   5.517 -0.2611 -0.0385  0.1653
 6959TIP3    H142368   2.974   3.840   5.501  0.7697  0.4837  0.5455
 6959TIP3    H242369   2.920   3.927   5.613  3.0159  2.1774  0.3924
 6960TIP3   OH242370   2.921   2.364  14.841 -0.3109  0.3661  0.2315
 6960TIP3    H142371   2.945   2.383  14.932  0.3664 -1.2345  0.4182
 6960TIP3    H242372   2.917   2.268  14.837  0.4893  0.3804 -1.6200
 6961TIP3   OH242373   6.304   2.340  11.427 -0.1489 -0.2105  0.5193
 6961TIP3    H142374   6.331   2.328  11.336 -0.5522 -2.9527  0.6997
 6961TIP3    H242375   6.365   2.287  11.478 -1.6593 -1.0290  1.5467
 6962TIP3   OH242376   0.663   5.443  16.222  0.1308  0.4798 -0.0584
 6962TIP3    H142377   0.650   5.494  16.142  0.8875 -0.8104 -1.0391
 6962TIP3    H242378   0.755   5.419  16.220  0.1907  0.5040  1.2786
 6963TIP3   OH242379   2.943   1.513   0.457 -0.8431  0.1075  0.5333
 6963TIP3    H142380   2.856   1.473   0.458 -0.8704  0.1672  0.7172
 6963TIP3    H242381   2.980   1.489   0.372 -0.7058 -0.6274  0.7946
 6964TIP3   OH242382   1.543   6.401  15.256 -0.0771  0.3813  0.7419
 6964TIP3    H142383   1.464   6.443  15.221  1.5375  0.6867 -3.0117
 6964TIP3    H242384   1.609   6.413  15.187  2.1412 -3.3549  1.9152
 6965TIP3   OH242385   1.074   0.385  14.182 -0.0053  0.0616  0.3643
 6965TIP3    H142386   1.089   0.461  14.239 -3.6689  1.0305  0.2421
 6965TIP3    H242387   1.138   0.396  14.111  0.6786  2.0835  1.2163
 6966TIP3   OH242388   0.266   3.968   2.714  0.0676 -0.1943  0.4803
 6966TIP3    H142389   0.322   3.989   2.639  1.0667 -1.6626  0.7696
 6966TIP3    H242390   0.325   3.971   2.790  0.0336 -2.6107  0.6936
 6967TIP3   OH242391   5.284   2.207  12.855  0.1134  0.3168  0.4624
 6967TIP3    H142392   5.354   2.208  12.920 -0.0637 -0.3298  0.6703
 6967TIP3    H242393   5.210   2.249  12.898 -0.1368 -0.4862  0.8483
 6968TIP3   OH242394   4.243   6.596   1.838  0.4650 -0.1278  0.4013
 6968TIP3    H142395   4.219   6.525   1.778  1.6274 -0.5236  0.3832
 6968TIP3    H242396   4.168   6.603   1.897 -0.8702  0.5214 -1.2985
 6969TIP3   OH242397   2.284   2.663   2.337 -0.3766  0.9546 -0.3075
 6969TIP3    H142398   2.270   2.658   2.431  1.4704 -0.8776 -0.0724
 6969TIP3    H242399   2.298   2.757   2.320 -0.7939  1.3174  1.2121
 6970TIP3   OH242400   6.517   2.302  12.635  0.1152  0.3548 -0.1340
 6970TIP3    H142401   6.480   2.260  12.713 -0.2725  0.4986 -0.2367
 6970TIP3    H242402   6.594   2.249  12.614 -0.6495 -0.6266 -0.5579
 6971TIP3   OH242403   4.332   3.743  12.297 -0.2707 -0.7319 -0.4845
 6971TIP3    H142404   4.316   3.769  12.207 -0.3759 -1.6009 -0.7258
 6971TIP3    H242405   4.304   3.651  12.301 -3.0604  0.0588  1.1619
 6972TIP3   OH242406   6.206   6.765   1.137  0.1193  0.0395  0.3555
 6972TIP3    H142407   6.186   6.753   1.045 -2.8644  2.1974  0.5829
 6972TIP3    H242408   6.145   6.707   1.183 -0.5828  1.2137  0.9645
 6973TIP3   OH242409   3.462   5.786   2.671  0.3670 -0.0362  0.3983
 6973TIP3    H142410   3.525   5.789   2.743  0.4396 -0.9786  0.3880
 6973TIP3    H242411   3.458   5.694   2.647  0.3408  0.2712 -0.8107
 6974TIP3   OH242412   1.924   3.911  16.963 -0.3392 -0.0886 -0.3296
 6974TIP3    H142413   1.858   3.965  17.006 -0.2618 -0.9702  0.9507
 6974TIP3    H242414   2.006   3.934  17.006 -0.2309 -0.8431 -0.1158
 6975TIP3   OH242415   4.158   5.929   2.659 -0.1628 -0.0592  0.2188
 6975TIP3    H142416   4.184   5.976   2.580 -0.4672  0.6911  0.5577
 6975TIP3    H242417   4.113   5.852   2.627  1.3958 -0.7783 -0.3721
 6976TIP3   OH242418   6.509   4.475  12.441 -0.0702  0.2015 -0.4694
 6976TIP3    H142419   6.535   4.410  12.376 -1.2488 -0.0450 -0.7146
 6976TIP3    H242420   6.478   4.549  12.390  0.8361  0.7969 -0.1854
 6977TIP3   OH242421   6.156   6.652  17.201 -0.2873 -0.5349 -0.4113
 6977TIP3    H142422   6.119   6.567  17.177  0.6569 -1.0765  0.0146
 6977TIP3    H242423   6.096   6.684  17.269 -1.9377  0.2027 -2.1004
 6978TIP3   OH242424   6.296   6.453   2.576  0.0847 -0.0359 -0.0450
 6978TIP3    H142425   6.382   6.427   2.545  0.6587  1.3139  0.3484
 6978TIP3    H242426   6.242   6.456   2.497 -0.1292 -2.6113 -0.0971
 6979TIP3   OH242427   5.274   3.432   1.643 -0.4559 -0.1121 -0.5407
 6979TIP3    H142428   5.237   3.456   1.728  0.3163  0.6006 -0.3867
 6979TIP3    H242429   5.199   3.431   1.584 -1.0497 -0.8816  0.1925
 6980TIP3   OH242430   3.627   0.635  13.183  0.1429  0.3198 -0.3306
 6980TIP3    H142431   3.722   0.633  13.179  0.1669  1.4068 -0.6645
 6980TIP3    H242432   3.600   0.544  13.178  1.2129 -0.1081  1.2053
 6981TIP3   OH242433   4.806   5.782   0.013  0.3794  0.5575  0.3346
 6981TIP3    H142434   4.802   5.862   0.065  3.3614  0.4911  0.8567
 6981TIP3    H242435   4.850   5.809  -0.068  0.8200 -0.3922  0.2413
 6982TIP3   OH242436   6.070   6.004   1.302 -0.3479 -0.1132  0.2709
 6982TIP3    H142437   6.149   5.996   1.250 -1.2404 -1.2965 -0.9762
 6982TIP3    H242438   6.041   5.914   1.316 -0.5892  0.2140  2.1360
 6983TIP3   OH242439   0.959   1.292  12.477  0.1364 -0.2157  0.0928
 6983TIP3    H142440   0.988   1.330  12.560  0.0420 -1.7450  0.8728
 6983TIP3    H242441   0.865   1.306  12.476 -0.0157 -1.0942  0.7619
 6984TIP3   OH242442   2.569   2.654  16.924  0.4083 -0.4407 -0.7704
 6984TIP3    H142443   2.508   2.705  16.871 -1.2659 -2.1093 -0.5627
 6984TIP3    H242444   2.616   2.719  16.977 -2.8572  0.8437  0.8043
 6985TIP3   OH242445   3.974   0.159  12.902  0.2111  0.0641  0.3248
 6985TIP3    H142446   3.918   0.114  12.838  0.2624 -2.1431  1.6988
 6985TIP3    H242447   3.912   0.207  12.957 -0.0684 -0.0323  0.1037
 6986TIP3   OH242448   3.074   2.973   0.417 -0.1793 -0.5090  0.1887
 6986TIP3    H142449   3.016   2.897   0.415  1.5772 -1.9345  0.0481
 6986TIP3    H242450   3.077   2.998   0.510  0.0433 -1.2990  0.4005
 6987TIP3   OH242451   5.562   4.588  11.623 -0.2561  0.2137  0.2043
 6987TIP3    H142452   5.523   4.674  11.641 -1.5505 -0.0564 -1.2288
 6987TIP3    H242453   5.605   4.565  11.706 -0.8156  1.7352  0.9704
 6988TIP3   OH242454   5.154   4.901  16.586 -0.6879 -0.2278  0.1133
 6988TIP3    H142455   5.211   4.892  16.510  0.6763  0.1329  1.0621
 6988TIP3    H242456   5.115   4.989  16.576 -2.9040 -1.3078 -1.6966
 6989TIP3   OH242457   5.085   6.690  16.038  0.3861 -0.0859  0.4933
 6989TIP3    H142458   5.054   6.680  15.947 -0.5012  0.0857  0.7649
 6989TIP3    H242459   5.149   6.620  16.049  0.7791  0.1148 -0.3792
 6990TIP3   OH242460   2.605   0.560   5.797 -0.1777  0.0531 -0.6115
 6990TIP3    H142461   2.669   0.503   5.838 -1.6110 -0.8733  0.4473
 6990TIP3    H242462   2.588   0.521   5.711  2.2901  1.5850 -1.9000
 6991TIP3   OH242463   0.338   2.041   3.559 -0.7419 -0.6370  0.5401
 6991TIP3    H142464   0.318   2.022   3.650 -2.0133 -0.6958  0.2634
 6991TIP3    H242465   0.401   1.974   3.534  3.2665  1.9581  2.6057
 6992TIP3   OH242466   4.572   0.125   0.984 -0.7109  0.9181  0.3497
 6992TIP3    H142467   4.526   0.046   0.954  2.0946 -1.1644  1.1044
 6992TIP3    H242468   4.525   0.152   1.063 -2.5267  0.8823 -0.6537
 6993TIP3   OH242469   0.711   4.528   0.790 -0.0319 -0.1329  0.0699
 6993TIP3    H142470   0.784   4.588   0.776 -0.1944  0.4516  1.4985
 6993TIP3    H242471   0.741   4.472   0.862 -0.0168 -1.5580 -1.0058
 6994TIP3   OH242472   4.155   3.811   0.278 -0.5716  0.3502  0.0711
 6994TIP3    H142473   4.214   3.784   0.207  0.7339  1.1035  0.8332
 6994TIP3    H242474   4.131   3.901   0.257 -0.7551  0.3381  0.2234
 6995TIP3   OH242475   0.363   0.808  12.716 -0.0860  0.3330  0.1991
 6995TIP3    H142476   0.310   0.799  12.636  0.1244 -1.0074  0.1840
 6995TIP3    H242477   0.327   0.743  12.776  1.8149 -0.9660  0.0070
 6996TIP3   OH242478   4.374   5.198   3.460 -0.2807  0.1786 -0.1149
 6996TIP3    H142479   4.379   5.220   3.367  0.4939  1.0989  0.1259
 6996TIP3    H242480   4.463   5.209   3.492 -0.2103 -1.6491  0.4295
 6997TIP3   OH242481   3.446   4.342  11.814  0.1735  0.1243  0.3090
 6997TIP3    H142482   3.375   4.392  11.855 -0.7932 -1.2730  0.4188
 6997TIP3    H242483   3.488   4.404  11.755 -0.9965  1.0695  0.4300
 6998TIP3   OH242484   2.672   0.616   6.374  0.1520  0.5543 -0.0679
 6998TIP3    H142485   2.730   0.692   6.365  1.4953 -0.4596 -0.2789
 6998TIP3    H242486   2.654   0.588   6.285  3.4369 -2.0662 -0.1340
 6999TIP3   OH242487   0.524   2.161  15.780 -0.0982 -0.2759  0.4384
 6999TIP3    H142488   0.527   2.172  15.875 -0.1380  0.2037  0.3853
 6999TIP3    H242489   0.440   2.119  15.763  0.0597 -0.6835  0.6429
 7000TIP3   OH242490   6.726   3.203   4.782 -0.2547 -0.2264 -0.1593
 7000TIP3    H142491   6.800   3.230   4.835 -0.4212 -2.2855  1.2464
 7000TIP3    H242492   6.664   3.166   4.844 -1.0744 -1.4733 -1.6395
 7001TIP3   OH242493   5.259   2.676  16.678 -0.5319  0.8492 -0.1086
 7001TIP3    H142494   5.347   2.693  16.712  0.1389 -0.8908 -0.8610
 7001TIP3    H242495   5.252   2.731  16.600  0.7366 -0.5411 -1.2532
 7002TIP3   OH242496   3.637   0.204   3.442  0.0487 -0.5817 -0.3177
 7002TIP3    H142497   3.616   0.145   3.370  0.9273 -3.7251  1.7796
 7002TIP3    H242498   3.575   0.181   3.511  1.5348 -0.3067  1.1746
 7003TIP3   OH242499   0.194   2.989   3.968 -0.1600 -0.3929 -0.2539
 7003TIP3    H142500   0.201   2.982   4.063  0.3136 -2.4066 -0.4034
 7003TIP3    H242501   0.233   3.074   3.948 -3.4475  1.7682  1.5880
 7004TIP3   OH242502   5.238   4.835   5.131  0.2120  0.0075 -0.2482
 7004TIP3    H142503   5.298   4.887   5.186 -0.7782  3.0383 -1.8243
 7004TIP3    H242504   5.155   4.837   5.179 -0.5733  2.4073 -1.5300
 7005TIP3   OH242505   4.509   5.877  15.229  0.4511  0.2681  0.2519
 7005TIP3    H142506   4.520   5.876  15.134  1.1697  2.0398  0.2865
 7005TIP3    H242507   4.418   5.850  15.243  0.6253 -1.0065 -0.8575
 7006TIP3   OH242508   5.647   1.700   6.176  0.2833  0.7377  0.2280
 7006TIP3    H142509   5.615   1.672   6.261 -0.9199  1.2819 -0.0184
 7006TIP3    H242510   5.585   1.767   6.148  1.7184  1.9293 -0.2424
 7007TIP3   OH242511   6.089   5.954   2.409  0.0459 -0.2411  0.0298
 7007TIP3    H142512   6.074   5.900   2.331  0.8671 -1.2622  0.5517
 7007TIP3    H242513   6.004   5.992   2.428 -0.1424  0.1341 -1.4367
 7008TIP3   OH242514   6.447   3.113  11.381 -0.2229  0.2441 -0.0631
 7008TIP3    H142515   6.367   3.144  11.425 -0.4579 -0.8444  0.3127
 7008TIP3    H242516   6.493   3.063  11.448  1.1857  1.4942 -0.0426
 7009TIP3   OH242517   4.316   1.713  16.160  0.3723  0.2036  0.4201
 7009TIP3    H142518   4.306   1.807  16.175  2.4075  0.5709 -0.1717
 7009TIP3    H242519   4.410   1.701  16.148  0.1657 -1.9496  0.6338
 7010TIP3   OH242520   4.087   0.859  16.161  0.3106  0.3568  0.3648
 7010TIP3    H142521   4.161   0.851  16.221  0.9731  0.9263 -0.3571
 7010TIP3    H242522   4.102   0.789  16.096 -0.6418 -0.5497  1.0968
 7011TIP3   OH242523   1.060   5.025  15.972 -0.4966  0.2086 -0.2165
 7011TIP3    H142524   0.981   4.984  15.938 -1.7518  1.0510  1.5102
 7011TIP3    H242525   1.111   4.952  16.010 -0.7702 -0.2490 -0.7222
 7012TIP3   OH242526   5.381   3.197   2.122  0.1252 -0.2215 -0.5180
 7012TIP3    H142527   5.421   3.223   2.039 -0.9906 -0.3211 -1.1088
 7012TIP3    H242528   5.302   3.150   2.096  0.9155 -2.2807  0.5593
 7013TIP3   OH242529   2.172   5.914   0.781 -0.4081 -0.0900  0.6672
 7013TIP3    H142530   2.190   5.862   0.859  0.2876 -0.5320  0.2349
 7013TIP3    H242531   2.217   5.867   0.710  0.5348  1.2642  0.3155
 7014TIP3   OH242532   4.718   5.113  11.514  0.4736 -0.8099 -0.1504
 7014TIP3    H142533   4.762   5.037  11.477 -1.2433  0.0598 -4.5976
 7014TIP3    H242534   4.765   5.188  11.477 -1.0187  0.1775 -0.1211
 7015TIP3   OH242535   4.706   2.390  14.922  0.1183 -0.1945 -0.1441
 7015TIP3    H142536   4.776   2.325  14.919 -0.2322 -0.5634 -0.3173
 7015TIP3    H242537   4.739   2.462  14.868  0.9103  0.1872  0.8208
 7016TIP3   OH242538   1.567   0.107   0.914 -0.1758 -0.1742  0.2167
 7016TIP3    H142539   1.649   0.086   0.958  0.2927  0.6149 -0.2345
 7016TIP3    H242540   1.584   0.193   0.873 -0.3140 -1.1789 -2.1106
 7017TIP3   OH242541   3.835   3.762   4.791  0.0640 -0.3378  0.0306
 7017TIP3    H142542   3.919   3.765   4.836  0.5851  0.0590 -0.9464
 7017TIP3    H242543   3.839   3.685   4.735 -1.0158 -1.4783  1.4466
 7018TIP3   OH242544   5.135   6.162   2.954  0.5182 -0.2051 -0.3754
 7018TIP3    H142545   5.147   6.067   2.948 -1.2621 -0.5550  0.5232
 7018TIP3    H242546   5.201   6.191   3.017 -0.7118 -1.3529  1.5399
 7019TIP3   OH242547   3.554   2.435  11.982 -0.0408 -0.5143 -0.0233
 7019TIP3    H142548   3.472   2.470  11.947 -0.3885 -1.0985  0.1838
 7019TIP3    H242549   3.537   2.341  11.991  1.3031 -0.9686 -1.8056
 7020TIP3   OH242550   1.286   5.002  15.592  0.0052  0.4432  0.0754
 7020TIP3    H142551   1.337   5.048  15.525 -0.2443 -0.0842 -0.4821
 7020TIP3    H242552   1.292   5.058  15.669  0.1246  1.1628 -0.4486
 7021TIP3   OH242553   1.838   3.770  15.328  0.4204  0.2054 -0.6069
 7021TIP3    H142554   1.782   3.781  15.251  0.7497  1.1020 -0.7370
 7021TIP3    H242555   1.869   3.859  15.347 -0.0595  0.0879  0.8621
 7022TIP3   OH242556   6.706   0.437  11.763 -0.6387  0.2555  0.1817
 7022TIP3    H142557   6.748   0.472  11.685  3.1243 -1.5872  1.1138
 7022TIP3    H242558   6.688   0.345  11.741  2.8983 -1.0850  2.0260
 7023TIP3   OH242559   4.149   3.052   3.217  0.1191 -0.3122  0.1095
 7023TIP3    H142560   4.109   3.134   3.188  2.9042  1.9777  2.1993
 7023TIP3    H242561   4.172   3.006   3.137  0.5515  2.0573 -1.2037
 7024TIP3   OH242562   4.155   2.496   0.224 -0.4662  0.2552 -0.5017
 7024TIP3    H142563   4.066   2.460   0.224 -0.6532  0.6444  0.7894
 7024TIP3    H242564   4.185   2.486   0.315  1.3290 -1.0921 -1.1869
 7025TIP3   OH242565   6.552   4.978  15.527 -0.4786  0.1933  0.5326
 7025TIP3    H142566   6.558   5.025  15.443 -0.7690 -1.2820 -0.3392
 7025TIP3    H242567   6.631   4.925  15.530  1.5433  2.9968  3.0277
 7026TIP3   OH242568   0.511   2.409   1.779 -0.6187 -0.3256  0.2640
 7026TIP3    H142569   0.578   2.340   1.784  0.7221  0.9030  0.1859
 7026TIP3    H242570   0.509   2.434   1.687  0.5088  1.1633  0.5864
 7027TIP3   OH242571   3.591   0.865   4.540  0.6052  0.3127  0.0844
 7027TIP3    H142572   3.507   0.910   4.527  0.8764  0.7383 -0.2057
 7027TIP3    H242573   3.578   0.779   4.501 -0.0321  0.0008  0.9433
 7028TIP3   OH242574   4.975   4.935   1.216  0.6528  0.1268 -0.3981
 7028TIP3    H142575   4.963   4.855   1.166 -0.1456  0.8105 -1.3473
 7028TIP3    H242576   4.893   4.983   1.204  0.9077  0.8544  0.5889
 7029TIP3   OH242577   3.237   4.557   1.086 -0.3274  0.6548 -0.1101
 7029TIP3    H142578   3.244   4.480   1.143 -1.4624 -0.2006 -1.0501
 7029TIP3    H242579   3.317   4.555   1.033 -0.4211  0.0215 -0.2357
 7030TIP3   OH242580   0.808   3.515   0.132 -0.1082  0.0436 -0.1525
 7030TIP3    H142581   0.856   3.459   0.071  1.1642 -0.9576  1.6680
 7030TIP3    H242582   0.874   3.576   0.166 -1.2021  1.9088 -1.1592
 7031TIP3   OH242583   5.987   4.814  17.089  0.6779  0.0188  0.5891
 7031TIP3    H142584   5.985   4.880  17.020 -0.7719 -1.2705 -0.6876
 7031TIP3    H242585   6.023   4.860  17.165  1.3834  1.7654 -0.7201
 7032TIP3   OH242586   4.691   6.682   2.388  0.6171 -1.1383  0.2635
 7032TIP3    H142587   4.780   6.712   2.407  0.1637  0.4102  0.0788
 7032TIP3    H242588   4.635   6.734   2.446 -0.3075 -0.6812 -1.0000
 7033TIP3   OH242589   2.038   5.860  16.456 -0.5277 -0.3548 -0.2892
 7033TIP3    H142590   2.100   5.822  16.518 -0.8660 -0.3730  0.0380
 7033TIP3    H242591   2.047   5.805  16.377  0.9829  0.5680 -0.8073
 7034TIP3   OH242592   5.693   2.123  15.911  0.1096 -0.6329 -0.3510
 7034TIP3    H142593   5.688   2.214  15.943 -3.8022 -0.2083 -1.6243
 7034TIP3    H242594   5.702   2.131  15.816  1.6066 -1.7049 -0.3451
 7035TIP3   OH242595   4.863   5.129   0.976 -0.1503 -0.6128 -1.0747
 7035TIP3    H142596   4.775   5.125   1.015 -0.6398 -0.6588 -2.1541
 7035TIP3    H242597   4.872   5.220   0.947  0.9136 -0.1031  0.6623
 7036TIP3   OH242598   5.699   3.273  16.947 -0.2328  0.6721 -0.4463
 7036TIP3    H142599   5.725   3.320  16.868  1.7010  1.8068  0.7862
 7036TIP3    H242600   5.712   3.181  16.925 -1.6402  0.8076 -2.0633
 7037TIP3   OH242601   0.293   0.472   1.079  0.4641  0.0920 -0.1578
 7037TIP3    H142602   0.201   0.464   1.105  0.2655  0.7362 -0.6536
 7037TIP3    H242603   0.341   0.472   1.162 -0.0316  0.4415  0.1340
 7038TIP3   OH242604   4.093   3.510   0.230  0.1103 -0.2786  0.3299
 7038TIP3    H142605   4.168   3.567   0.216  0.9072 -0.8558  1.9877
 7038TIP3    H242606   4.124   3.423   0.204 -0.4709 -0.2996 -0.3331
 7039TIP3   OH242607   5.371   1.263   3.336 -0.4847 -0.0532  0.5331
 7039TIP3    H142608   5.370   1.230   3.246 -1.1204  0.6647  0.2721
 7039TIP3    H242609   5.385   1.357   3.328 -0.5956  0.0263  1.1861
 7040TIP3   OH242610   3.906   1.929  11.437  0.3391 -0.6453 -0.3940
 7040TIP3    H142611   3.880   1.851  11.387  1.9093 -0.7552 -1.1118
 7040TIP3    H242612   3.986   1.959  11.393 -0.4483  1.6242 -0.4024
 7041TIP3   OH242613   3.999   4.492   1.298 -0.1031 -0.1637  0.4261
 7041TIP3    H142614   3.918   4.531   1.265  0.5583  1.1954  0.3632
 7041TIP3    H242615   4.014   4.535   1.382  1.5601  1.0437 -0.4441
 7042TIP3   OH242616   6.550   4.671  14.532 -0.1679 -0.1101  0.2943
 7042TIP3    H142617   6.499   4.751  14.546  0.4977  0.4835 -0.5479
 7042TIP3    H242618   6.620   4.676  14.596 -0.2914 -0.1543  0.4317
 7043TIP3   OH242619   4.452   4.910  11.966 -0.3234 -0.9666 -0.1447
 7043TIP3    H142620   4.486   4.950  11.886  0.4889 -0.2783  0.5355
 7043TIP3    H242621   4.486   4.820  11.964 -0.4847 -1.0179 -0.6698
 7044TIP3   OH242622   0.924   6.423   6.131  0.1237  0.0919 -0.5858
 7044TIP3    H142623   0.880   6.466   6.204  0.9665  0.2446 -0.1593
 7044TIP3    H242624   1.013   6.410   6.161  0.0128 -1.5643 -0.8834
 7045TIP3   OH242625   0.553   2.913  11.782 -0.0053  0.0655 -0.3146
 7045TIP3    H142626   0.606   2.902  11.703 -1.4478 -0.0027 -1.2891
 7045TIP3    H242627   0.501   2.833  11.787  1.2081 -0.6791  1.6255
 7046TIP3   OH242628   2.141   6.536  14.908  0.5596  0.4186  0.1824
 7046TIP3    H142629   2.169   6.607  14.850 -1.4965  0.8048 -0.4086
 7046TIP3    H242630   2.050   6.556  14.929 -0.2929 -2.3124 -0.4886
 7047TIP3   OH242631   5.652   0.570  12.341  1.0219  0.2139 -0.7726
 7047TIP3    H142632   5.678   0.640  12.400  0.5338  1.4909 -2.0328
 7047TIP3    H242633   5.733   0.543  12.298  1.0547  0.6865 -1.0065
 7048TIP3   OH242634   0.803   3.068  16.420 -0.5599 -0.3832 -0.4515
 7048TIP3    H142635   0.856   3.098  16.345  0.4326  1.3612  0.8775
 7048TIP3    H242636   0.790   2.975  16.403  0.2417 -0.1973 -2.4345
 7049TIP3   OH242637   6.110   6.030  14.384 -0.1042 -0.2179  0.0080
 7049TIP3    H142638   6.172   6.057  14.315 -0.8721 -0.8154 -0.9351
 7049TIP3    H242639   6.030   6.008  14.337 -0.1451 -2.1930  0.9268
 7050TIP3   OH242640   2.421   1.049   2.937 -0.4842  0.3461 -0.0397
 7050TIP3    H142641   2.485   1.107   2.896 -0.7834  0.0442 -0.9535
 7050TIP3    H242642   2.337   1.094   2.926 -0.5652  0.2601  0.2291
 7051TIP3   OH242643   1.928   4.083   4.482  0.0980  0.0928  0.1904
 7051TIP3    H142644   1.846   4.035   4.497  1.2985 -1.4629  2.3716
 7051TIP3    H242645   1.989   4.016   4.451  1.3258  0.5804  1.4702
 7052TIP3   OH242646   4.118   1.967   1.894  0.2515 -0.1593 -0.6825
 7052TIP3    H142647   4.162   2.031   1.950 -1.2876 -1.7090  2.5578
 7052TIP3    H242648   4.187   1.906   1.869  0.7993 -0.0737  0.5442
 7053TIP3   OH242649   3.128   0.871  17.174  0.8787 -0.6026 -0.9705
 7053TIP3    H142650   3.130   0.946  17.116 -1.3978  0.7940  0.6100
 7053TIP3    H242651   3.218   0.864  17.208  1.1970  1.2046 -1.3625
 7054TIP3   OH242652   2.579   5.317   1.689 -1.1124  0.5328  0.3832
 7054TIP3    H142653   2.520   5.332   1.763 -2.1254  0.1186 -0.3131
 7054TIP3    H242654   2.522   5.282   1.621 -0.4294  2.0034 -0.9969
 7055TIP3   OH242655   3.512   4.726   4.850 -0.5440 -0.7258 -0.3852
 7055TIP3    H142656   3.565   4.681   4.915  0.3116 -0.2015 -0.7119
 7055TIP3    H242657   3.556   4.710   4.767 -0.7555 -0.0656 -0.6276
 7056TIP3   OH242658   4.472   2.163   1.267  0.3888  0.4424  0.6917
 7056TIP3    H142659   4.400   2.111   1.233  1.6698 -0.4337 -0.8371
 7056TIP3    H242660   4.531   2.099   1.308  0.9959  0.9403  0.6144
 7057TIP3   OH242661   1.333   5.139   3.206  0.2911 -0.1258 -0.3433
 7057TIP3    H142662   1.351   5.070   3.271 -1.5991 -0.1281  0.2155
 7057TIP3    H242663   1.240   5.131   3.188 -0.6034  3.8780  1.6043
 7058TIP3   OH242664   4.433   4.199  12.829  0.0500 -0.5048 -0.4958
 7058TIP3    H142665   4.500   4.160  12.885  0.8991 -0.6484 -1.5629
 7058TIP3    H242666   4.373   4.242  12.889 -0.6781 -3.0190  0.7443
 7059TIP3   OH242667   4.325   2.265  10.419 -0.1249  0.1174  0.0022
 7059TIP3    H142668   4.274   2.329  10.369 -0.5781 -0.0597  0.2239
 7059TIP3    H242669   4.277   2.257  10.501 -0.9759 -1.6467 -0.6093
 7060TIP3   OH242670   4.178   5.384   1.651  0.1959  0.3542 -0.4632
 7060TIP3    H142671   4.144   5.413   1.736 -0.5380 -0.3624 -0.5021
 7060TIP3    H242672   4.272   5.372   1.667 -0.0448 -0.4881  0.4708
 7061TIP3   OH242673   0.877   6.036  11.584 -0.2364 -0.0687  0.5155
 7061TIP3    H142674   0.783   6.024  11.591 -0.1255 -0.3413  1.6519
 7061TIP3    H242675   0.914   5.949  11.601  0.2106 -0.1022 -0.5080
 7062TIP3   OH242676   2.639   5.899   1.634 -0.3109 -0.4562  0.1320
 7062TIP3    H142677   2.552   5.866   1.609 -0.6822 -0.6966  1.6501
 7062TIP3    H242678   2.666   5.843   1.706  1.5852 -1.0302 -0.9440
 7063TIP3   OH242679   0.345   0.473   6.131  0.2628  1.0365  0.3653
 7063TIP3    H142680   0.354   0.520   6.214 -1.6942 -0.3123  1.4247
 7063TIP3    H242681   0.414   0.509   6.076  1.7749  1.8515  2.6308
 7064TIP3   OH242682   6.189   3.386  13.283  0.3428  0.3824 -0.1038
 7064TIP3    H142683   6.269   3.373  13.232 -0.2500 -0.1881 -0.9123
 7064TIP3    H242684   6.208   3.346  13.368  1.0124  0.5126 -0.1855
 7065TIP3   OH242685   4.775   4.610   2.655  0.0865 -0.1348 -0.3196
 7065TIP3    H142686   4.821   4.556   2.719  0.2050 -0.4413 -0.6581
 7065TIP3    H242687   4.755   4.549   2.583 -1.2742 -0.1204  0.0305
 7066TIP3   OH242688   1.521   2.711   5.058 -0.5667 -0.2695 -0.2918
 7066TIP3    H142689   1.588   2.708   4.989 -0.1167  0.5416  0.0859
 7066TIP3    H242690   1.474   2.629   5.050  0.3215 -0.7489 -0.7340
 7067TIP3   OH242691   2.957   2.301   2.865  0.3528 -0.2535 -0.5423
 7067TIP3    H142692   2.882   2.343   2.823  0.4094  1.2975  0.7870
 7067TIP3    H242693   2.931   2.293   2.957  0.9669 -1.7999 -0.4683
 7068TIP3   OH242694   4.742   6.570  15.976  0.1662 -0.1486 -0.1785
 7068TIP3    H142695   4.751   6.620  16.057 -2.0376  0.8896 -0.4945
 7068TIP3    H242696   4.647   6.555  15.968  0.4449 -1.2147 -1.9804
 7069TIP3   OH242697   3.916   2.580  12.399 -0.0767  0.5760  0.3334
 7069TIP3    H142698   3.928   2.659  12.452  0.7291 -0.1688  1.3155
 7069TIP3    H242699   4.005   2.549  12.382 -0.3927 -0.7118  0.9141
 7070TIP3   OH242700   5.551   0.411  16.311  0.0536 -0.2365 -0.4851
 7070TIP3    H142701   5.584   0.337  16.260  2.1033 -0.1954  0.6597
 7070TIP3    H242702   5.469   0.380  16.349  0.8722 -1.9258 -0.0238
 7071TIP3   OH242703   4.892   4.808  13.061  0.5512  0.4297 -0.2320
 7071TIP3    H142704   4.923   4.847  13.143 -0.5901 -0.2414  0.5530
 7071TIP3    H242705   4.933   4.721  13.059  2.4231  1.2835 -1.5628
 7072TIP3   OH242706   6.564   0.815  11.269 -0.1248  0.1235 -0.5869
 7072TIP3    H142707   6.614   0.866  11.204 -0.1232  0.2017 -0.5250
 7072TIP3    H242708   6.483   0.791  11.223 -1.2436  2.2365  0.1084
 7073TIP3   OH242709   0.631   6.672  14.066  0.4653 -0.3715 -0.3002
 7073TIP3    H142710   0.688   6.749  14.074 -0.2120  0.0373  0.8765
 7073TIP3    H242711   0.584   6.686  13.984 -0.7135  1.2323  0.5983
 7074TIP3   OH242712   5.548   6.628  16.057 -0.2618 -0.0778  0.1387
 7074TIP3    H142713   5.627   6.680  16.070 -0.3080 -0.1449  0.7022
 7074TIP3    H242714   5.578   6.538  16.054 -0.5086 -0.2861  2.3902
 7075TIP3   OH242715   4.439   5.823   3.097 -0.5225 -0.1322  0.1118
 7075TIP3    H142716   4.370   5.890   3.093  0.1752  0.5428 -1.9459
 7075TIP3    H242717   4.518   5.869   3.069  0.7189 -0.9888  2.0944
 7076TIP3   OH242718   2.666   5.857  10.535 -0.6522  0.3773  0.0143
 7076TIP3    H142719   2.752   5.822  10.508  0.4710  2.5580  0.5025
 7076TIP3    H242720   2.603   5.803  10.487  0.8535 -2.5231  1.0280
 7077TIP3   OH242721   5.365   2.153   0.375 -0.7769 -0.3750 -0.0960
 7077TIP3    H142722   5.393   2.241   0.348 -0.7808  0.1901  1.5650
 7077TIP3    H242723   5.387   2.149   0.468 -0.1916 -2.3935 -0.2766
 7078TIP3   OH242724   5.454   1.922   6.173 -0.0527  0.2800  0.0189
 7078TIP3    H142725   5.489   1.989   6.232 -1.0175  0.6834  0.1465
 7078TIP3    H242726   5.401   1.866   6.229 -1.0385  0.7122 -0.4718
 7079TIP3   OH242727   0.962   5.206   5.112  0.1201  0.2891 -0.5215
 7079TIP3    H142728   0.969   5.228   5.204  0.5317  0.7834 -0.6669
 7079TIP3    H242729   0.869   5.218   5.092 -0.0093 -0.0357 -0.1199
 7080TIP3   OH242730   4.938   5.697  11.783 -0.1641 -0.4133  0.3048
 7080TIP3    H142731   5.004   5.673  11.848  0.2751  0.5697  0.2348
 7080TIP3    H242732   4.880   5.621  11.778 -0.3262 -0.4443  1.9941
 7081TIP3   OH242733   5.347   0.624   2.619 -0.7877  0.3653  0.0984
 7081TIP3    H142734   5.439   0.632   2.593 -0.5417 -2.1551 -0.1103
 7081TIP3    H242735   5.300   0.684   2.561  0.6962  1.6137  0.1364
 7082TIP3   OH242736   1.396   2.803  14.222  0.6043 -0.2733  0.3810
 7082TIP3    H142737   1.341   2.764  14.290 -1.4919 -0.1776 -1.1876
 7082TIP3    H242738   1.391   2.743  14.149  3.0470 -0.4977  0.3206
 7083TIP3   OH242739   2.145   3.221  11.663 -0.8501 -0.5017 -0.2633
 7083TIP3    H142740   2.209   3.206  11.592 -0.0906  0.2683  0.2346
 7083TIP3    H242741   2.062   3.189  11.628 -0.6010  0.3739 -1.7247
 7084TIP3   OH242742   4.276   4.783   3.300  0.0032  0.1531 -0.4302
 7084TIP3    H142743   4.260   4.826   3.216 -1.7154  0.9597  0.2714
 7084TIP3    H242744   4.358   4.735   3.287 -1.2549 -1.4779 -3.2702
 7085TIP3   OH242745   0.710   2.543  12.481 -0.0696  0.7858  0.7862
 7085TIP3    H142746   0.711   2.491  12.400  1.4240  2.3918 -0.3260
 7085TIP3    H242747   0.802   2.563  12.497 -0.5104  2.2876  1.6542
 7086TIP3   OH242748   4.782   5.172  13.310  0.2538  0.1507  0.5677
 7086TIP3    H142749   4.832   5.137  13.236 -0.7593  0.0413 -0.0806
 7086TIP3    H242750   4.813   5.263  13.318  1.5856 -0.3253  1.1092
 7087TIP3   OH242751   2.572   3.527   0.060 -0.0629 -0.3414 -0.5930
 7087TIP3    H142752   2.591   3.613   0.097 -0.1036 -0.0255 -1.2841
 7087TIP3    H242753   2.644   3.471   0.090  0.5243  0.1861 -0.9799
 7088TIP3   OH242754   2.210   3.396  12.587 -0.1343 -0.1514 -0.1040
 7088TIP3    H142755   2.175   3.485  12.580 -1.0522 -0.3166  1.7632
 7088TIP3    H242756   2.253   3.380  12.503  0.3952  2.1928 -0.3330
 7089TIP3   OH242757   3.411   6.207  15.385  1.1513  0.6903 -0.0389
 7089TIP3    H142758   3.340   6.143  15.376  1.3769  0.2877  0.9046
 7089TIP3    H242759   3.487   6.165  15.345  1.1350  0.6536 -0.0316
 7090TIP3   OH242760   2.963   6.396   2.300  0.2030  0.0629 -0.1405
 7090TIP3    H142761   2.965   6.482   2.343  1.1882 -0.4995  0.9695
 7090TIP3    H242762   2.920   6.339   2.363 -0.0006 -0.3741 -0.6714
 7091TIP3   OH242763   4.962   0.182   1.947  0.1639  0.2016  0.0285
 7091TIP3    H142764   4.940   0.262   1.995 -0.6227  0.6371 -1.0023
 7091TIP3    H242765   4.879   0.135   1.940  0.1786  0.3010 -1.1334
 7092TIP3   OH242766   4.831   3.986   1.521 -0.4798  0.3024 -0.1289
 7092TIP3    H142767   4.858   4.074   1.493 -0.6452  0.6267  0.7016
 7092TIP3    H242768   4.769   3.957   1.454  0.2396  0.4471 -0.8863
 7093TIP3   OH242769   0.727   0.688   6.701 -0.3162 -0.0159  0.2355
 7093TIP3    H142770   0.683   0.772   6.708  2.9346  1.8038  0.9707
 7093TIP3    H242771   0.752   0.681   6.609 -0.4328 -0.0819  0.2093
 7094TIP3   OH242772   6.396   1.874  11.977 -0.2369 -0.2491 -0.8818
 7094TIP3    H142773   6.446   1.844  12.053 -1.2847 -3.3382 -1.3009
 7094TIP3    H242774   6.352   1.954  12.007  0.2676 -0.7624  1.3657
 7095TIP3   OH242775   3.879   3.059  16.067  0.4463 -0.1847 -0.1413
 7095TIP3    H142776   3.950   3.012  16.023  0.9947  0.6858 -0.2028
 7095TIP3    H242777   3.872   3.142  16.019  2.4991  1.7679  2.6559
 7096TIP3   OH242778   3.019   4.749   2.238 -0.2206  0.2872 -0.1260
 7096TIP3    H142779   2.949   4.801   2.199 -1.3135 -0.3962  0.8245
 7096TIP3    H242780   3.094   4.761   2.181 -0.9925  1.4036 -0.9366
 7097TIP3   OH242781   0.319   5.264  13.853 -0.6312  0.2415 -0.2210
 7097TIP3    H142782   0.360   5.330  13.797  0.5912 -0.0539  0.3050
 7097TIP3    H242783   0.308   5.308  13.938 -0.5993  0.0373 -0.1100
 7098TIP3   OH242784   4.589   1.518   4.309  0.3060  0.3823  0.1861
 7098TIP3    H142785   4.627   1.574   4.241 -1.7318  0.2131 -1.1946
 7098TIP3    H242786   4.606   1.429   4.278  0.5998  0.2769  0.6431
 7099TIP3   OH242787   2.335   5.173  16.425 -0.0717  0.2917 -0.5215
 7099TIP3    H142788   2.333   5.166  16.520 -0.0486 -0.4712 -0.5692
 7099TIP3    H242789   2.379   5.093  16.396 -0.9252  0.0577 -1.2198
 7100TIP3   OH242790   2.399   3.966  11.766  0.7011 -0.0023  0.1420
 7100TIP3    H142791   2.330   3.996  11.706  1.5683  2.0597  0.0972
 7100TIP3    H242792   2.378   4.007  11.850  0.4754 -1.4644  0.8346
 7101TIP3   OH242793   4.388   2.353   6.366 -0.3905  0.4115 -0.3938
 7101TIP3    H142794   4.314   2.380   6.311 -1.6785  2.0069  1.9837
 7101TIP3    H242795   4.347   2.311   6.442  1.2585 -0.0769  0.2613
 7102TIP3   OH242796   6.570   5.298   0.790  0.4701  0.0790  0.1021
 7102TIP3    H142797   6.600   5.327   0.877  1.1876 -0.1211 -0.0777
 7102TIP3    H242798   6.649   5.272   0.744  0.3152  1.7067 -1.2044
 7103TIP3   OH242799   5.242   5.597   1.530 -0.5446 -0.0083 -0.0529
 7103TIP3    H142800   5.269   5.581   1.621  1.1674 -0.6426 -0.6447
 7103TIP3    H242801   5.242   5.693   1.522 -1.3781  0.0782  0.7866
 7104TIP3   OH242802   1.891   3.725  14.872  0.1248 -0.4021  0.3448
 7104TIP3    H142803   1.970   3.674  14.852  0.7477  0.9531 -0.8606
 7104TIP3    H242804   1.839   3.668  14.928  1.1367 -2.0466 -0.3092
 7105TIP3   OH242805   3.974   1.501   1.141  0.4406  0.0160  0.5104
 7105TIP3    H142806   3.889   1.527   1.176  0.3910 -1.5356  1.6092
 7105TIP3    H242807   3.980   1.547   1.057 -1.4089  0.2755  0.4787
 7106TIP3   OH242808   5.997   5.025   5.114  0.3549 -0.2238 -0.0494
 7106TIP3    H142809   5.986   4.931   5.128 -0.3327  0.1481  2.1346
 7106TIP3    H242810   5.937   5.045   5.042  1.3206 -1.5981 -1.3190
 7107TIP3   OH242811   0.070   0.913   4.277  0.3858 -0.5134 -0.2189
 7107TIP3    H142812   0.019   0.834   4.260  0.1395 -0.5297  0.5883
 7107TIP3    H242813   0.153   0.881   4.313  0.8056 -0.4610 -1.0899
 7108TIP3   OH242814   6.483   3.246  12.662  0.0728  0.3417 -0.2446
 7108TIP3    H142815   6.505   3.328  12.707 -0.2983 -0.3641  1.2650
 7108TIP3    H242816   6.541   3.245  12.586  2.0122  0.7322  1.1599
 7109TIP3   OH242817   1.454   6.472   1.318  0.7638  0.1256  0.2941
 7109TIP3    H142818   1.443   6.507   1.230 -0.6814  1.1584  0.8340
 7109TIP3    H242819   1.434   6.379   1.309 -0.1562  0.3683 -0.3447
 7110TIP3   OH242820   6.752   1.897   2.782 -0.1754 -0.4063  0.1009
 7110TIP3    H142821   6.710   1.943   2.854 -0.4913 -2.2878  1.1617
 7110TIP3    H242822   6.701   1.923   2.704 -0.4182  0.8893  0.6634
 7111TIP3   OH242823   4.273   1.597  14.273 -0.1513  0.6805 -0.1469
 7111TIP3    H142824   4.290   1.504  14.255 -1.8238  0.2712  0.2390
 7111TIP3    H242825   4.185   1.598  14.310  0.0604  2.3782  0.3707
 7112TIP3   OH242826   3.703   0.329   1.728 -0.4569 -0.8130 -0.1469
 7112TIP3    H142827   3.712   0.251   1.782 -1.8853 -0.7082  0.2655
 7112TIP3    H242828   3.628   0.312   1.672  1.2930 -1.1530 -2.5647
 7113TIP3   OH242829   0.360   3.362  15.990 -0.2814  0.2077 -0.0966
 7113TIP3    H142830   0.317   3.416  15.924 -1.2718 -0.5780 -0.1314
 7113TIP3    H242831   0.343   3.408  16.072 -0.2078  0.4964 -0.2416
 7114TIP3   OH242832   0.456   5.900  11.887 -0.0279  0.4665  0.1634
 7114TIP3    H142833   0.417   5.962  11.949  0.0338  1.3413 -0.6480
 7114TIP3    H242834   0.396   5.899  11.813  0.0690 -0.3151  0.0906
 7115TIP3   OH242835   6.168   5.698  13.270  0.2289  0.2944  0.2945
 7115TIP3    H142836   6.154   5.768  13.334 -0.7813 -0.2930  0.7269
 7115TIP3    H242837   6.240   5.731  13.215 -0.7979  2.0745 -0.0749
 7116TIP3   OH242838   2.609   6.534  13.642 -0.1015  0.1424 -0.1741
 7116TIP3    H142839   2.632   6.442  13.633  0.0739  0.0599  0.9628
 7116TIP3    H242840   2.537   6.535  13.706 -1.1097  0.6782 -1.2735
 7117TIP3   OH242841   1.698   6.075  14.922 -0.0212  0.1859 -0.3087
 7117TIP3    H142842   1.732   6.155  14.962 -3.0898  1.0152  0.8932
 7117TIP3    H242843   1.685   6.098  14.830 -0.0654  0.7860 -0.1547
 7118TIP3   OH242844   1.352   5.424   5.187  0.3726  0.5972  0.0057
 7118TIP3    H142845   1.429   5.371   5.164 -0.1106 -1.4148  2.5839
 7118TIP3    H242846   1.354   5.430   5.282 -1.4472  2.4795  0.0015
 7119TIP3   OH242847   0.216   0.422   4.095  0.2987 -0.3884 -0.5966
 7119TIP3    H142848   0.298   0.395   4.134  0.4614  0.9148  0.0021
 7119TIP3    H242849   0.156   0.431   4.169 -0.0938 -0.3072 -0.9217
 7120TIP3   OH242850   2.269   0.791  11.477  0.5561  0.0632  0.1324
 7120TIP3    H142851   2.215   0.851  11.529 -0.7759 -0.4388 -0.6115
 7120TIP3    H242852   2.255   0.818  11.387  2.1568  0.3721 -0.0509
 7121TIP3   OH242853   5.164   2.901   5.362  0.7121  0.0331 -0.1583
 7121TIP3    H142854   5.217   2.955   5.420  1.4570 -0.5605 -0.2820
 7121TIP3    H242855   5.122   2.964   5.303 -1.1439  0.7953  1.8358
 7122TIP3   OH242856   2.246   2.282  15.106  0.0707 -0.2264  0.0468
 7122TIP3    H142857   2.203   2.242  15.030  0.8573  0.3866 -0.7461
 7122TIP3    H242858   2.273   2.208  15.161 -0.0375 -0.7026 -0.5343
 7123TIP3   OH242859   0.095   2.847  14.318  0.7973 -0.6031 -0.0913
 7123TIP3    H142860   0.016   2.879  14.275  1.0758  0.4299  0.1505
 7123TIP3    H242861   0.117   2.767  14.270  0.9299  0.3426 -1.6800
 7124TIP3   OH242862   6.807   0.357  16.817 -0.7329 -0.0143  0.1048
 7124TIP3    H142863   6.867   0.294  16.779  0.6178 -0.1509  2.3216
 7124TIP3    H242864   6.835   0.442  16.782  2.4159  0.2545  2.8238
 7125TIP3   OH242865   6.328   0.999  13.535  0.2170 -0.0341  0.0712
 7125TIP3    H142866   6.415   0.975  13.567  1.2213  0.6729 -1.9712
 7125TIP3    H242867   6.345   1.067  13.470 -2.0592  1.8065  1.2588
 7126TIP3   OH242868   2.404   1.347  17.237 -0.5046  0.0413 -0.0625
 7126TIP3    H142869   2.459   1.407  17.186  1.2971 -1.7410 -0.3633
 7126TIP3    H242870   2.447   1.342  17.322  0.8478 -2.5845 -0.8037
 7127TIP3   OH242871   6.344   6.443  12.768 -0.2179  0.5684 -0.4706
 7127TIP3    H142872   6.421   6.487  12.803 -0.9074  2.5676 -1.3303
 7127TIP3    H242873   6.272   6.475  12.823 -0.7052  0.2503 -0.9176
 7128TIP3   OH242874   4.040   2.194  11.525  0.0858 -0.0241 -0.4620
 7128TIP3    H142875   3.973   2.138  11.564  0.5304 -0.5180 -0.3863
 7128TIP3    H242876   4.033   2.177  11.431 -0.5410  0.6618 -0.5428
 7129TIP3   OH242877   1.694   3.518   5.761  0.4838 -0.6599 -0.5349
 7129TIP3    H142878   1.647   3.582   5.814  0.3597 -1.3331  0.1908
 7129TIP3    H242879   1.665   3.534   5.671 -3.0851 -2.5954  0.0819
 7130TIP3   OH242880   6.152   3.864   1.724  0.1530 -0.3110  0.2924
 7130TIP3    H142881   6.082   3.916   1.684 -0.0257 -0.1629  0.7932
 7130TIP3    H242882   6.167   3.793   1.661  0.9259  0.7441 -0.7714
 7131TIP3   OH242883   6.591   6.162   3.360 -0.1828 -0.3233 -0.4208
 7131TIP3    H142884   6.649   6.237   3.364  0.0974 -0.5808  0.4905
 7131TIP3    H242885   6.642   6.094   3.317  0.3289 -0.6555  0.6796
 7132TIP3   OH242886   6.068   6.354   2.305 -0.4170  0.0978 -0.1507
 7132TIP3    H142887   6.013   6.419   2.350 -0.3568 -0.5336  0.8765
 7132TIP3    H242888   6.122   6.406   2.245 -0.9085  0.9197  0.0982
 7133TIP3   OH242889   5.008   0.446   4.166 -0.1381 -0.3442 -0.0876
 7133TIP3    H142890   4.981   0.402   4.247  0.4111 -1.9248 -0.7266
 7133TIP3    H242891   5.098   0.474   4.183 -1.2370  2.8645  1.2069
 7134TIP3   OH242892   3.678   0.548   1.039 -0.4796 -0.3225  0.0410
 7134TIP3    H142893   3.629   0.572   1.117 -0.2139 -0.8414  0.3697
 7134TIP3    H242894   3.750   0.611   1.035 -0.3304 -0.4701  0.3732
 7135TIP3   OH242895   6.718   6.543  10.335  0.4244 -0.2510  0.4362
 7135TIP3    H142896   6.721   6.472  10.400  2.1510  0.6778  1.4313
 7135TIP3    H242897   6.807   6.549  10.301 -0.1869  0.0630 -1.2034
 7136TIP3   OH242898   3.618   4.697  14.910 -0.0214  0.6304  0.3790
 7136TIP3    H142899   3.654   4.749  14.838  1.9858  0.6722  1.3415
 7136TIP3    H242900   3.663   4.612  14.903 -0.5818  0.2836  0.9549
 7137TIP3   OH242901   1.986   1.156  14.480  0.1622 -0.5955 -0.1803
 7137TIP3    H142902   2.070   1.112  14.473  1.1939  1.4391 -1.4320
 7137TIP3    H242903   1.960   1.173  14.390 -1.0955 -0.2922  0.2164
 7138TIP3   OH242904   5.479   3.322   0.103 -0.1869 -0.4506 -0.2345
 7138TIP3    H142905   5.395   3.323   0.057 -0.2716 -1.8399 -0.1411
 7138TIP3    H242906   5.536   3.377   0.049 -0.4634 -1.5429 -1.7009
 7139TIP3   OH242907   5.920   1.446  16.493 -0.3628 -0.0336 -0.8054
 7139TIP3    H142908   5.970   1.395  16.558 -1.7455 -0.8037 -0.3218
 7139TIP3    H242909   5.970   1.435  16.412  0.2855 -0.7604 -0.3348
 7140TIP3   OH242910   5.952   0.925   3.177  0.1217  0.1097 -0.0362
 7140TIP3    H142911   5.920   0.862   3.242 -1.5798  0.8687 -0.0975
 7140TIP3    H242912   6.039   0.949   3.209 -0.5037  0.1779  1.7735
 7141TIP3   OH242913   2.073   3.713  16.796 -0.1815 -0.0161 -0.5549
 7141TIP3    H142914   2.043   3.744  16.881 -1.5201  0.3552 -1.1399
 7141TIP3    H242915   1.994   3.709  16.742  0.9995  3.8475 -3.0649
 7142TIP3   OH242916   5.445   1.827   4.381 -0.5314 -0.2463  0.4762
 7142TIP3    H142917   5.420   1.815   4.473  3.4424 -2.1125  1.5340
 7142TIP3    H242918   5.412   1.750   4.336 -0.3079 -0.6038  0.9181
 7143TIP3   OH242919   4.767   1.537   3.423  0.0117  0.0363  0.5148
 7143TIP3    H142920   4.749   1.608   3.361 -0.1461 -0.0081  0.5080
 7143TIP3    H242921   4.848   1.497   3.391 -0.5302 -0.5419 -0.1828
 7144TIP3   OH242922   1.492   0.278   6.813 -0.0907 -1.0770  0.3763
 7144TIP3    H142923   1.504   0.250   6.722  0.7458 -1.6655  0.6541
 7144TIP3    H242924   1.529   0.366   6.816 -0.0931 -1.0678  0.1495
 7145TIP3   OH242925   4.960   1.674   4.188  0.1020  0.0379  0.3995
 7145TIP3    H142926   4.892   1.608   4.202 -0.8504  0.8544 -0.1955
 7145TIP3    H242927   4.913   1.757   4.188  1.2649  0.7263  1.0631
 7146TIP3   OH242928   0.589   1.634   0.951 -0.3313 -0.1062 -0.3105
 7146TIP3    H142929   0.607   1.725   0.971 -0.7541  0.4766 -2.3348
 7146TIP3    H242930   0.663   1.606   0.896 -0.8826 -0.5463 -0.8478
 7147TIP3   OH242931   1.587   6.702   5.897 -0.1486 -0.2879 -0.2213
 7147TIP3    H142932   1.533   6.778   5.920 -0.6717 -0.6353 -0.2794
 7147TIP3    H242933   1.643   6.689   5.973  0.1236  0.3145 -0.3155
 7148TIP3   OH242934   6.080   1.386  13.923 -0.0165 -0.3622  0.2534
 7148TIP3    H142935   6.098   1.436  14.003  0.0394 -1.5201  0.9844
 7148TIP3    H242936   6.021   1.442  13.872 -1.5616 -0.3794  1.9434
 7149TIP3   OH242937   3.143   1.914  14.905  0.0903  0.0914 -0.1607
 7149TIP3    H142938   3.097   1.833  14.886 -1.7518  0.5693  1.7974
 7149TIP3    H242939   3.174   1.903  14.995 -0.4873  1.6423  0.2574
 7150TIP3   OH242940   6.487   3.018   5.754  0.2126  0.2398 -0.3006
 7150TIP3    H142941   6.578   3.046   5.743 -0.5371  2.3720 -1.7471
 7150TIP3    H242942   6.454   3.073   5.826 -0.1857  0.2197 -0.4650
 7151TIP3   OH242943   6.203   6.185   5.015 -0.3282  0.4221  0.0088
 7151TIP3    H142944   6.123   6.233   5.033  0.1456  1.2558 -0.0652
 7151TIP3    H242945   6.232   6.217   4.930 -1.3414 -1.8413 -1.3029
 7152TIP3   OH242946   4.927   1.038   1.733  1.0220  0.2292  0.3728
 7152TIP3    H142947   4.911   1.074   1.646  0.1037 -0.5125  0.2245
 7152TIP3    H242948   4.845   1.050   1.780  1.5758  0.8048  1.2154
 7153TIP3   OH242949   4.522   0.967  14.331 -0.2837  0.0614  0.1480
 7153TIP3    H142950   4.564   1.029  14.271 -0.5111  1.3466  1.2758
 7153TIP3    H242951   4.437   0.949  14.291  0.0827 -0.1418 -0.5675
 7154TIP3   OH242952   6.711   0.236  14.812 -0.7137 -0.0362  0.4232
 7154TIP3    H142953   6.711   0.188  14.895 -0.4499 -0.6542  0.0731
 7154TIP3    H242954   6.641   0.195  14.761  0.0641 -0.6096 -0.1943
 7155TIP3   OH242955   6.014   6.735  10.402  0.2681  0.3973 -0.6458
 7155TIP3    H142956   6.093   6.707  10.448  1.0208  0.5708 -1.8007
 7155TIP3    H242957   5.943   6.691  10.448  1.1061 -0.4400 -0.1214
 7156TIP3   OH242958   0.907   5.540   4.549  0.4528  0.1621  0.4380
 7156TIP3    H142959   0.917   5.626   4.590  0.1470  0.9897 -1.1350
 7156TIP3    H242960   0.990   5.496   4.566  0.5965  0.7547  1.3040
 7157TIP3   OH242961   1.840   1.747   5.268 -0.0477 -0.1047 -0.6538
 7157TIP3    H142962   1.754   1.746   5.310  0.3160  0.3824  0.1159
 7157TIP3    H242963   1.890   1.812   5.317  0.2812  0.7484 -2.0671
 7158TIP3   OH242964   5.257   4.804  12.473 -0.4659 -0.1292  1.1530
 7158TIP3    H142965   5.302   4.847  12.546 -0.4256 -1.3293  1.8558
 7158TIP3    H242966   5.265   4.711  12.491 -0.8690 -0.4383 -0.1531
 7159TIP3   OH242967   0.282   1.974   7.012 -0.5082  0.0823  0.2100
 7159TIP3    H142968   0.286   1.916   6.936  1.2418 -0.5113  0.6923
 7159TIP3    H242969   0.368   2.017   7.014 -0.7482  0.5607  1.4817
 7160TIP3   OH242970   2.187   3.925   0.092  0.0729 -0.2850  0.3713
 7160TIP3    H142971   2.195   3.830   0.089  1.1399 -0.2254 -2.8717
 7160TIP3    H242972   2.098   3.942   0.061  0.5780 -0.2527 -1.1548
 7161TIP3   OH242973   3.196   4.529   5.982  0.6811 -0.2569 -0.7805
 7161TIP3    H142974   3.270   4.508   5.925  0.1337  0.5268 -1.8272
 7161TIP3    H242975   3.167   4.616   5.952  0.8944  0.5798  1.2775
 7162TIP3   OH242976   5.029   0.958  16.567  0.3289  0.1751 -0.4479
 7162TIP3    H142977   5.018   1.010  16.647 -2.0181 -0.4468 -0.2863
 7162TIP3    H242978   5.055   0.872  16.598  2.2867  0.6800 -0.5895
 7163TIP3   OH242979   3.717   4.322   3.145  0.3269  0.0052 -0.2003
 7163TIP3    H142980   3.742   4.360   3.229 -1.3142  2.7192 -0.7753
 7163TIP3    H242981   3.660   4.249   3.168  1.3246 -0.4295  1.0120
 7164TIP3   OH242982   3.124   5.178  14.855  0.0246  0.4727  0.0269
 7164TIP3    H142983   3.211   5.163  14.816 -0.1041  1.5108 -0.7132
 7164TIP3    H242984   3.078   5.096  14.842  0.7965  0.0092  0.1419
 7165TIP3   OH242985   2.466   3.788  16.418  0.0689  0.0987 -0.0906
 7165TIP3    H142986   2.454   3.709  16.470 -0.7248  0.1465 -0.1854
 7165TIP3    H242987   2.378   3.824  16.409  0.4272  1.0254  0.0004
 7166TIP3   OH242988   1.790   0.497  15.804 -0.0155 -0.5900  0.0803
 7166TIP3    H142989   1.812   0.439  15.878  1.4300 -0.3307 -0.1169
 7166TIP3    H242990   1.809   0.444  15.726  0.1830 -0.2608 -0.0966
 7167TIP3   OH242991   3.985   0.326  15.077 -0.3960  0.0138 -0.7198
 7167TIP3    H142992   3.963   0.380  15.001 -0.6122  1.0789  0.0760
 7167TIP3    H242993   3.939   0.368  15.150  0.4833 -0.4991  0.1463
 7168TIP3   OH242994   5.971   3.019  12.057  0.1787 -0.1381  0.0055
 7168TIP3    H142995   5.899   2.973  12.012  1.2445  1.2218 -3.3645
 7168TIP3    H242996   6.027   2.948  12.089 -1.3397 -1.1800  0.5377
 7169TIP3   OH242997   4.839   1.279   5.253  0.1189  0.6880  0.1094
 7169TIP3    H142998   4.829   1.371   5.278 -0.8336  0.9726 -1.2290
 7169TIP3    H242999   4.930   1.259   5.275  0.5885  2.1865 -0.2860
 7170TIP3   OH243000   5.330   2.646  13.391  0.1670 -1.0719 -0.4239
 7170TIP3    H143001   5.304   2.596  13.314  1.1244 -1.7094 -0.3439
 7170TIP3    H243002   5.347   2.580  13.458 -3.6911 -0.4604  1.3883
 7171TIP3   OH243003   4.481   2.564  14.288  0.0105  0.6876 -0.4554
 7171TIP3    H143004   4.399   2.515  14.284 -0.9743  2.1789  0.7057
 7171TIP3    H243005   4.468   2.638  14.229  0.3242  1.2015  0.1093
 7172TIP3   OH243006   3.560   0.020  14.766 -0.1854 -0.2647  0.6257
 7172TIP3    H143007   3.583  -0.072  14.775  1.5297  0.0936  0.1320
 7172TIP3    H243008   3.560   0.036  14.672  1.8804  0.7726  0.7540
 7173TIP3   OH243009   1.782   5.097  12.207 -0.0975 -0.0932 -0.0401
 7173TIP3    H143010   1.783   5.191  12.187 -0.4933  0.6362  2.8488
 7173TIP3    H243011   1.740   5.057  12.131 -1.4670  2.2893 -0.6551
 7174TIP3   OH243012   5.371   0.803  16.173 -0.6233 -0.4756  0.5612
 7174TIP3    H143013   5.401   0.811  16.264 -0.1755  0.7484  0.3297
 7174TIP3    H243014   5.417   0.725  16.140  1.7389  0.8439  0.4779
 7175TIP3   OH243015   5.274   3.162   6.559  0.3829 -0.5229 -0.0250
 7175TIP3    H143016   5.269   3.072   6.592  0.0460 -0.2517  0.7035
 7175TIP3    H243017   5.367   3.177   6.544  0.5135 -0.7619  0.5185
 7176TIP3   OH243018   4.247   1.160  16.105  0.2182  0.4199  0.2588
 7176TIP3    H143019   4.239   1.071  16.139 -0.5692  0.7345  0.9454
 7176TIP3    H243020   4.339   1.182  16.116  0.1919  0.1048  1.1441
 7177TIP3   OH243021   3.278   6.487   1.619  0.1926 -0.2073 -0.1944
 7177TIP3    H143022   3.318   6.511   1.536 -0.2402 -1.9289 -0.9511
 7177TIP3    H243023   3.186   6.472   1.598  0.1667 -1.1052  0.4914
 7178TIP3   OH243024   3.163   2.260   3.985 -0.2338 -0.1119  0.6784
 7178TIP3    H143025   3.183   2.348   4.015 -0.9376  0.3274 -0.0982
 7178TIP3    H243026   3.093   2.230   4.044 -1.9269  0.9193 -0.7114
 7179TIP3   OH243027   2.436   1.849  15.764 -0.0356  0.1749 -0.3082
 7179TIP3    H143028   2.516   1.882  15.723 -0.5963  0.1520 -1.4580
 7179TIP3    H243029   2.459   1.761  15.794  0.1199 -0.1763 -1.4340
 7180TIP3   OH243030   2.964   4.954   4.855  0.7073 -0.1286 -0.6054
 7180TIP3    H143031   3.052   4.991   4.854 -0.0433  1.7753 -1.6256
 7180TIP3    H243032   2.930   4.977   4.942  0.8671  0.0280 -0.5829
 7181TIP3   OH243033   3.375   1.407  16.091  0.5435 -0.2692 -0.5285
 7181TIP3    H143034   3.454   1.356  16.108  0.4770 -0.4135 -0.6508
 7181TIP3    H243035   3.326   1.403  16.173  0.7646  0.0023 -0.3838
 7182TIP3   OH243036   3.968   3.811  15.060 -0.0415 -0.9866 -0.0871
 7182TIP3    H143037   3.986   3.726  15.020  0.6627  0.1451 -2.4119
 7182TIP3    H243038   4.032   3.819  15.131 -0.1081 -2.3655  0.1429
 7183TIP3   OH243039   5.680   4.452  13.118  0.2286  0.2259  0.9796
 7183TIP3    H143040   5.638   4.401  13.187 -1.7560 -0.3778 -0.5588
 7183TIP3    H243041   5.623   4.529  13.107 -0.8738 -0.8285 -1.4586
 7184TIP3   OH243042   0.134   0.289   1.472  0.8129 -0.3606 -0.4112
 7184TIP3    H143043   0.098   0.205   1.444  0.8317 -0.3557 -0.4511
 7184TIP3    H243044   0.123   0.290   1.567  1.2672 -0.6221 -0.3533
 7185TIP3   OH243045   0.390   6.220   6.048  1.0461  0.7398 -0.1136
 7185TIP3    H143046   0.357   6.136   6.080  1.5100 -0.7064 -3.1016
 7185TIP3    H243047   0.463   6.241   6.106  0.2044 -0.2957  1.3971
 7186TIP3   OH243048   5.245   6.617  15.449 -0.0926 -0.6498 -1.1550
 7186TIP3    H143049   5.291   6.611  15.365  0.2302 -3.7177 -0.8618
 7186TIP3    H243050   5.162   6.661  15.427  0.9113  0.6548 -2.5807
 7187TIP3   OH243051   3.329   4.398  17.208  0.3302  0.1599 -0.1345
 7187TIP3    H143052   3.369   4.330  17.153 -1.0247 -1.1490  0.4338
 7187TIP3    H243053   3.239   4.369  17.220 -0.0690  1.6732  0.7993
 7188TIP3   OH243054   1.055   3.616  11.332 -0.0602 -0.1150 -0.2328
 7188TIP3    H143055   1.003   3.584  11.406  1.1660  0.8791  1.0999
 7188TIP3    H243056   1.113   3.543  11.310  0.6577  0.1167  0.8319
 7189TIP3   OH243057   4.996   2.132  12.739 -0.1337  0.3219  0.2248
 7189TIP3    H143058   5.065   2.160  12.679  0.7545 -0.8492  0.6613
 7189TIP3    H243059   4.917   2.174  12.706  0.6408  1.0467 -0.7625
 7190TIP3   OH243060   2.082   4.107   1.049 -0.0118  0.4923  0.2974
 7190TIP3    H143061   1.987   4.108   1.056 -0.1617 -0.6962 -0.9787
 7190TIP3    H243062   2.099   4.129   0.957  0.9192  0.4271  0.4466
 7191TIP3   OH243063   2.019   2.947   2.657  0.2588 -0.1059 -0.0867
 7191TIP3    H143064   1.955   2.897   2.607  0.0214 -1.4744  1.4951
 7191TIP3    H243065   2.065   3.000   2.592 -0.9797 -0.7483 -1.5351
 7192TIP3   OH243066   0.979   2.876  14.901 -0.2719 -0.1351 -0.4030
 7192TIP3    H143067   0.898   2.895  14.948  0.3530 -0.3541  0.7919
 7192TIP3    H243068   0.951   2.861  14.811 -1.3994  1.1401 -0.2921
 7193TIP3   OH243069   4.294   1.121   5.904  0.6758 -0.3050  0.0548
 7193TIP3    H143070   4.319   1.121   5.811  0.8086 -4.1296 -0.0814
 7193TIP3    H243071   4.198   1.127   5.903  0.6917 -0.0872 -0.3186
 7194TIP3   OH243072   0.585   6.307  14.048  0.7091 -0.7298 -0.6580
 7194TIP3    H143073   0.615   6.349  13.968 -1.4021  2.7068  0.1294
 7194TIP3    H243074   0.529   6.235  14.019  0.2470  0.2378 -2.2710
 7195TIP3   OH243075   5.756   1.791   4.175  0.2961 -0.0103  0.1282
 7195TIP3    H143076   5.662   1.791   4.156  0.2727  0.9272  0.1880
 7195TIP3    H243077   5.766   1.857   4.244  0.8492 -0.9238  0.9457
 7196TIP3   OH243078   4.887   5.372  17.191  0.3436 -0.1656 -0.5422
 7196TIP3    H143079   4.840   5.359  17.109  0.2692  0.3748 -0.5865
 7196TIP3    H243080   4.901   5.466  17.196 -2.9658  0.3585  1.8622
 7197TIP3   OH243081   4.255   4.998  14.399 -0.1509 -0.1880 -0.3392
 7197TIP3    H143082   4.345   5.010  14.429  0.3098 -0.2217 -1.6303
 7197TIP3    H243083   4.206   4.979  14.478  0.7759  0.8936  0.5478
 7198TIP3   OH243084   5.151   2.299   4.171 -0.5799 -0.2980 -0.1384
 7198TIP3    H143085   5.244   2.306   4.151 -0.6056 -0.4971 -0.3262
 7198TIP3    H243086   5.144   2.331   4.261 -0.2244 -0.9060  0.1188
 7199TIP3   OH243087   1.932   2.664   1.426  0.5522  0.5101 -0.0964
 7199TIP3    H143088   1.913   2.680   1.519 -1.4407  0.4653 -0.4529
 7199TIP3    H243089   1.881   2.587   1.404  1.0521  0.4835 -1.2358
 7200TIP3   OH243090   0.847   0.281  12.872  0.8488 -0.0916 -0.1675
 7200TIP3    H143091   0.858   0.243  12.785  2.4008  1.0698 -0.5163
 7200TIP3    H243092   0.904   0.228  12.928  1.1233  0.1897 -0.1807
 7201TIP3   OH243093   6.525   0.058  14.701  0.2302  0.2304 -0.5244
 7201TIP3    H143094   6.450   0.015  14.660 -0.7828  2.0505 -0.7217
 7201TIP3    H243095   6.540   0.009  14.782  0.5335 -1.7550 -1.7297
 7202TIP3   OH243096   0.905   1.860  14.059 -0.1698 -0.1500  0.0926
 7202TIP3    H143097   0.859   1.869  14.142  2.0989  0.5852  1.3512
 7202TIP3    H243098   0.994   1.887  14.078  0.9216 -1.8441 -2.1217
 7203TIP3   OH243099   3.695   5.531  14.034  0.3475  0.3657  0.1926
 7203TIP3    H143100   3.683   5.481  13.953 -2.7342 -0.9257  1.3001
 7203TIP3    H243101   3.713   5.465  14.101  0.8915  1.2137  0.9078
 7204TIP3   OH243102   1.656   6.321  11.423  1.1347 -0.0509 -0.3511
 7204TIP3    H143103   1.710   6.397  11.400  0.9213 -0.5155 -2.6175
 7204TIP3    H243104   1.637   6.279  11.339 -2.4402 -0.1506  0.3548
 7205TIP3   OH243105   5.069   2.837  15.737 -0.3831 -0.1363  0.5632
 7205TIP3    H143106   5.064   2.920  15.690  2.2960  0.1651  0.6542
 7205TIP3    H243107   5.058   2.770  15.670 -1.6241  0.2655  0.3431
 7206TIP3   OH243108   2.661   6.705   4.316  0.5989 -0.2390 -0.4714
 7206TIP3    H143109   2.732   6.765   4.295  0.5323  0.1637  0.3763
 7206TIP3    H243110   2.621   6.683   4.232 -0.5908  2.4100 -0.7209
 7207TIP3   OH243111   4.656   3.163  12.294 -0.2941 -0.5385 -0.3665
 7207TIP3    H143112   4.707   3.119  12.225  0.4142  1.3755 -1.1339
 7207TIP3    H243113   4.685   3.122  12.375 -0.2835 -2.0541 -1.1043
 7208TIP3   OH243114   5.888   6.553  16.715  0.2966  0.0686 -0.2590
 7208TIP3    H143115   5.824   6.581  16.781  0.4442  0.0912 -0.1255
 7208TIP3    H243116   5.855   6.468  16.684  1.5131 -1.1443  1.5963
 7209TIP3   OH243117   4.499   4.652   3.605 -0.0947 -0.2334 -0.4796
 7209TIP3    H143118   4.499   4.591   3.531 -1.0864  0.6211 -1.1945
 7209TIP3    H243119   4.518   4.737   3.566  2.2065 -0.1672  0.6288
 7210TIP3   OH243120   5.320   5.304   4.469  0.1515  0.3103 -0.2977
 7210TIP3    H143121   5.381   5.352   4.524  1.1451 -1.9928  0.7672
 7210TIP3    H243122   5.357   5.309   4.381  0.5359  0.9966 -0.0985
 7211TIP3   OH243123   4.566   2.025   2.505 -0.0062 -0.0071 -0.4597
 7211TIP3    H143124   4.616   2.090   2.456 -1.1192  0.2396 -1.3049
 7211TIP3    H243125   4.628   1.992   2.570 -0.0299  3.5002  1.5490
 7212TIP3   OH243126   3.602   1.098  13.530 -0.1182 -0.1505  0.4335
 7212TIP3    H143127   3.549   1.127  13.456  0.2238 -2.4116 -0.7798
 7212TIP3    H243128   3.543   1.103  13.605 -1.1823  0.0519 -0.3951
 7213TIP3   OH243129   0.883   6.025  13.170 -0.0189  0.1587  0.1060
 7213TIP3    H143130   0.880   5.977  13.253  0.9760  1.3840  0.8927
 7213TIP3    H243131   0.976   6.029  13.149 -0.1722  0.9074 -0.4350
 7214TIP3   OH243132   1.783   3.826   5.964  0.3450  0.1540  0.3215
 7214TIP3    H143133   1.797   3.880   6.042  4.0568 -0.4649  0.2666
 7214TIP3    H243134   1.868   3.783   5.950 -1.5246 -3.3493 -1.4080
 7215TIP3   OH243135   1.712   4.608  16.542 -1.0173  0.2431  0.9926
 7215TIP3    H143136   1.788   4.592  16.597  0.3062  0.5933 -0.6474
 7215TIP3    H243137   1.672   4.522  16.530  0.8879 -0.5034 -0.5500
 7216TIP3   OH243138   5.278   2.764  15.926  0.1392 -0.5403  0.6826
 7216TIP3    H143139   5.303   2.680  15.886  2.0840  0.2390  0.1389
 7216TIP3    H243140   5.247   2.817  15.852  1.7749  0.2027  0.4907
 7217TIP3   OH243141   6.282   3.277   5.765 -0.5383  0.2316  0.3186
 7217TIP3    H143142   6.297   3.314   5.852  1.0120  2.5484 -0.8309
 7217TIP3    H243143   6.297   3.350   5.705 -0.9418 -1.4408 -1.9495
 7218TIP3   OH243144   5.883   1.316   1.494 -0.2356 -0.1018  0.5365
 7218TIP3    H143145   5.915   1.259   1.564  1.6864  0.5187  0.2273
 7218TIP3    H243146   5.891   1.404   1.529 -1.2406  0.1048  0.2684
 7219TIP3   OH243147   3.602   2.185  13.046 -0.5676  0.3822  0.6209
 7219TIP3    H143148   3.600   2.156  12.955  0.3520  3.4433 -0.4996
 7219TIP3    H243149   3.519   2.230  13.059 -0.5486  0.2608  1.1929
 7220TIP3   OH243150   6.635   3.459  10.891  0.2818  0.1754  0.1524
 7220TIP3    H143151   6.640   3.373  10.934  0.4278  0.8553  1.5326
 7220TIP3    H243152   6.726   3.486  10.881  0.2648 -0.1028 -0.8946
 7221TIP3   OH243153   0.786   1.339  15.931  0.0296 -0.1587  0.2107
 7221TIP3    H143154   0.774   1.245  15.918  3.7461 -1.0283  1.9169
 7221TIP3    H243155   0.803   1.374  15.843  0.7114 -1.4901 -0.2066
 7222TIP3   OH243156   3.162   0.014  13.805 -0.1834 -0.1450 -0.4812
 7222TIP3    H143157   3.067   0.013  13.813 -0.3906 -2.2171 -2.3150
 7222TIP3    H243158   3.180  -0.036  13.725  2.4389  0.5411 -0.4129
 7223TIP3   OH243159   5.434   2.804   2.418 -0.1373  0.6255 -0.6260
 7223TIP3    H143160   5.508   2.745   2.435  0.0669  0.0023 -3.2905
 7223TIP3    H243161   5.462   2.889   2.451  0.6057 -0.1884  0.9333
 7224TIP3   OH243162   1.409   5.468  16.388  0.0082 -0.3672 -0.7867
 7224TIP3    H143163   1.465   5.425  16.323  0.0168  0.4901 -1.3677
 7224TIP3    H243164   1.463   5.473  16.467  1.4532  1.9947 -1.8206
 7225TIP3   OH243165   1.816   0.905  15.665  0.1526  0.1208  0.3097
 7225TIP3    H143166   1.901   0.939  15.635  0.5968  0.1671  1.5806
 7225TIP3    H243167   1.808   0.819  15.622  1.5732 -0.5785  1.3729
 7226TIP3   OH243168   2.706   3.057  14.671  0.3208  0.0147 -0.1722
 7226TIP3    H143169   2.681   2.965  14.686  0.7681  0.0610  1.0104
 7226TIP3    H243170   2.778   3.072  14.733  0.1540  1.2041 -0.2478
 7227TIP3   OH243171   2.963   4.187  14.351 -0.0466 -0.4285  0.5112
 7227TIP3    H143172   3.013   4.175  14.431 -1.1813  0.8298  1.4618
 7227TIP3    H243173   2.882   4.137  14.365  1.2527 -3.3286 -1.4306
 7228TIP3   OH243174   0.310   0.905   4.409 -0.2423  0.2732 -0.0792
 7228TIP3    H143175   0.404   0.911   4.395 -0.4611  0.9251 -1.4768
 7228TIP3    H243176   0.298   0.921   4.502  0.9917  0.5475  0.0471
 7229TIP3   OH243177   4.736   5.676   3.007 -0.3139 -0.2270  0.2230
 7229TIP3    H143178   4.745   5.714   2.919 -1.3544 -1.4508 -0.4483
 7229TIP3    H243179   4.816   5.701   3.052  0.5845 -0.1805 -1.3173
 7230TIP3   OH243180   0.969   6.734   0.201 -0.4254  0.2789  0.2444
 7230TIP3    H143181   0.958   6.651   0.248 -2.0242  0.1467 -0.2933
 7230TIP3    H243182   0.983   6.799   0.270 -1.3240 -0.1181  0.8227
 7231TIP3   OH243183   0.735   2.868  13.722  0.3395  0.3434  0.3671
 7231TIP3    H143184   0.790   2.809  13.773 -1.1130 -1.0081  0.4573
 7231TIP3    H243185   0.796   2.923  13.674  1.7596  0.7019  2.4445
 7232TIP3   OH243186   1.806   0.702  13.057 -0.4061  0.1682  0.0658
 7232TIP3    H143187   1.890   0.739  13.033  1.1697 -1.9839  1.8593
 7232TIP3    H243188   1.760   0.772  13.103  1.1289  0.8482  0.5937
 7233TIP3   OH243189   0.006   6.802  16.892 -0.2351  0.0355  0.0564
 7233TIP3    H143190   0.019   6.774  16.802  1.0855 -0.9454  0.5093
 7233TIP3    H243191   0.092   6.836  16.919 -0.4997 -0.0415  1.0545
 7234TIP3   OH243192   3.106   0.533  14.507  0.0814  0.5210 -0.0511
 7234TIP3    H143193   3.182   0.586  14.485  0.5210 -0.8327 -1.9873
 7234TIP3    H243194   3.141   0.458  14.555  0.0449 -0.2525 -1.1929
 7235TIP3   OH243195   2.689   0.416   3.000 -0.2648  0.0561  0.1112
 7235TIP3    H143196   2.614   0.378   3.047  1.4395 -1.0517  2.1025
 7235TIP3    H243197   2.716   0.489   3.055 -0.2526  0.8548 -0.9379
 7236TIP3   OH243198   6.558   2.283   5.729  0.0681 -0.3655 -0.4376
 7236TIP3    H143199   6.576   2.325   5.813  2.0686  0.0582 -1.0113
 7236TIP3    H243200   6.563   2.190   5.747 -0.9288 -0.3035  0.1791
 7237TIP3   OH243201   3.673   1.468  15.104  0.3786 -0.0967  0.0866
 7237TIP3    H143202   3.767   1.453  15.113  0.3740 -0.3664 -0.3171
 7237TIP3    H243203   3.640   1.468  15.194  0.8659  0.7065  0.2742
 7238TIP3   OH243204   1.028   0.387   0.005  0.1882 -0.5510  0.5176
 7238TIP3    H143205   1.105   0.444   0.007  1.4879 -2.0157 -2.1975
 7238TIP3    H243206   1.057   0.309  -0.042 -3.0803 -0.9645 -1.1208
 7239TIP3   OH243207   0.876   1.474   0.892 -0.2387  0.1822  0.0200
 7239TIP3    H143208   0.914   1.559   0.913 -1.5457  0.7197  0.3481
 7239TIP3    H243209   0.884   1.468   0.796  0.5158  0.3388  0.0676
 7240TIP3   OH243210   1.974   5.538   6.557  0.2761 -0.4729 -0.4710
 7240TIP3    H143211   1.901   5.600   6.560  0.7676  0.1779 -1.2532
 7240TIP3    H243212   1.954   5.473   6.624  0.7597  1.6525  1.8664
 7241TIP3   OH243213   6.703   0.525   3.109  0.1109  0.4144 -0.0257
 7241TIP3    H143214   6.718   0.595   3.173  1.3496  1.7981 -1.7252
 7241TIP3    H243215   6.791   0.498   3.083 -0.3722 -0.4021 -0.8535
 7242TIP3   OH243216   3.138   3.870  16.416 -0.1297 -0.1105 -0.0205
 7242TIP3    H143217   3.089   3.874  16.499  0.8705 -1.5250  0.6629
 7242TIP3    H243218   3.070   3.869  16.349 -1.1073 -1.9130  0.9078
 7243TIP3   OH243219   5.310   2.355  11.424 -0.2253  0.6771  0.1906
 7243TIP3    H143220   5.391   2.308  11.445  0.3871  1.6697  0.0847
 7243TIP3    H243221   5.290   2.405  11.504 -1.3075 -0.3421  0.5909
 7244TIP3   OH243222   6.486   0.490   4.885  0.1478 -0.2149 -0.6795
 7244TIP3    H143223   6.501   0.518   4.976 -0.4182  0.8799 -0.9126
 7244TIP3    H243224   6.540   0.549   4.833 -0.5358  0.0132 -1.1355
 7245TIP3   OH243225   3.319   1.492  11.213 -0.5156  0.6958 -0.3130
 7245TIP3    H143226   3.411   1.519  11.212 -0.2347 -0.2428 -1.0860
 7245TIP3    H243227   3.317   1.413  11.159 -1.3425 -0.7422  1.6889
 7246TIP3   OH243228   0.111   2.340  15.057  0.7349 -0.3403  0.2075
 7246TIP3    H143229   0.045   2.278  15.023  2.0417 -0.5045 -2.2892
 7246TIP3    H243230   0.195   2.298  15.038  1.6663 -0.4406  3.9210
 7247TIP3   OH243231   0.133   6.359  14.952 -0.1151 -0.3058  0.1174
 7247TIP3    H143232   0.057   6.407  14.919 -0.6426 -1.8854 -1.1386
 7247TIP3    H243233   0.122   6.356  15.047 -0.4138  1.4129  0.1560
 7248TIP3   OH243234   4.965   1.372   3.682 -0.1084  0.2782  0.4134
 7248TIP3    H143235   4.889   1.342   3.633 -0.9924  3.0641 -0.0842
 7248TIP3    H243236   4.946   1.349   3.773 -0.4591 -1.0548  0.0289
 7249TIP3   OH243237   0.383   3.554  15.269 -0.3240 -0.6576  0.0574
 7249TIP3    H143238   0.345   3.483  15.218  1.5327  0.7771 -3.7322
 7249TIP3    H243239   0.464   3.575  15.224  0.0777  2.7531  2.0066
 7250TIP3   OH243240   3.646   3.018   1.777  0.0724 -0.5999  0.2874
 7250TIP3    H143241   3.692   3.042   1.696  0.7552  1.3090  1.1891
 7250TIP3    H243242   3.713   2.976   1.831  0.3841  0.7384  0.9721
 7251TIP3   OH243243   5.739   5.298  16.016  0.0356  0.3215  0.4870
 7251TIP3    H143244   5.834   5.291  16.020  0.1934  2.3594  1.5622
 7251TIP3    H243245   5.710   5.211  15.989  2.0630 -0.9299  2.0378
 7252TIP3   OH243246   4.005   1.007   3.965  0.2022  0.1444  1.0260
 7252TIP3    H143247   3.990   1.052   4.048  1.6823  0.5431  1.1001
 7252TIP3    H243248   4.044   1.073   3.908 -1.8959  0.2232 -0.4258
 7253TIP3   OH243249   1.498   1.890   1.701  0.0227  0.1216  0.3371
 7253TIP3    H143250   1.574   1.899   1.760 -1.5562 -1.7645  2.8770
 7253TIP3    H243251   1.493   1.796   1.684 -0.1986  0.5233 -2.0754
 7254TIP3   OH243252   0.083   4.758   0.167 -1.0129  0.5626 -0.5088
 7254TIP3    H143253   0.104   4.745   0.260 -4.4511  1.2178  0.4791
 7254TIP3    H243254   0.164   4.795   0.131  0.4246  0.4244  2.2236
 7255TIP3   OH243255   0.848   2.086  17.141 -0.0629  0.1557 -0.2476
 7255TIP3    H143256   0.800   2.031  17.079 -0.8420  1.1668 -0.5648
 7255TIP3    H243257   0.860   2.031  17.218 -0.2837 -0.6624 -0.7901
 7256TIP3   OH243258   3.235   2.841   1.760  0.1523 -0.1134  0.0976
 7256TIP3    H143259   3.236   2.883   1.846  0.4028  0.5110 -0.2043
 7256TIP3    H243260   3.272   2.907   1.701  2.2702 -1.4234 -0.1066
 7257TIP3   OH243261   4.544   1.472   5.931  0.0760  0.0045  0.2923
 7257TIP3    H143262   4.636   1.461   5.907  0.1182  1.1570 -0.1062
 7257TIP3    H243263   4.530   1.406   5.999  1.6663  0.9335  1.6049
 7258TIP3   OH243264   5.550   0.830  15.619 -0.2216 -0.2275  0.3294
 7258TIP3    H143265   5.556   0.879  15.537  0.3173 -0.3614  0.2818
 7258TIP3    H243266   5.632   0.781  15.623 -1.2009 -1.9947 -0.1786
 7259TIP3   OH243267   6.245   0.209   1.199 -0.0550  0.5665 -0.2045
 7259TIP3    H143268   6.297   0.231   1.122 -0.7943 -0.5198 -1.0324
 7259TIP3    H243269   6.227   0.115   1.190 -0.9896  0.6348  0.7737
 7260TIP3   OH243270   4.233   5.927  12.952 -0.3952  0.1572  0.0311
 7260TIP3    H143271   4.204   6.014  12.924  0.1378  0.3799  0.1749
 7260TIP3    H243272   4.323   5.920  12.922 -0.7189 -0.7104 -0.7912
 7261TIP3   OH243273   0.619   2.237  16.734 -0.3292  0.3597 -0.0199
 7261TIP3    H143274   0.664   2.321  16.737  1.0654 -0.2097 -2.5653
 7261TIP3    H243275   0.689   2.172  16.724 -1.4996 -0.8609 -0.6050
 7262TIP3   OH243276   4.090   0.278   4.425  0.4786 -0.0502  0.6278
 7262TIP3    H143277   4.018   0.316   4.475 -1.5297 -0.9842 -1.3970
 7262TIP3    H243278   4.073   0.303   4.334  2.2558 -0.9934 -0.0177
 7263TIP3   OH243279   2.683   1.856   5.454 -0.4963  0.3841  0.0656
 7263TIP3    H143280   2.767   1.861   5.499 -1.6054 -0.2322  2.3473
 7263TIP3    H243281   2.685   1.928   5.391  1.6856  0.4145  0.0751
 7264TIP3   OH243282   3.171   1.998  11.763 -0.4403  0.5492 -0.1746
 7264TIP3    H143283   3.134   1.971  11.847  2.0876  1.2138  1.2438
 7264TIP3    H243284   3.165   1.920  11.708  0.3810 -0.7908  1.5447
 7265TIP3   OH243285   2.245   1.955  12.252  0.4975 -0.3308  0.4771
 7265TIP3    H143286   2.309   2.017  12.218  1.8315 -2.0757 -0.3679
 7265TIP3    H243287   2.289   1.870  12.248 -2.3845 -1.9106 -1.7728
 7266TIP3   OH243288   5.528   0.451  17.083 -0.5930  0.6426  0.1976
 7266TIP3    H143289   5.558   0.495  17.162  1.4492  0.2706 -0.3283
 7266TIP3    H243290   5.583   0.373  17.076 -1.5200  0.0546 -0.9854
 7267TIP3   OH243291   1.223   4.811   1.998 -0.3998 -0.2950 -0.0590
 7267TIP3    H143292   1.163   4.801   2.073 -0.0994  2.4697  0.6750
 7267TIP3    H243293   1.304   4.771   2.028 -0.7973 -0.7875  0.3937
 7268TIP3   OH243294   2.493   0.671  11.146  0.4811  0.4474  0.0214
 7268TIP3    H143295   2.511   0.600  11.084 -0.7250 -0.2540  0.4451
 7268TIP3    H243296   2.526   0.638  11.230 -1.7867 -0.4765  0.6201
 7269TIP3   OH243297   4.057   4.643  16.522 -0.5247 -0.0026  0.0995
 7269TIP3    H143298   3.965   4.652  16.547 -0.9098 -1.3637 -0.6866
 7269TIP3    H243299   4.106   4.675  16.597 -1.6223  1.9082  0.0733
 7270TIP3   OH243300   5.403   4.113   4.462 -0.4692  0.0670  0.1815
 7270TIP3    H143301   5.348   4.060   4.404 -1.6930  0.6609  0.7869
 7270TIP3    H243302   5.452   4.170   4.403 -2.6449  1.5790 -0.2645
 7271TIP3   OH243303   3.552   4.431   0.056  0.0524  0.4261  0.0199
 7271TIP3    H143304   3.612   4.495   0.018 -0.3361  0.0343 -1.3177
 7271TIP3    H243305   3.483   4.421  -0.010 -0.5901 -0.3847  0.7894
 7272TIP3   OH243306   3.736   0.216   4.399  0.4143 -0.2917  0.2497
 7272TIP3    H143307   3.717   0.216   4.492  0.7885 -0.7835  0.3342
 7272TIP3    H243308   3.771   0.128   4.382 -1.7502 -1.0329 -0.7923
 7273TIP3   OH243309   3.717   4.354  12.068  0.0700 -0.1575  0.3975
 7273TIP3    H143310   3.751   4.375  12.155 -0.1181  2.0294  0.0186
 7273TIP3    H243311   3.623   4.370  12.075  0.3091  2.0953 -0.6767
 7274TIP3   OH243312   3.889   2.723  15.870 -0.4704  0.4991 -0.0541
 7274TIP3    H143313   3.883   2.708  15.776 -0.5183  0.0276  0.0251
 7274TIP3    H243314   3.983   2.729  15.887 -0.3575 -1.4109  0.1738
 7275TIP3   OH243315   3.803   2.129   4.526  0.1722  0.3973 -0.0570
 7275TIP3    H143316   3.740   2.078   4.578  1.5681  0.0599  1.3665
 7275TIP3    H243317   3.749   2.194   4.481 -1.0590  1.2687  2.4673
 7276TIP3   OH243318   0.936   5.374  13.690  0.2313 -0.2756 -0.6725
 7276TIP3    H143319   0.958   5.337  13.775 -2.1582  2.2406  1.2275
 7276TIP3    H243320   0.888   5.305  13.645  0.5233 -1.2522  0.4689
 7277TIP3   OH243321   0.801   5.351   4.216 -0.0117  0.2769  0.4116
 7277TIP3    H143322   0.706   5.353   4.217 -0.0148  2.4712  2.0495
 7277TIP3    H243323   0.824   5.295   4.290  0.0025 -0.5473 -0.2015
 7278TIP3   OH243324   2.219   3.569   1.148 -0.1013 -0.1518 -0.2424
 7278TIP3    H143325   2.296   3.623   1.169 -0.3184 -0.3194  1.0860
 7278TIP3    H243326   2.235   3.486   1.193 -1.5997  0.2453  1.1109
 7279TIP3   OH243327   0.404   2.442   4.683  0.2277  0.7502  0.1695
 7279TIP3    H143328   0.353   2.516   4.649 -2.3153 -1.5174 -1.3410
 7279TIP3    H243329   0.397   2.451   4.778 -0.0254  2.4171  0.0403
 7280TIP3   OH243330   2.753   6.080   4.337  0.0097 -0.0288  0.2895
 7280TIP3    H143331   2.661   6.100   4.354 -0.3242 -1.6822  0.5925
 7280TIP3    H243332   2.791   6.070   4.424  0.8505  2.0181  0.2188
 7281TIP3   OH243333   1.920   2.300   5.201 -0.4791  0.3421  0.2349
 7281TIP3    H143334   1.955   2.380   5.162 -1.9024  0.0694 -1.7906
 7281TIP3    H243335   1.995   2.241   5.207  0.1250  1.0029 -0.5519
 7282TIP3   OH243336   0.054   5.010  16.831 -0.3269  0.6313  0.3097
 7282TIP3    H143337   0.149   5.022  16.841 -0.0977 -0.1999 -0.6686
 7282TIP3    H243338   0.037   5.036  16.740 -0.9826  0.4488  0.3791
 7283TIP3   OH243339   0.224   1.270   2.075  0.0889  0.0902  0.4322
 7283TIP3    H143340   0.318   1.274   2.058 -0.1701 -1.1620 -1.7869
 7283TIP3    H243341   0.216   1.250   2.168  1.9823  1.1429  0.8531
 7284TIP3   OH243342   1.659   5.759  12.831  0.0476  0.0527  0.2921
 7284TIP3    H143343   1.571   5.756  12.794  0.5879  0.3534 -1.0803
 7284TIP3    H243344   1.683   5.852  12.827  0.7443 -0.1414 -0.1370
 7285TIP3   OH243345   4.854   6.389  11.617 -0.3893  0.0087 -0.1994
 7285TIP3    H143346   4.940   6.430  11.627  0.0292 -1.0143  0.6394
 7285TIP3    H243347   4.850   6.366  11.524 -0.2901  1.1791 -0.5036
 7286TIP3   OH243348   0.287   4.861  14.465 -0.2243 -0.0946  0.5420
 7286TIP3    H143349   0.327   4.775  14.481  1.0106  0.3366 -0.1057
 7286TIP3    H243350   0.303   4.878  14.372 -0.4145  0.8644  0.6750
 7287TIP3   OH243351   2.282   1.533   4.657 -0.2135 -0.5369  0.3934
 7287TIP3    H143352   2.208   1.577   4.699  1.2874  1.5873  1.0089
 7287TIP3    H243353   2.330   1.492   4.728  1.2390  1.3837  0.6214
 7288TIP3   OH243354   5.948   2.482   3.239  0.0562  0.0406  0.3966
 7288TIP3    H143355   5.860   2.453   3.263  0.4400  1.2059  3.6765
 7288TIP3    H243356   5.936   2.571   3.206 -0.1685 -0.6141 -1.4188
 7289TIP3   OH243357   2.095   6.133  16.403  0.6992 -0.0447 -0.3359
 7289TIP3    H143358   2.004   6.146  16.430  1.0931  0.3839  0.8433
 7289TIP3    H243359   2.116   6.044  16.429  1.1125  0.4030  0.9684
 7290TIP3   OH243360   5.017   2.750  17.258 -0.2135 -0.2153 -0.2541
 7290TIP3    H143361   4.943   2.690  17.265 -0.7538  0.1380 -2.1483
 7290TIP3    H243362   5.089   2.697  17.226 -0.2887 -0.1482 -0.5426
 7291TIP3   OH243363   1.058   2.859  14.094 -0.0503 -0.1198  0.2268
 7291TIP3    H143364   1.146   2.876  14.059 -0.4105 -0.2396 -0.7787
 7291TIP3    H243365   1.072   2.792  14.161  0.8400  1.1185  1.3346
 7292TIP3   OH243366   2.826   3.116   4.346  0.1197  0.1916  0.0065
 7292TIP3    H143367   2.791   3.126   4.257 -0.7029  2.3833  0.5131
 7292TIP3    H243368   2.794   3.030   4.373 -1.6528  0.4619 -0.9936
 7293TIP3   OH243369   3.740   1.643   5.416  0.2419 -0.2732 -0.0321
 7293TIP3    H143370   3.709   1.726   5.453  1.1824  0.2261 -0.3438
 7293TIP3    H243371   3.820   1.623   5.465 -0.1456 -1.1581  0.2533
 7294TIP3   OH243372   4.942   3.413   0.254 -0.1122 -0.0575 -0.5041
 7294TIP3    H143373   4.945   3.336   0.197 -0.7783 -0.9975  0.6724
 7294TIP3    H243374   4.851   3.419   0.282 -0.2011  1.5650 -1.0786
 7295TIP3   OH243375   2.644   2.369  14.527  0.6793  0.5812 -0.1390
 7295TIP3    H143376   2.708   2.386  14.597 -0.2610  1.3101  0.5748
 7295TIP3    H243377   2.567   2.420  14.553 -0.8573 -1.6670 -0.0175
 7296TIP3   OH243378   2.874   6.409   1.285  0.4083  0.3999  0.3314
 7296TIP3    H143379   2.903   6.479   1.228  0.7339  0.0757  0.0889
 7296TIP3    H243380   2.902   6.329   1.240 -0.3077  0.1035  0.4108
 7297TIP3   OH243381   5.841   5.797  12.175 -0.7087 -0.0515 -0.0579
 7297TIP3    H143382   5.781   5.846  12.230  0.4260  1.2905  0.0291
 7297TIP3    H243383   5.928   5.816  12.211 -0.1092 -0.7832 -1.0574
 7298TIP3   OH243384   1.948   1.315  11.244  0.1984  0.0968  0.1155
 7298TIP3    H143385   1.933   1.399  11.202  0.1044  1.2393  2.2665
 7298TIP3    H243386   1.865   1.268  11.234  0.4478 -0.0346 -1.6214
 7299TIP3   OH243387   1.818   1.378  11.848  0.2952 -0.1478 -0.1753
 7299TIP3    H143388   1.842   1.432  11.923  0.2501  1.3120 -1.1744
 7299TIP3    H243389   1.762   1.310  11.885  0.3346  0.4936  1.1258
 7300TIP3   OH243390   3.094   4.687  11.248 -0.0947  0.9653 -0.1721
 7300TIP3    H143391   3.013   4.707  11.201 -0.6538  1.8154  1.0942
 7300TIP3    H243392   3.114   4.596  11.225 -0.9722  0.9946 -1.1094
 7301TIP3   OH243393   1.508   5.174   4.669  0.7134 -0.0574 -0.0240
 7301TIP3    H143394   1.519   5.115   4.743  2.6920  1.6148  1.1109
 7301TIP3    H243395   1.415   5.196   4.670  0.7669  0.2973  2.3069
 7302TIP3   OH243396   5.736   6.702   3.273  0.5314  0.1894  0.1059
 7302TIP3    H143397   5.656   6.735   3.314  0.2067  0.6632 -0.8629
 7302TIP3    H243398   5.807   6.754   3.311  0.2811  0.3793  0.3141
 7303TIP3   OH243399   1.986   5.364  13.078  0.5446 -0.3160  0.3614
 7303TIP3    H143400   2.060   5.365  13.138 -0.0363 -0.3106  1.0936
 7303TIP3    H243401   1.944   5.279  13.094 -0.4686  0.2893  1.0485
 7304TIP3   OH243402   3.402   2.918   2.357  0.2441 -0.4558  0.0385
 7304TIP3    H143403   3.339   2.883   2.294  0.4829  1.8108 -1.5760
 7304TIP3    H243404   3.348   2.958   2.425 -0.1917  1.5618 -1.3843
 7305TIP3   OH243405   3.817   5.445  15.307 -0.0294 -0.0046 -0.0685
 7305TIP3    H143406   3.723   5.443  15.326 -0.0908  1.1371 -0.1717
 7305TIP3    H243407   3.841   5.537  15.315  0.9974 -0.2224 -0.4689
 7306TIP3   OH243408   6.336   0.959  15.734 -0.0213  0.4719  0.3290
 7306TIP3    H143409   6.365   0.974  15.643  0.2826  0.4580  0.4226
 7306TIP3    H243410   6.294   0.873  15.732 -3.1039  1.8586 -0.5320
 7307TIP3   OH243411   1.597   3.831   1.330 -0.1869  0.9078  0.2458
 7307TIP3    H143412   1.597   3.760   1.265  1.1446  2.2751 -1.3133
 7307TIP3    H243413   1.581   3.786   1.413 -1.1455 -1.0059 -0.8874
 7308TIP3   OH243414   6.322   3.530   2.719  0.0031  0.0926  0.0778
 7308TIP3    H143415   6.299   3.586   2.645  0.4960  0.1636 -0.0287
 7308TIP3    H243416   6.389   3.471   2.684  2.9860  2.4367  1.3023
 7309TIP3   OH243417   1.906   1.221   6.212  0.4429  0.7785 -0.2340
 7309TIP3    H143418   1.975   1.164   6.179 -1.0307 -3.1647  2.7460
 7309TIP3    H243419   1.952   1.290   6.260  2.3052 -0.1760 -0.5619
 7310TIP3   OH243420   6.061   4.628   6.554 -0.5486  0.1080 -0.0158
 7310TIP3    H143421   5.998   4.558   6.574  1.7984 -2.1424 -0.0897
 7310TIP3    H243422   6.122   4.627   6.628 -0.2823  1.9370 -0.1652
 7311TIP3   OH243423   3.977   6.555   1.188  0.1851  0.3350 -0.1080
 7311TIP3    H143424   3.990   6.552   1.283 -1.0162  0.3099  0.0737
 7311TIP3    H243425   3.980   6.648   1.167  0.9734  0.3054 -0.1239
 7312TIP3   OH243426   6.647   3.289   2.367  0.4407  0.2001  0.7821
 7312TIP3    H143427   6.731   3.335   2.376  0.0334  1.3364 -0.7929
 7312TIP3    H243428   6.627   3.295   2.274 -1.6188  0.3356  1.1936
 7313TIP3   OH243429   2.177   1.301  11.389  0.2533  0.0731  0.5481
 7313TIP3    H143430   2.101   1.341  11.348  0.2436 -1.7569 -1.4677
 7313TIP3    H243431   2.191   1.220  11.338  3.1515  0.0317  1.2252
 7314TIP3   OH243432   2.005   3.445   0.976  0.4624 -0.2975 -0.1739
 7314TIP3    H143433   1.962   3.433   1.060 -1.7749  0.2671 -1.1642
 7314TIP3    H243434   2.074   3.509   0.993 -0.5691  0.5398  1.0430
 7315TIP3   OH243435   1.870   5.601  12.719 -0.4006  0.3214 -0.0302
 7315TIP3    H143436   1.812   5.645  12.781  2.0823  0.6109  2.2218
 7315TIP3    H243437   1.859   5.508  12.738  2.3776  0.4536  3.0161
 7316TIP3   OH243438   5.287   1.261  16.208  0.1120 -0.2837  0.1351
 7316TIP3    H143439   5.322   1.178  16.176  1.3658 -0.4964  1.9425
 7316TIP3    H243440   5.208   1.237  16.257 -0.7397 -0.1421 -1.1013
 7317TIP3   OH243441   2.598   2.796  15.762 -0.4745  0.2068  0.0839
 7317TIP3    H143442   2.636   2.732  15.822  2.0519  2.0653  0.6289
 7317TIP3    H243443   2.602   2.753  15.676  1.2241 -0.3818  0.4260
 7318TIP3   OH243444   5.694   5.290  16.986  0.1452 -0.7641  0.1109
 7318TIP3    H143445   5.717   5.277  16.894  2.3697 -0.1398  0.5160
 7318TIP3    H243446   5.606   5.328  16.983  0.6867  0.5127 -1.8603
 7319TIP3   OH243447   2.261   0.505   5.150  0.1112  0.3704  0.3010
 7319TIP3    H143448   2.169   0.511   5.176  0.0343  0.6513 -0.0402
 7319TIP3    H243449   2.285   0.593   5.120  0.5904  0.3871  0.7082
 7320TIP3   OH243450   3.354   4.585   3.382 -0.5004 -0.2564  0.7573
 7320TIP3    H143451   3.404   4.658   3.346 -1.8972 -0.1036 -1.0298
 7320TIP3    H243452   3.396   4.507   3.346 -0.5125 -0.2226  0.6710
 7321TIP3   OH243453   0.140   2.549  16.149  0.4218 -0.5606 -0.2021
 7321TIP3    H143454   0.073   2.497  16.193  0.2179  0.6311  0.9861
 7321TIP3    H243455   0.092   2.620  16.107  0.7258 -1.1145 -1.5475
 7322TIP3   OH243456   0.837   5.835   2.201 -0.1184 -0.2016 -0.3480
 7322TIP3    H143457   0.809   5.790   2.121  0.7859 -1.2002 -0.1290
 7322TIP3    H243458   0.794   5.788   2.272  1.7830 -1.5713 -0.0290
 7323TIP3   OH243459   6.620   2.722  17.220 -0.0555 -0.1226  0.1255
 7323TIP3    H143460   6.582   2.662  17.285  0.5028 -1.0152 -0.3581
 7323TIP3    H243461   6.620   2.672  17.139 -1.8072  1.3723 -0.8675
 7324TIP3   OH243462   0.599   6.557   0.104 -0.4664  0.1964 -0.3606
 7324TIP3    H143463   0.584   6.630   0.044 -0.5464  0.3164 -0.1932
 7324TIP3    H243464   0.523   6.500   0.091 -0.8438  0.5711  0.1413
 7325TIP3   OH243465   0.441   2.576  16.752 -0.3899  0.2811 -0.3850
 7325TIP3    H143466   0.459   2.572  16.658 -2.1128  1.5277 -0.8256
 7325TIP3    H243467   0.508   2.634  16.787 -0.3701  0.6661 -1.0446
 7326TIP3   OH243468   5.486   5.213  13.170 -0.4732  0.0772  0.3733
 7326TIP3    H143469   5.567   5.210  13.120 -0.4902 -0.0915  0.3552
 7326TIP3    H243470   5.494   5.291  13.225  0.8350 -1.3193  2.3025
 7327TIP3   OH243471   2.972   1.802  16.640 -0.4136 -0.0435 -0.3905
 7327TIP3    H143472   2.901   1.780  16.580 -1.5292 -0.1293  0.8993
 7327TIP3    H243473   3.040   1.736  16.624 -1.3026 -0.9377 -0.5536
 7328TIP3   OH243474   0.282   5.945  14.686 -0.1184 -0.1049 -0.0350
 7328TIP3    H143475   0.188   5.936  14.702 -1.0370  1.9599 -3.3126
 7328TIP3    H243476   0.307   6.024  14.734  0.0516 -0.7076  0.9164
 7329TIP3   OH243477   1.802   0.399   5.435 -0.4108 -0.1363 -0.9853
 7329TIP3    H143478   1.814   0.415   5.529 -0.6414  0.6490 -1.0801
 7329TIP3    H243479   1.776   0.307   5.429 -2.9389  0.4341 -0.0469
 7330TIP3   OH243480   4.400   3.642   5.736 -0.2994  0.0005  0.5074
 7330TIP3    H143481   4.437   3.647   5.824  1.4792 -1.3785 -0.0915
 7330TIP3    H243482   4.365   3.553   5.730  2.1442 -0.9420 -1.0472
 7331TIP3   OH243483   3.635   0.389   0.830 -0.2840 -0.0827  0.1285
 7331TIP3    H143484   3.697   0.319   0.850  0.3335  0.4374  0.0621
 7331TIP3    H243485   3.665   0.463   0.883 -1.0812  0.0565  0.3927
 7332TIP3   OH243486   5.321   5.424  17.132  0.1114 -0.4198 -1.3016
 7332TIP3    H143487   5.350   5.515  17.134  1.2173 -0.7778  0.2585
 7332TIP3    H243488   5.332   5.397  17.041  0.6896  0.7114 -1.5804
 7333TIP3   OH243489   3.230   0.895  13.120 -0.3494 -0.8508  0.0817
 7333TIP3    H143490   3.241   0.978  13.075 -0.4002 -0.7758  0.2058
 7333TIP3    H243491   3.238   0.917  13.213  0.5894 -1.1367  0.0785
 7334TIP3   OH243492   3.057   5.062   2.691  0.2873 -0.3073 -0.2971
 7334TIP3    H143493   3.111   5.115   2.631 -1.6499  0.8162 -1.1441
 7334TIP3    H243494   3.039   4.982   2.642  0.4979 -0.3165 -0.3606
 7335TIP3   OH243495   1.579   4.479   0.440 -0.3572 -0.3152  0.5282
 7335TIP3    H143496   1.543   4.459   0.526 -0.8931 -0.8747  0.1877
 7335TIP3    H243497   1.584   4.575   0.437 -0.6010 -0.2840  1.0712
 7336TIP3   OH243498   5.480   4.283  11.918 -0.2405 -0.6332 -0.4355
 7336TIP3    H143499   5.387   4.270  11.901 -0.7207  0.3777  1.1593
 7336TIP3    H243500   5.485   4.372  11.953  1.2109 -0.9629  0.2515
 7337TIP3   OH243501   4.952   3.303   2.750 -0.7084  0.0686 -0.6208
 7337TIP3    H143502   4.864   3.278   2.777 -1.1217  0.1204 -1.8851
 7337TIP3    H243503   4.990   3.223   2.713  0.1697 -0.2306  0.8105
 7338TIP3   OH243504   1.345   3.206  12.547  0.1178  0.5310 -0.0951
 7338TIP3    H143505   1.293   3.178  12.623 -0.1385  1.6955  0.1849
 7338TIP3    H243506   1.397   3.279  12.581 -0.2170  1.2557 -1.1220
 7339TIP3   OH243507   5.255   0.804  14.763  0.3118  0.4318 -0.0915
 7339TIP3    H143508   5.246   0.709  14.758 -1.0941  0.3577  2.3213
 7339TIP3    H243509   5.237   0.835  14.674  1.0336 -1.5432 -0.9663
 7340TIP3   OH243510   3.135   0.126   3.507 -0.8216 -0.3529 -0.3102
 7340TIP3    H143511   3.220   0.163   3.532 -0.4478 -0.4395 -1.4161
 7340TIP3    H243512   3.085   0.124   3.589  0.3627 -0.6407  0.4343
 7341TIP3   OH243513   6.050   4.647   2.523 -0.6945  0.0767 -0.4881
 7341TIP3    H143514   6.108   4.694   2.463 -1.7172 -0.7765 -2.1791
 7341TIP3    H243515   6.075   4.555   2.514  0.0766  0.0454  1.4700
 7342TIP3   OH243516   2.282   6.359   1.866 -0.2192 -0.0603 -0.2313
 7342TIP3    H143517   2.264   6.453   1.867 -0.2631 -0.0513 -1.1726
 7342TIP3    H243518   2.353   6.349   1.802  1.9653 -0.3122  2.0452
 7343TIP3   OH243519   3.075   5.079   5.621  0.0901 -0.2912 -0.2537
 7343TIP3    H143520   3.129   5.010   5.582  0.7617  0.6088 -0.9837
 7343TIP3    H243521   3.127   5.110   5.695  1.1952  1.3417 -1.6137
 7344TIP3   OH243522   0.230   5.375   5.623 -0.5370  0.7292  0.6352
 7344TIP3    H143523   0.188   5.415   5.547  0.5919 -1.4526 -1.2306
 7344TIP3    H243524   0.208   5.282   5.617  0.5927  0.3108  2.3025
 7345TIP3   OH243525   5.234   3.189  11.976  0.5423 -0.1328 -0.2623
 7345TIP3    H143526   5.312   3.133  11.979 -0.2107 -1.2490 -0.6673
 7345TIP3    H243527   5.243   3.238  11.895  0.1318 -1.3351 -1.0562
 7346TIP3   OH243528   6.501   3.516   1.222 -0.2860  0.3258 -0.5086
 7346TIP3    H143529   6.442   3.539   1.150 -1.6290 -1.9688 -0.2622
 7346TIP3    H243530   6.465   3.562   1.298 -0.6041  0.4944 -0.7569
 7347TIP3   OH243531   4.436   1.531   1.186 -0.5692 -0.8456 -0.4937
 7347TIP3    H143532   4.526   1.520   1.217  0.1357  0.8907 -1.7406
 7347TIP3    H243533   4.426   1.625   1.173 -1.9912 -1.1465 -2.0120
 7348TIP3   OH243534   1.312   2.344   2.608 -0.0801  0.7411 -0.4537
 7348TIP3    H143535   1.231   2.296   2.627 -0.2576  1.1715 -0.1182
 7348TIP3    H243536   1.287   2.436   2.613  0.0452  0.8853 -1.9783
 7349TIP3   OH243537   0.278   6.524   6.200  0.3595 -0.3638 -0.4932
 7349TIP3    H143538   0.230   6.491   6.276  0.0181  0.3874 -0.3723
 7349TIP3    H243539   0.369   6.527   6.229  0.0275  1.5801  0.5286
 7350TIP3   OH243540   3.242   4.134  15.538 -0.1072 -0.1094 -0.3091
 7350TIP3    H143541   3.181   4.154  15.609 -1.0645 -2.7060 -0.2968
 7350TIP3    H243542   3.197   4.069  15.485  0.9290  1.1098 -2.8718
 7351TIP3   OH243543   3.932   5.795   3.819 -0.0171  0.3569  0.1619
 7351TIP3    H143544   3.944   5.888   3.836 -2.1795  0.8914 -0.8501
 7351TIP3    H243545   3.860   5.791   3.756 -1.3315 -2.0820  1.6443
 7352TIP3   OH243546   3.056   1.432  13.058  0.0503  0.0318  0.0093
 7352TIP3    H143547   3.062   1.348  13.012  0.5530  0.0503  0.0405
 7352TIP3    H243548   3.120   1.488  13.015  1.4779 -0.3443  1.5416
 7353TIP3   OH243549   6.710   3.203  14.413 -0.2893 -1.2735 -0.2078
 7353TIP3    H143550   6.634   3.261  14.406  0.3618 -0.4495 -0.5997
 7353TIP3    H243551   6.723   3.193  14.508 -0.0877 -0.3404 -0.1299
 7354TIP3   OH243552   2.252   1.355  16.855 -0.3853  0.7202  0.0995
 7354TIP3    H143553   2.264   1.428  16.794 -0.5919 -0.4482 -1.3843
 7354TIP3    H243554   2.340   1.329  16.879 -0.2372  0.2315 -0.9098
 7355TIP3   OH243555   6.313   0.601   0.976 -0.2964 -0.3617 -0.1137
 7355TIP3    H143556   6.252   0.543   1.021 -2.3076 -0.1457 -2.3189
 7355TIP3    H243557   6.257   0.672   0.943  1.1569 -0.1044 -2.1750
 7356TIP3   OH243558   0.378   4.802   0.033 -0.1448 -0.5895 -0.2501
 7356TIP3    H143559   0.405   4.782   0.122 -0.3004  1.4553  0.3047
 7356TIP3    H243560   0.408   4.891   0.018 -3.2542  0.4821 -0.9057
 7357TIP3   OH243561   3.779   0.025   4.859  0.2075 -0.5244  0.0715
 7357TIP3    H143562   3.803   0.027   4.766 -1.4188 -1.6934 -0.4044
 7357TIP3    H243563   3.854  -0.017   4.901  0.3335 -1.3595 -0.9317
 7358TIP3   OH243564   5.467   1.787   2.504 -0.0309  0.2779  0.0331
 7358TIP3    H143565   5.539   1.831   2.550 -0.3024 -0.1651  0.9157
 7358TIP3    H243566   5.390   1.805   2.559 -0.1131 -1.4429  0.5348
 7359TIP3   OH243567   5.664   1.686  13.191  0.0858  0.3871 -0.0681
 7359TIP3    H143568   5.584   1.720  13.151  0.0202 -1.7834 -1.9079
 7359TIP3    H243569   5.679   1.602  13.149  2.1679 -0.2741  1.8010
 7360TIP3   OH243570   6.060   2.264   0.044 -0.2229 -0.6065 -0.1402
 7360TIP3    H143571   6.131   2.310   0.000 -0.2554 -0.7741 -0.3716
 7360TIP3    H243572   6.055   2.303   0.131 -0.9087  0.5306 -0.6700
 7361TIP3   OH243573   2.217   2.522   5.418 -0.5249 -0.1085 -0.6925
 7361TIP3    H143574   2.133   2.547   5.378 -1.3544 -0.5597  0.6740
 7361TIP3    H243575   2.253   2.605   5.450 -0.9627 -0.0231 -0.3945
 7362TIP3   OH243576   3.080   6.006   2.078  0.5656  0.0206 -0.4047
 7362TIP3    H143577   3.053   6.082   2.027  1.1138  1.1138  0.8887
 7362TIP3    H243578   3.174   5.998   2.061  0.6161 -0.0284 -0.1002
 7363TIP3   OH243579   4.738   0.964  15.935  0.4517  0.7116 -0.5119
 7363TIP3    H143580   4.723   1.059  15.929 -2.6164  0.3330 -0.0425
 7363TIP3    H243581   4.805   0.955  16.003  0.7504  2.5357 -0.5104
 7364TIP3   OH243582   3.344   1.831   2.187  0.0116 -0.4804 -0.7367
 7364TIP3    H143583   3.425   1.806   2.231  0.1927 -1.5902 -1.6604
 7364TIP3    H243584   3.292   1.875   2.255  1.1075 -0.3351  0.0305
 7365TIP3   OH243585   2.177   3.133  15.161  0.4449  0.1311 -0.2366
 7365TIP3    H143586   2.092   3.138  15.206 -0.0126  1.4133 -1.1875
 7365TIP3    H243587   2.185   3.217  15.115  2.2357  0.0420 -0.1752
 7366TIP3   OH243588   4.198   1.359   4.034  0.4197 -0.6359 -0.2092
 7366TIP3    H143589   4.146   1.348   3.955 -2.0013 -0.0429  1.1843
 7366TIP3    H243590   4.279   1.400   4.004 -0.4847 -0.2643 -2.3504
 7367TIP3   OH243591   5.835   3.902   4.665 -0.2734 -0.6600  0.1307
 7367TIP3    H143592   5.743   3.921   4.648 -0.9572 -2.8713  0.8823
 7367TIP3    H243593   5.862   3.969   4.728 -2.0652 -1.2161  1.6128
 7368TIP3   OH243594   5.521   6.121   1.532  0.1051  0.6203  1.0567
 7368TIP3    H143595   5.582   6.068   1.480 -1.6339  0.7001 -1.2184
 7368TIP3    H243596   5.538   6.094   1.623 -0.2894 -3.5112  0.1069
 7369TIP3   OH243597   4.055   0.093  17.014  0.2748 -1.0396  0.1139
 7369TIP3    H143598   4.069   0.029  16.944  0.7376 -2.2530  1.2732
 7369TIP3    H243599   4.132   0.085  17.070  0.2780  0.4623  0.3614
 7370TIP3   OH243600   0.174   3.940   5.765  0.3499  0.4655 -0.0050
 7370TIP3    H143601   0.160   3.878   5.836  2.5062  1.0862  1.0418
 7370TIP3    H243602   0.097   3.997   5.767 -2.3591 -2.7733 -1.8179
 7371TIP3   OH243603   1.438   4.569  16.106 -0.1389 -0.8831 -0.2955
 7371TIP3    H143604   1.472   4.596  16.191  0.1679 -1.1239 -0.3397
 7371TIP3    H243605   1.495   4.497  16.079 -0.5293 -1.1288 -0.4857
 7372TIP3   OH243606   5.179   1.920   6.085  0.1316 -0.2860 -0.8152
 7372TIP3    H143607   5.158   2.004   6.043 -0.6305 -1.2970 -2.6136
 7372TIP3    H243608   5.269   1.930   6.115 -0.8385  2.1740  1.7365
 7373TIP3   OH243609   6.481   2.109  15.842 -0.1924  0.2903 -0.0723
 7373TIP3    H143610   6.449   2.199  15.851 -0.4411  0.0951  1.2839
 7373TIP3    H243611   6.550   2.102  15.908 -0.4066 -0.6082  0.0748
 7374TIP3   OH243612   1.036   4.815  16.707 -0.0044  0.3387  0.0678
 7374TIP3    H143613   1.088   4.805  16.787  0.9880 -0.0105 -0.6034
 7374TIP3    H243614   1.098   4.798  16.636 -0.8557  0.7193 -0.7814
 7375TIP3   OH243615   0.049   5.050  15.499 -0.2257  0.0447 -0.2790
 7375TIP3    H143616   0.119   5.042  15.435  1.2896 -1.0218  1.3924
 7375TIP3    H243617   0.037   4.961  15.532 -2.2380  0.2495 -0.3456
 7376TIP3   OH243618   4.747   2.749   0.333 -0.4221 -0.0270  0.2161
 7376TIP3    H143619   4.730   2.683   0.267  0.3159  0.6321 -0.6622
 7376TIP3    H243620   4.817   2.803   0.296 -1.9685  2.1433  0.2399
 7377TIP3   OH243621   2.636   6.164   2.336 -0.3778 -0.0660  0.1425
 7377TIP3    H143622   2.590   6.106   2.397 -1.7747 -0.6131 -1.3543
 7377TIP3    H243623   2.567   6.218   2.299  0.1348 -0.9340 -2.2289
 7378TIP3   OH243624   6.791   1.093  15.968  0.6878  0.3844 -0.6854
 7378TIP3    H143625   6.818   1.184  15.980  0.8071  0.4330 -1.2806
 7378TIP3    H243626   6.711   1.098  15.916  0.7616  0.1475 -0.8263
 7379TIP3   OH243627   5.228   4.810  13.197  0.0109  0.2084 -0.1309
 7379TIP3    H143628   5.265   4.844  13.115 -0.1987  0.0905 -0.2740
 7379TIP3    H243629   5.235   4.884  13.258 -0.7083  0.6111 -0.5233
 7380TIP3   OH243630   5.748   4.434   3.867 -0.7285  0.1226  0.2877
 7380TIP3    H143631   5.754   4.522   3.904  1.1407  0.5617 -0.9209
 7380TIP3    H243632   5.773   4.445   3.775  0.5728 -1.8071  0.3604
 7381TIP3   OH243633   4.603   0.041   4.983 -0.7437  0.4331  0.5279
 7381TIP3    H143634   4.650   0.033   5.066 -0.8097 -1.7009  0.4001
 7381TIP3    H243635   4.538  -0.029   4.985 -0.7400  0.3315 -1.3160
 7382TIP3   OH243636   1.460   2.829  14.530 -0.4166 -0.1400 -0.5490
 7382TIP3    H143637   1.460   2.920  14.499 -1.2716 -0.2548 -0.9077
 7382TIP3    H243638   1.534   2.825  14.591 -1.3119  1.2251  0.6988
 7383TIP3   OH243639   6.747   6.421  11.799  0.1329  0.4127 -0.4929
 7383TIP3    H143640   6.775   6.329  11.794  1.7960  0.7663  1.1147
 7383TIP3    H243641   6.655   6.420  11.776 -0.4730 -2.0018  1.6225
 7384TIP3   OH243642   1.171   4.904   2.451  0.3077 -0.4854  0.1525
 7384TIP3    H143643   1.113   4.919   2.525 -0.6117 -3.1007  0.0666
 7384TIP3    H243644   1.254   4.945   2.477 -1.1525  2.2452  0.7886
 7385TIP3   OH243645   6.790   4.550  12.784 -0.4606 -0.1993  0.6585
 7385TIP3    H143646   6.710   4.527  12.831 -1.0735 -1.2212 -0.7834
 7385TIP3    H243647   6.841   4.469  12.783 -1.1689 -0.7216 -1.6788
 7386TIP3   OH243648   6.453   4.019   0.663 -0.2527  0.3294 -0.2108
 7386TIP3    H143649   6.425   3.928   0.653 -0.1440 -0.3986  4.3202
 7386TIP3    H243650   6.395   4.068   0.604 -2.2236 -2.3837 -0.7300
 7387TIP3   OH243651   4.834   4.028   3.588 -0.2920  0.2446  0.8039
 7387TIP3    H143652   4.812   4.109   3.634  2.8760  0.5256  2.0858
 7387TIP3    H243653   4.846   4.055   3.497 -3.1657  0.3532  0.3702
 7388TIP3   OH243654   2.683   4.451   1.546 -0.0113 -0.4985  0.4618
 7388TIP3    H143655   2.744   4.379   1.565  0.1432 -0.3241  0.6296
 7388TIP3    H243656   2.652   4.433   1.457 -0.0614 -0.8352  0.5455
 7389TIP3   OH243657   6.434   2.704  16.442 -0.5143 -0.0273 -0.7244
 7389TIP3    H143658   6.405   2.700  16.533 -1.2716 -2.8488 -0.9769
 7389TIP3    H243659   6.358   2.735  16.394 -0.1287  1.4198 -0.4438
 7390TIP3   OH243660   5.527   3.784   5.808  0.3429 -0.2403 -0.0067
 7390TIP3    H143661   5.445   3.744   5.836  1.1306 -1.8744  0.0551
 7390TIP3    H243662   5.556   3.835   5.884  0.3311 -1.1888  0.6401
 7391TIP3   OH243663   0.652   6.271  12.651 -0.4460 -0.2976  0.4747
 7391TIP3    H143664   0.669   6.249  12.743 -0.6545  1.6003  0.9962
 7391TIP3    H243665   0.631   6.364  12.651 -1.2883 -0.4335 -1.4085
 7392TIP3   OH243666   4.651   1.251   4.271 -0.2374  0.6991 -0.0279
 7392TIP3    H143667   4.675   1.191   4.201  0.9789 -0.1180  1.0429
 7392TIP3    H243668   4.586   1.203   4.322  1.2684 -0.0981  1.2566
 7393TIP3   OH243669   0.027   3.279   0.910 -0.0753 -0.0832  0.6063
 7393TIP3    H143670   0.112   3.297   0.870  0.1183  0.0111  1.0530
 7393TIP3    H243671   0.028   3.328   0.992  0.4600 -2.0708  1.8508
 7394TIP3   OH243672   5.243   1.548   5.261  0.3250  0.2444  0.0033
 7394TIP3    H143673   5.322   1.598   5.241 -0.0151 -0.3951 -3.4351
 7394TIP3    H243674   5.273   1.457   5.265 -0.1061  0.0700 -0.6068
 7395TIP3   OH243675   4.177   2.841  11.993 -0.3021  0.5431 -0.0574
 7395TIP3    H143676   4.122   2.868  11.919 -1.6634 -2.3758 -0.2846
 7395TIP3    H243677   4.119   2.785  12.046  1.9893 -1.4594  0.5229
 7396TIP3   OH243678   5.685   1.881   2.666  0.5865 -0.0589 -0.4120
 7396TIP3    H143679   5.684   1.902   2.760 -2.1804 -0.1341 -0.3245
 7396TIP3    H243680   5.759   1.930   2.631  0.7751  1.1954  1.5654
 7397TIP3   OH243681   4.285   6.190   0.236 -0.5773 -0.5615 -0.1511
 7397TIP3    H143682   4.196   6.170   0.265 -0.9662 -1.4895 -1.8590
 7397TIP3    H243683   4.286   6.165   0.143  1.9040 -1.9841  0.1863
 7398TIP3   OH243684   5.406   2.173  16.195  0.5604 -0.6933 -0.3866
 7398TIP3    H143685   5.372   2.212  16.114 -1.2652 -1.4251 -0.0164
 7398TIP3    H243686   5.440   2.248  16.245 -0.2098  0.0440 -0.9324
 7399TIP3   OH243687   6.373   3.102   4.044 -0.0391 -0.0135 -0.0987
 7399TIP3    H143688   6.452   3.135   4.002  0.7186 -0.2489  1.0967
 7399TIP3    H243689   6.376   3.140   4.132 -2.2726  1.5655 -0.6109
 7400TIP3   OH243690   5.974   5.445   6.315 -0.2717  0.2380 -1.0349
 7400TIP3    H143691   5.991   5.539   6.306  1.0879 -0.0519 -1.7186
 7400TIP3    H243692   6.033   5.403   6.253 -0.1478 -1.1321 -0.0428
 7401TIP3   OH243693   1.382   5.725   3.845 -0.1712  0.0528 -0.0878
 7401TIP3    H143694   1.411   5.793   3.907  1.1591  0.4740 -1.1182
 7401TIP3    H243695   1.314   5.767   3.794 -0.6446 -0.0064  0.4774
 7402TIP3   OH243696   3.422   4.571   2.082 -0.5471  0.4968 -0.0412
 7402TIP3    H143697   3.365   4.642   2.053 -0.9473 -0.0303 -0.5674
 7402TIP3    H243698   3.439   4.519   2.004  0.5086  0.5278  0.1429
 7403TIP3   OH243699   3.380   0.485   4.943 -0.1937  0.6534  0.7830
 7403TIP3    H143700   3.418   0.563   4.903  2.1669  0.6235  2.7379
 7403TIP3    H243701   3.327   0.519   5.016  0.0175  0.4741  1.0211
 7404TIP3   OH243702   1.967   1.421   4.842  0.6736 -0.3949 -0.1727
 7404TIP3    H143703   1.872   1.418   4.848  0.3154  2.4971 -2.0716
 7404TIP3    H243704   1.997   1.434   4.932 -0.8728  0.2674  0.2754
 7405TIP3   OH243705   1.011   2.491  11.567 -0.8644 -0.4491 -0.2103
 7405TIP3    H143706   1.084   2.446  11.525  2.9566  3.5359  1.3314
 7405TIP3    H243707   0.982   2.556  11.503  0.9265  1.6588  0.9750
 7406TIP3   OH243708   4.446   3.437  14.738 -0.4957  0.4495  0.3546
 7406TIP3    H143709   4.455   3.342  14.740  0.0681  0.4976  1.7735
 7406TIP3    H243710   4.536   3.469  14.729 -0.4434  0.8386  1.9280
 7407TIP3   OH243711   6.631   1.089  16.921 -0.2829  0.1953 -0.0649
 7407TIP3    H143712   6.664   1.146  16.852  0.9904 -0.3058  0.1056
 7407TIP3    H243713   6.600   1.150  16.989 -1.1065  0.6792 -0.8592
 7408TIP3   OH243714   2.285   0.891   3.840 -0.2551  0.9426  0.8194
 7408TIP3    H143715   2.349   0.841   3.891  1.1980  0.6947 -1.1245
 7408TIP3    H243716   2.247   0.827   3.780 -0.7843  1.5290  0.5161
 7409TIP3   OH243717   6.012   5.183   4.166 -0.4920  0.5849  0.3898
 7409TIP3    H143718   6.009   5.088   4.177 -1.4894  0.5339 -0.1849
 7409TIP3    H243719   5.970   5.218   4.245 -0.8344  0.5234  0.2323
 7410TIP3   OH243720   5.093   0.264   5.325 -0.2163 -0.5151 -0.0423
 7410TIP3    H143721   5.042   0.184   5.313  0.6895 -1.0725 -0.2476
 7410TIP3    H243722   5.184   0.238   5.310  0.2283  0.2886  1.0995
 7411TIP3   OH243723   6.817   3.432  15.427 -0.6344 -0.2978  0.6801
 7411TIP3    H143724   6.865   3.423  15.510  2.1733  1.8604 -0.5447
 7411TIP3    H243725   6.791   3.524  15.426  0.0659 -0.0937 -1.1512
 7412TIP3   OH243726   4.095   0.788   3.325  0.2358  0.2821 -0.2270
 7412TIP3    H143727   4.067   0.770   3.415 -0.7807 -0.6645 -0.7095
 7412TIP3    H243728   4.155   0.717   3.304  0.2124  0.3171 -0.4111
 7413TIP3   OH243729   0.676   1.725  15.165 -0.1728  0.2036 -0.0496
 7413TIP3    H143730   0.625   1.781  15.224 -0.8308  1.1766 -1.4591
 7413TIP3    H243731   0.708   1.785  15.097 -0.2398 -0.9819 -1.1821
 7414TIP3   OH243732   2.555   3.810   0.188 -0.0378  0.3200 -0.2342
 7414TIP3    H143733   2.539   3.896   0.227  0.2790  0.2454  0.0678
 7414TIP3    H243734   2.531   3.820   0.096  2.8668  1.6213 -0.9645
 7415TIP3   OH243735   5.453   4.701  14.011  0.4060  0.6955  0.0779
 7415TIP3    H143736   5.501   4.783  14.001  2.0630 -0.2388 -0.0998
 7415TIP3    H243737   5.407   4.710  14.094  3.3512  0.5298  1.8888
 7416TIP3   OH243738   0.787   3.078   3.788 -0.4693 -0.4022 -0.6709
 7416TIP3    H143739   0.826   3.131   3.858 -1.4237 -1.6290  0.8490
 7416TIP3    H243740   0.694   3.077   3.808 -0.8735 -0.1942 -2.4033
 7417TIP3   OH243741   5.745   0.186  16.445  0.4441 -0.4813  0.7595
 7417TIP3    H143742   5.837   0.194  16.470  0.8594 -1.2454 -0.4766
 7417TIP3    H243743   5.746   0.173  16.351 -0.7895 -2.6433  0.9919
 7418TIP3   OH243744   0.263   5.047  16.208 -0.0755  0.2843  0.1508
 7418TIP3    H143745   0.229   4.965  16.244  2.6022 -0.5301  1.0709
 7418TIP3    H243746   0.193   5.111  16.223 -1.1833 -1.2304  1.9097
 7419TIP3   OH243747   6.026   5.444   0.985  0.3785 -0.4661  0.3728
 7419TIP3    H143748   5.937   5.462   0.955  0.5249  0.6085  0.5556
 7419TIP3    H243749   6.065   5.392   0.915  0.0962  0.3532 -0.4122
 7420TIP3   OH243750   2.793   3.436  14.015  0.0309  0.7514  0.3368
 7420TIP3    H143751   2.706   3.466  13.987 -0.0163 -2.2224 -3.5345
 7420TIP3    H243752   2.852   3.505  13.983 -0.6456  0.7745 -0.9788
 7421TIP3   OH243753   1.313   0.793  15.477 -0.4192 -0.4268  0.9426
 7421TIP3    H143754   1.328   0.711  15.523 -2.5628 -0.7756  1.1051
 7421TIP3    H243755   1.392   0.806  15.424 -0.1951 -2.8013  0.6110
 7422TIP3   OH243756   1.875   6.553  13.528 -0.1263 -0.1904  0.0280
 7422TIP3    H143757   1.967   6.579  13.529 -0.2559  0.3718  2.5126
 7422TIP3    H243758   1.846   6.573  13.439  1.5524  1.8319 -0.1360
 7423TIP3   OH243759   0.868   6.114   3.583  1.0832  0.0045 -0.1891
 7423TIP3    H143760   0.852   6.053   3.655  1.9103 -2.0305 -1.6456
 7423TIP3    H243761   0.963   6.131   3.587  1.1733 -0.3030 -0.9076
 7424TIP3   OH243762   0.747   5.626   3.475 -0.1910  0.0534  0.2310
 7424TIP3    H143763   0.814   5.693   3.488  1.8236 -1.9837  0.9671
 7424TIP3    H243764   0.739   5.583   3.560 -0.8221 -1.1706 -0.4181
 7425TIP3   OH243765   1.267   2.550   5.078 -0.9574 -0.1016  0.3909
 7425TIP3    H143766   1.284   2.484   5.146 -1.4046 -2.3945 -1.6102
 7425TIP3    H243767   1.268   2.502   4.996 -3.0263  2.0909 -1.0722
 7426TIP3   OH243768   4.571   0.977   0.311 -0.5069 -0.0267  0.4912
 7426TIP3    H143769   4.607   1.029   0.239 -0.1812 -1.6109 -0.5433
 7426TIP3    H243770   4.568   1.038   0.385  1.9300  0.8837 -0.0530
 7427TIP3   OH243771   3.602   2.944  15.450  0.0083  0.3139 -0.1606
 7427TIP3    H143772   3.600   2.886  15.374  2.4499 -1.3684  0.9304
 7427TIP3    H243773   3.695   2.966  15.461 -0.5745  2.5825  0.8916
 7428TIP3   OH243774   3.240   5.375  11.564  0.2084  0.5372 -0.1180
 7428TIP3    H143775   3.166   5.430  11.591 -1.1900 -0.9382 -0.7372
 7428TIP3    H243776   3.294   5.367  11.642 -0.7337  0.9729  0.5952
 7429TIP3   OH243777   4.268   3.464  12.650  0.3187 -0.1497 -0.9892
 7429TIP3    H143778   4.276   3.554  12.679 -1.1777 -0.8084  1.7415
 7429TIP3    H243779   4.283   3.468  12.555  1.7180  2.6949 -0.7486
 7430TIP3   OH243780   0.166   0.347   2.388  0.1807  0.0501  0.4887
 7430TIP3    H143781   0.121   0.268   2.417  1.6182 -0.0824  2.5829
 7430TIP3    H243782   0.135   0.415   2.448  0.2987  0.6744 -0.1540
 7431TIP3   OH243783   4.232   3.242  10.818 -0.0064  0.0510  0.2104
 7431TIP3    H143784   4.323   3.255  10.793 -0.2098  0.4686 -0.3345
 7431TIP3    H243785   4.183   3.304  10.764 -0.6399 -0.3576  0.3031
 7432TIP3   OH243786   2.854   5.251  13.970  0.0635 -0.1194 -0.2997
 7432TIP3    H143787   2.901   5.292  13.898  0.5315 -0.4160 -0.1644
 7432TIP3    H243788   2.768   5.230  13.934  0.5502 -0.9468 -1.0003
 7433TIP3   OH243789   2.836   0.498   5.530 -0.1687 -0.2233  0.1730
 7433TIP3    H143790   2.837   0.402   5.532 -0.4334 -0.2291  0.0715
 7433TIP3    H243791   2.754   0.522   5.573 -0.4862 -0.0623 -0.5139
 7434TIP3   OH243792   6.517   3.279  14.073  0.6543  0.8560  0.4696
 7434TIP3    H143793   6.519   3.260  13.979  0.1570  0.5335  0.5200
 7434TIP3    H243794   6.474   3.365  14.079  1.7412  1.4192  0.3273
 7435TIP3   OH243795   6.356   5.130  12.840 -0.1056  0.6213 -0.2967
 7435TIP3    H143796   6.431   5.078  12.811 -1.2051 -0.2654 -1.6199
 7435TIP3    H243797   6.387   5.172  12.921  1.6626 -0.0548 -0.5681
 7436TIP3   OH243798   0.603   2.031   2.627 -0.2279 -0.6375 -0.6707
 7436TIP3    H143799   0.624   2.119   2.658  0.5373 -1.3231  0.8538
 7436TIP3    H243800   0.521   2.009   2.672  1.5700 -2.1621  2.1712
 7437TIP3   OH243801   3.373   0.210  15.928  0.2515 -0.3567  0.7759
 7437TIP3    H143802   3.403   0.142  15.989 -1.9726 -0.4163  1.9123
 7437TIP3    H243803   3.288   0.238  15.964  0.1452  1.5470 -0.8306
 7438TIP3   OH243804   3.438   4.008  14.527 -0.0956  0.3809 -0.0338
 7438TIP3    H143805   3.416   3.980  14.616  0.6002  2.6699  0.9506
 7438TIP3    H243806   3.510   3.952  14.501  1.4295  1.3043  1.9218
 7439TIP3   OH243807   3.622   1.249  16.141 -0.6393  0.0894 -0.5297
 7439TIP3    H143808   3.689   1.261  16.074 -2.0746 -1.5142 -2.3731
 7439TIP3    H243809   3.630   1.157  16.166 -0.0587  0.6742  1.6752
 7440TIP3   OH243810   5.994   3.332  14.939 -0.1778 -0.5216  0.2177
 7440TIP3    H143811   5.920   3.324  14.999  0.5790 -1.5855  1.0462
 7440TIP3    H243812   5.984   3.418  14.899 -0.9400  0.0236  1.5467
 7441TIP3   OH243813   6.435   4.232   2.492 -0.2542  0.0943  0.0411
 7441TIP3    H143814   6.524   4.198   2.485  0.5749  2.4295 -2.5109
 7441TIP3    H243815   6.379   4.154   2.486  1.5323 -1.4207  1.6805
 7442TIP3   OH243816   3.687   1.850  11.649  0.5604  0.2496  0.0862
 7442TIP3    H143817   3.760   1.870  11.707 -0.0162  0.4669  0.7633
 7442TIP3    H243818   3.610   1.881  11.697 -0.1718 -1.7206  0.2987
 7443TIP3   OH243819   1.200   3.521   3.473  0.6741 -0.6330 -0.2463
 7443TIP3    H143820   1.234   3.469   3.545 -1.3902  0.0369  1.3323
 7443TIP3    H243821   1.255   3.499   3.398  1.8059 -2.6708  1.1074
 7444TIP3   OH243822   3.389   0.366  15.226 -0.2665  0.2434 -0.3289
 7444TIP3    H143823   3.455   0.334  15.288 -1.7013 -0.0307  1.1209
 7444TIP3    H243824   3.313   0.310  15.240 -1.1507  1.1654 -1.2661
 7445TIP3   OH243825   3.278   6.268   1.879 -0.3494 -0.1109  0.1118
 7445TIP3    H143826   3.262   6.359   1.904 -2.4471 -0.3556 -0.1267
 7445TIP3    H243827   3.193   6.237   1.847  0.3563 -2.1049  0.0353
 7446TIP3   OH243828   5.054   6.706  10.728 -0.0902 -0.5371  0.3676
 7446TIP3    H143829   5.083   6.767  10.660  1.6922  1.4188  2.6703
 7446TIP3    H243830   5.053   6.621  10.686  0.9366  0.5667 -2.0743
 7447TIP3   OH243831   6.278   0.076   1.593 -0.3647  0.4791  0.2014
 7447TIP3    H143832   6.259  -0.004   1.545 -1.4467  0.7353  0.1882
 7447TIP3    H243833   6.237   0.064   1.678 -3.7433  2.3979 -0.9631
 7448TIP3   OH243834   3.020   4.585   1.849 -0.1165  0.5790  0.9590
 7448TIP3    H143835   3.012   4.492   1.870 -1.1200  0.2201 -0.7830
 7448TIP3    H243836   3.001   4.590   1.755  3.6718  2.0952  0.1146
 7449TIP3   OH243837   2.027   3.667   2.635  0.2028 -0.2643 -0.4975
 7449TIP3    H143838   2.058   3.576   2.635 -0.7441 -0.6373 -1.9832
 7449TIP3    H243839   1.933   3.659   2.650  0.3816  0.6333  1.2247
 7450TIP3   OH243840   5.253   2.237   5.049 -0.2846  0.6078  0.1934
 7450TIP3    H143841   5.337   2.222   5.093  0.3026  0.6563 -0.8730
 7450TIP3    H243842   5.189   2.240   5.120  0.2603 -1.8366  0.8995
 7451TIP3   OH243843   5.648   5.799   5.354 -0.5517 -0.5850 -0.1499
 7451TIP3    H143844   5.581   5.794   5.423 -0.3995  0.6531  0.1093
 7451TIP3    H243845   5.640   5.716   5.307 -0.0611 -1.8543  1.9105
 7452TIP3   OH243846   6.142   0.213  14.324 -0.5335 -0.1156 -0.1074
 7452TIP3    H143847   6.227   0.209  14.366 -0.0566  3.9371 -0.2421
 7452TIP3    H243848   6.079   0.193  14.394  0.4436 -0.0575  0.8081
 7453TIP3   OH243849   3.998   4.272  14.385  0.2199 -0.0474  0.3838
 7453TIP3    H143850   4.083   4.232  14.365  1.3068  2.3518 -0.1829
 7453TIP3    H243851   3.982   4.330  14.310 -0.8678  1.1345  1.4957
 7454TIP3   OH243852   5.301   6.338   6.054 -0.6231 -0.4113 -0.0932
 7454TIP3    H143853   5.288   6.420   6.101 -0.5765 -0.0310 -0.7343
 7454TIP3    H243854   5.267   6.271   6.113 -2.6630  0.2675 -0.4065
 7455TIP3   OH243855   2.471   3.042   0.030 -0.3265  0.0091  0.3982
 7455TIP3    H143856   2.492   2.991   0.109  1.6927  1.7232  1.0688
 7455TIP3    H243857   2.398   3.098   0.057 -0.8386 -0.6567  0.4484
 7456TIP3   OH243858   0.966   4.384  16.398  0.5820  0.3745  0.3457
 7456TIP3    H143859   0.977   4.306  16.343 -0.7424  0.8581 -0.6584
 7456TIP3    H243860   1.053   4.402  16.432  1.5085  0.1877 -1.7895
 7457TIP3   OH243861   3.222   0.669   5.892  0.3040 -0.5195 -0.6330
 7457TIP3    H143862   3.126   0.666   5.898  0.3656 -1.8738  0.2957
 7457TIP3    H243863   3.243   0.604   5.825  0.5945 -0.7585 -0.3121
 7458TIP3   OH243864   3.400   3.592  14.378 -0.0719  0.0346 -0.0031
 7458TIP3    H143865   3.409   3.497  14.378 -1.4030 -0.1023  0.1618
 7458TIP3    H243866   3.468   3.623  14.437 -0.3223 -0.8872  0.7825
 7459TIP3   OH243867   6.199   5.152  11.687  0.0301 -0.1744 -0.1582
 7459TIP3    H143868   6.110   5.183  11.666  0.0503  0.4800  0.6993
 7459TIP3    H243869   6.185   5.066  11.727 -0.2151 -0.0946 -0.0678
 7460TIP3   OH243870   2.224   5.141  15.898  0.2165 -0.1994  0.6087
 7460TIP3    H143871   2.245   5.183  15.981 -1.3456  1.2912  0.3138
 7460TIP3    H243872   2.128   5.146  15.893  0.2751 -0.4084 -1.1961
 7461TIP3   OH243873   2.769   2.065   5.335  0.1040 -0.1128 -0.9105
 7461TIP3    H143874   2.795   2.155   5.353  1.1117 -0.4168 -0.8247
 7461TIP3    H243875   2.849   2.022   5.305 -0.0690 -1.3043  0.2557
 7462TIP3   OH243876   6.493   2.795   1.442 -0.4302 -0.7532  0.4372
 7462TIP3    H143877   6.561   2.735   1.475 -1.2016 -2.0730 -0.2840
 7462TIP3    H243878   6.497   2.785   1.347 -0.9016 -0.0075  0.3333
 7463TIP3   OH243879   3.088   2.628   0.387  0.0383  0.6109 -0.7873
 7463TIP3    H143880   3.099   2.565   0.458 -2.5071 -0.0496 -0.8910
 7463TIP3    H243881   3.165   2.616   0.332  0.6685 -0.8714  0.3400
 7464TIP3   OH243882   0.829   2.577  12.849 -0.1846  0.2130 -0.1055
 7464TIP3    H143883   0.780   2.641  12.798  0.1473  1.2030  0.7685
 7464TIP3    H243884   0.818   2.605  12.940  1.7084  0.2757  0.1449
 7465TIP3   OH243885   2.285   5.074   6.356  0.4630  0.0941 -0.1100
 7465TIP3    H143886   2.361   5.071   6.414 -0.6512 -0.0106  1.3903
 7465TIP3    H243887   2.212   5.098   6.413 -1.1739 -2.5001 -0.9257
 7466TIP3   OH243888   5.255   3.433   1.067  0.3071 -1.0436  0.7678
 7466TIP3    H143889   5.200   3.430   1.145 -1.8739 -0.7210 -0.6703
 7466TIP3    H243890   5.252   3.343   1.032 -0.6854 -0.6486 -0.1997
 7467TIP3   OH243891   6.562   3.219  10.985 -0.3716  0.4054  0.3510
 7467TIP3    H143892   6.471   3.189  10.974  0.1589 -1.8862  1.4778
 7467TIP3    H243893   6.614   3.152  10.940  0.8800 -0.0522  2.3638
 7468TIP3   OH243894   5.638   3.115   0.873 -0.1938 -0.1211  0.2256
 7468TIP3    H143895   5.734   3.118   0.869 -0.2239 -0.1486 -0.7620
 7468TIP3    H243896   5.611   3.205   0.854 -0.3969 -0.4246 -0.9507
 7469TIP3   OH243897   4.845   5.072   3.863 -0.6404 -0.1003  0.2169
 7469TIP3    H143898   4.815   5.151   3.819  0.0066  0.1730  0.2586
 7469TIP3    H243899   4.911   5.035   3.803  1.2021  0.9568  1.4896
 7470TIP3   OH243900   0.341   3.542  16.730  0.1506  0.1527  0.5025
 7470TIP3    H143901   0.270   3.514  16.672  1.0964  0.1735 -0.7043
 7470TIP3    H243902   0.304   3.535  16.818 -1.4453  0.4783 -0.1052
 7471TIP3   OH243903   2.967   5.594   0.470  0.3096  0.0970  0.3601
 7471TIP3    H143904   2.989   5.546   0.550 -1.0421 -0.9604  0.1276
 7471TIP3    H243905   2.929   5.676   0.501 -1.7528 -0.9861  0.9017
 7472TIP3   OH243906   2.418   5.688   5.591  0.0579  0.3546  0.0086
 7472TIP3    H143907   2.353   5.744   5.634 -0.5037  0.0692 -0.4590
 7472TIP3    H243908   2.488   5.679   5.656 -0.3011  0.7811  0.4651
 7473TIP3   OH243909   1.950   4.100   3.129 -0.9938  0.1907 -0.3146
 7473TIP3    H143910   1.979   4.170   3.070  0.2334  0.4888  0.5908
 7473TIP3    H243911   1.983   4.020   3.090  0.2286  0.4325  0.1772
 7474TIP3   OH243912   3.465   0.147  13.598 -0.0074  0.3271 -0.9341
 7474TIP3    H143913   3.383   0.195  13.590  0.7241  1.6593 -0.7701
 7474TIP3    H243914   3.464   0.084  13.526 -0.0714  2.0589 -2.5103
 7475TIP3   OH243915   2.949   3.399   1.755  0.0257 -0.0133  0.2419
 7475TIP3    H143916   2.975   3.379   1.844 -0.8594 -0.1127  0.4918
 7475TIP3    H243917   3.009   3.350   1.700  0.2735 -0.3319  0.7925
 7476TIP3   OH243918   0.444   1.888  16.114  0.1093  0.1588  0.2123
 7476TIP3    H143919   0.445   1.919  16.204  2.0687  2.6452 -0.5518
 7476TIP3    H243920   0.536   1.868  16.094 -0.2582 -0.2042 -1.2704
 7477TIP3   OH243921   4.801   3.956  16.678  0.0758  0.4296 -0.4751
 7477TIP3    H143922   4.795   3.964  16.774  1.5168  0.5683 -0.3735
 7477TIP3    H243923   4.760   4.036  16.645  0.2607  0.7528  0.0605
 7478TIP3   OH243924   5.336   2.486   2.979 -0.2798 -0.7493  0.0836
 7478TIP3    H143925   5.388   2.558   3.015 -1.7684  1.4734 -1.9357
 7478TIP3    H243926   5.254   2.489   3.027 -1.0726  0.2110 -1.2556
 7479TIP3   OH243927   2.388   2.133   1.613 -0.5074  0.1241 -0.0610
 7479TIP3    H143928   2.405   2.217   1.657 -0.8197  1.0778 -1.6970
 7479TIP3    H243929   2.298   2.141   1.581  0.1031 -0.0493 -1.8949
 7480TIP3   OH243930   1.426   1.267   5.755 -0.0314 -0.0228  0.2572
 7480TIP3    H143931   1.333   1.259   5.776  0.5407 -1.4968  2.6434
 7480TIP3    H243932   1.445   1.191   5.701  0.1383 -0.7996  1.3754
 7481TIP3   OH243933   4.323   3.667  14.844 -0.1339 -0.4040  0.6924
 7481TIP3    H143934   4.361   3.596  14.793  0.3467  1.1958 -1.3258
 7481TIP3    H243935   4.228   3.653  14.838 -0.0541 -0.6620  0.0149
 7482TIP3   OH243936   4.903   2.000  13.944  0.4600 -0.2272 -0.0389
 7482TIP3    H143937   4.858   1.916  13.932  0.2644 -0.0377 -0.6971
 7482TIP3    H243938   4.896   2.043  13.858  1.1906  0.1524  0.0834
 7483TIP3   OH243939   2.514   2.912   3.275  0.0221 -0.1590 -0.0860
 7483TIP3    H143940   2.573   2.845   3.308 -1.2276 -0.7991  0.9520
 7483TIP3    H243941   2.550   2.995   3.308  0.5956 -0.4848  0.1101
 7484TIP3   OH243942   3.943   4.601  13.517  0.0517  0.1421 -0.8484
 7484TIP3    H143943   3.941   4.508  13.539 -0.1707  0.3100 -0.1165
 7484TIP3    H243944   4.028   4.631  13.548  0.0408  0.2198 -0.8949
 7485TIP3   OH243945   2.121   0.431  11.212  0.7141  0.4089  0.3031
 7485TIP3    H143946   2.170   0.438  11.294  0.4148  0.3558  0.4903
 7485TIP3    H243947   2.188   0.419  11.145  1.0319  1.5708  0.3951
 7486TIP3   OH243948   2.157   6.241   2.531 -0.5436  0.1557  0.4009
 7486TIP3    H143949   2.175   6.203   2.445 -1.3540 -0.4771  0.4978
 7486TIP3    H243950   2.064   6.224   2.546 -0.5697  0.8635  1.1094
 7487TIP3   OH243951   4.442   2.179  12.608 -0.3685  0.0728  0.0949
 7487TIP3    H143952   4.467   2.092  12.577  0.1161 -0.1050  0.9489
 7487TIP3    H243953   4.357   2.167  12.649 -0.1275 -0.0881  0.5602
 7488TIP3   OH243954   4.557   0.595  11.573  0.7459  0.9165  0.3853
 7488TIP3    H143955   4.617   0.525  11.547  1.3362  1.7151 -0.4666
 7488TIP3    H243956   4.576   0.609  11.666 -0.0966 -0.7201  0.8467
 7489TIP3   OH243957   2.226   4.770   2.196  0.0790  0.6590  0.1639
 7489TIP3    H143958   2.283   4.778   2.120  0.8338  0.6014  0.7084
 7489TIP3    H243959   2.242   4.682   2.230  0.2877  0.9370  0.8029
 7490TIP3   OH243960   3.330   6.514   3.550 -0.3067  0.3470  0.3730
 7490TIP3    H143961   3.236   6.500   3.557 -0.2587  0.6252  1.8274
 7490TIP3    H243962   3.365   6.429   3.521 -0.8771 -0.1354  1.0728
 7491TIP3   OH243963   4.920   1.729  11.889  0.0455 -0.1693  0.2152
 7491TIP3    H143964   4.952   1.735  11.799 -0.5935 -2.7161 -0.2682
 7491TIP3    H243965   4.885   1.816  11.908  1.1132  0.7215 -1.6168
 7492TIP3   OH243966   6.281   0.004   4.622  0.1818  0.2819 -0.1234
 7492TIP3    H143967   6.325  -0.068   4.666  0.9519  1.2123  0.6950
 7492TIP3    H243968   6.189  -0.022   4.618  0.1131  0.0399  1.8676
 7493TIP3   OH243969   3.433   3.580  16.681 -0.3819 -0.4148  0.2641
 7493TIP3    H143970   3.403   3.513  16.619 -1.4616  0.9476 -0.7316
 7493TIP3    H243971   3.510   3.619  16.638 -0.0988 -0.6127  0.5838
 7494TIP3   OH243972   0.484   0.468   2.192 -0.6122  0.2951 -0.3770
 7494TIP3    H143973   0.448   0.430   2.273 -0.6670  1.3071  0.0875
 7494TIP3    H243974   0.575   0.439   2.190 -0.1316  1.5670  0.9195
 7495TIP3   OH243975   0.398   0.494   3.385 -0.5039 -0.1881 -0.6547
 7495TIP3    H143976   0.488   0.489   3.418 -0.6089  0.7453 -0.2011
 7495TIP3    H243977   0.375   0.586   3.390 -1.3161 -0.3415 -1.2617
 7496TIP3   OH243978   4.930   5.919   5.600  0.4143  1.0050  0.2177
 7496TIP3    H143979   4.872   5.862   5.651 -0.5010  1.7002 -0.0330
 7496TIP3    H243980   5.010   5.924   5.652  0.8567 -1.1964 -0.1514
 7497TIP3   OH243981   4.570   6.711   3.488 -0.6503 -0.2718 -0.0972
 7497TIP3    H143982   4.489   6.762   3.488  0.6908  2.0159 -1.0833
 7497TIP3    H243983   4.599   6.711   3.580 -0.0341  1.9708 -0.2264
 7498TIP3   OH243984   1.360   5.613  12.791  0.6480  0.1518 -0.0056
 7498TIP3    H143985   1.405   5.577  12.714 -1.1941 -1.5099 -0.3606
 7498TIP3    H243986   1.299   5.677  12.755 -0.5076 -0.9244  0.0068
 7499TIP3   OH243987   6.498   2.165   3.647  0.3242 -0.0584 -0.1827
 7499TIP3    H143988   6.408   2.133   3.652  0.2060 -0.2244 -2.3550
 7499TIP3    H243989   6.505   2.204   3.559  2.3335  0.0706 -0.0155
 7500TIP3   OH243990   1.643   2.974  17.021 -0.1727  0.2036  0.4184
 7500TIP3    H143991   1.645   2.880  17.000  2.1931  0.1282  0.7195
 7500TIP3    H243992   1.598   2.979  17.105 -0.4741 -0.6297  0.3205
 7501TIP3   OH243993   5.562   3.607  16.935 -0.3722  0.0337  0.6446
 7501TIP3    H143994   5.530   3.588  16.846  0.3125  0.8248  0.2169
 7501TIP3    H243995   5.654   3.630  16.923 -0.2175 -0.0474  1.5917
 7502TIP3   OH243996   3.998   1.518  15.406 -0.2581  0.1406  0.0085
 7502TIP3    H143997   4.000   1.423  15.423 -1.0275 -0.0105 -0.7226
 7502TIP3    H243998   4.022   1.557  15.490  0.9922 -0.7213  0.0852
 7503TIP3   OH243999   5.602   5.893   3.242  0.1285  0.4464 -0.1232
 7503TIP3    H144000   5.674   5.942   3.282  0.2435  1.1715 -1.1888
 7503TIP3    H244001   5.581   5.941   3.163 -2.2836  0.8865  0.7081
 7504TIP3   OH244002   2.498   5.013  17.265  0.6043  0.2282 -0.3503
 7504TIP3    H144003   2.441   5.090  17.270  0.9006  0.6195 -2.1169
 7504TIP3    H244004   2.586   5.050  17.258  0.8039 -0.2925 -0.5949
 7505TIP3   OH244005   4.353   4.832   1.187 -0.0404 -0.0940 -0.2405
 7505TIP3    H144006   4.428   4.878   1.149 -0.0942 -0.2458 -0.5270
 7505TIP3    H244007   4.278   4.890   1.169 -0.4088 -1.0910 -2.1636
 7506TIP3   OH244008   5.864   5.562   4.202  0.2394  0.4071 -0.6645
 7506TIP3    H144009   5.797   5.545   4.135  0.0671 -0.8784 -0.2121
 7506TIP3    H244010   5.825   5.528   4.283  0.6874  1.3803 -0.0295
 7507TIP3   OH244011   3.351   4.556  15.977  0.4682 -0.1010  0.2445
 7507TIP3    H144012   3.288   4.628  15.984 -1.6822 -1.7816 -0.9582
 7507TIP3    H244013   3.304   4.479  16.008  0.8137 -2.0146 -3.4899
 7508TIP3   OH244014   0.588   3.373  15.359 -0.3893  0.2595  0.3011
 7508TIP3    H144015   0.520   3.440  15.358 -1.8608 -1.1712  1.0088
 7508TIP3    H244016   0.643   3.398  15.434 -1.3567  0.2886  1.0287
 7509TIP3   OH244017   0.673   2.377   4.790 -0.2256 -0.0003 -0.2426
 7509TIP3    H144018   0.644   2.440   4.724 -0.5258  0.8199  0.6459
 7509TIP3    H244019   0.601   2.373   4.852 -0.5639 -1.8722 -0.7092
 7510TIP3   OH244020   5.818   5.999   5.483 -0.3124 -0.3521 -0.6511
 7510TIP3    H144021   5.848   5.935   5.547 -0.2614 -1.2716 -1.5742
 7510TIP3    H244022   5.751   5.953   5.433  0.8557 -0.2416 -2.3832
 7511TIP3   OH244023   6.195   3.666   3.769 -0.5210  0.1875  0.5434
 7511TIP3    H144024   6.109   3.663   3.811 -0.8212  0.4723 -0.0428
 7511TIP3    H244025   6.177   3.648   3.676 -0.1052  1.4752  0.1891
 7512TIP3   OH244026   5.296   0.575  14.483 -0.2561 -0.4613  0.0808
 7512TIP3    H144027   5.293   0.592  14.388  0.1086  0.2814  0.1941
 7512TIP3    H244028   5.390   0.569  14.502 -0.3366 -0.8640  0.3547
 7513TIP3   OH244029   4.377   6.055  15.614 -0.3729 -0.5010  0.1175
 7513TIP3    H144030   4.361   6.116  15.542  2.5347  1.5133  0.9760
 7513TIP3    H244031   4.321   6.087  15.685 -1.7403 -1.2670 -0.5790
 7514TIP3   OH244032   1.541   0.470  10.238  0.3389  0.8188  0.2228
 7514TIP3    H144033   1.475   0.528  10.201  0.0864  2.1619  2.5768
 7514TIP3    H244034   1.536   0.484  10.333  0.0561 -3.2745  1.0254
 7515TIP3   OH244035   1.058   1.879  15.127 -0.0137  0.8200 -0.2647
 7515TIP3    H144036   0.995   1.929  15.179  0.5186 -0.7271  2.0674
 7515TIP3    H244037   1.051   1.914  15.039 -0.6665  3.9670  0.9239
 7516TIP3   OH244038   0.460   0.452  11.989 -0.0284  0.0742  0.1579
 7516TIP3    H144039   0.479   0.361  11.968  0.3469 -0.2601  1.7898
 7516TIP3    H244040   0.529   0.502  11.944  0.8780 -0.6089  0.7706
 7517TIP3   OH244041   1.908   6.144   0.607  0.1709 -0.1470 -0.3981
 7517TIP3    H144042   1.976   6.098   0.558 -0.4657 -1.9421  0.3142
 7517TIP3    H244043   1.874   6.209   0.545  2.6183  0.9629 -0.7004
 7518TIP3   OH244044   1.386   0.777   4.749  0.1226 -0.3395  0.3148
 7518TIP3    H144045   1.427   0.715   4.689  1.0851 -0.6054  1.2210
 7518TIP3    H244046   1.361   0.724   4.825  0.1595  0.2306  0.7321
 7519TIP3   OH244047   4.149   0.885   2.116  0.2253  0.0105  0.1127
 7519TIP3    H144048   4.221   0.827   2.094  0.1739 -0.4179  1.0033
 7519TIP3    H244049   4.073   0.827   2.122  0.3586 -0.0418  2.0164
 7520TIP3   OH244050   0.668   0.137  16.368 -0.4253  0.0155  0.5504
 7520TIP3    H144051   0.749   0.100  16.404  0.1976 -0.1254 -0.9328
 7520TIP3    H244052   0.632   0.067  16.313 -1.3408  0.2327  0.8554
 7521TIP3   OH244053   0.912   1.090   2.450 -0.0536  0.4079  0.1016
 7521TIP3    H144054   0.940   1.095   2.359 -1.2016  1.4970 -0.2341
 7521TIP3    H244055   0.944   1.171   2.489 -0.4147  0.4130  0.3950
 7522TIP3   OH244056   0.724   6.650  11.521 -0.1732  0.1307  0.0291
 7522TIP3    H144057   0.790   6.673  11.456 -1.4218  1.6961 -0.7515
 7522TIP3    H244058   0.727   6.720  11.585 -0.4946 -0.2345  0.4506
 7523TIP3   OH244059   0.334   2.258  16.344 -0.3387  0.6860  0.5425
 7523TIP3    H144060   0.358   2.255  16.437 -0.6211 -1.5734  0.5944
 7523TIP3    H244061   0.253   2.208  16.339  0.4920 -0.5824 -1.1349
 7524TIP3   OH244062   6.178   2.572  13.463 -0.3215  0.8952 -0.0353
 7524TIP3    H144063   6.199   2.643  13.523  2.3201  1.1802 -1.1875
 7524TIP3    H244064   6.185   2.492  13.517  0.7426  1.2299  0.3374
 7525TIP3   OH244065   6.074   3.451   1.230 -0.4571 -0.1121 -0.2528
 7525TIP3    H144066   6.096   3.378   1.172  0.9923  1.5893 -1.9911
 7525TIP3    H244067   6.027   3.512   1.173  1.3802  1.8110  0.2142
 7526TIP3   OH244068   4.093   3.347  15.062  0.0543  0.1322 -0.0083
 7526TIP3    H144069   4.091   3.311  15.150  2.3321  1.2765  0.5768
 7526TIP3    H244070   4.146   3.286  15.011  0.9715  0.7996  0.1141
 7527TIP3   OH244071   0.842   6.712   3.642  0.6522 -0.5804 -0.2985
 7527TIP3    H144072   0.751   6.736   3.626  0.9761  0.6557 -0.4166
 7527TIP3    H244073   0.882   6.708   3.555  0.4423 -2.4142 -0.3582
 7528TIP3   OH244074   4.404   3.119   2.586  0.1559 -0.6865  0.0248
 7528TIP3    H144075   4.396   3.174   2.664  0.2894  1.7170 -1.5408
 7528TIP3    H244076   4.475   3.058   2.606  1.2709  0.9329  1.2188
 7529TIP3   OH244077   6.589   1.685  15.740 -0.5028  0.7477  0.6122
 7529TIP3    H144078   6.535   1.606  15.736  0.0840  0.3873 -0.7438
 7529TIP3    H244079   6.530   1.752  15.773 -0.9495 -0.2878  2.0328
 7530TIP3   OH244080   0.695   1.756   3.841  0.2511  0.4454  0.0474
 7530TIP3    H144081   0.602   1.750   3.862 -0.6315 -0.2142 -3.3333
 7530TIP3    H244082   0.713   1.849   3.834 -0.9963  0.6133 -1.9366
 7531TIP3   OH244083   0.519   4.896  16.146 -0.4550  0.1183 -0.0941
 7531TIP3    H144084   0.596   4.934  16.187 -0.6494 -1.4963  1.9529
 7531TIP3    H244085   0.448   4.955  16.168 -0.5787 -0.7876  2.1814
 7532TIP3   OH244086   2.231   0.218  16.320 -0.2642 -0.1839 -0.5126
 7532TIP3    H144087   2.274   0.280  16.378 -1.7513 -0.0926  0.5751
 7532TIP3    H244088   2.149   0.197  16.365 -0.6316 -1.5304 -1.7298
 7533TIP3   OH244089   0.745   3.139  14.693  0.2123 -0.0191  0.2150
 7533TIP3    H144090   0.689   3.101  14.625  1.7572 -0.3947 -0.8897
 7533TIP3    H244091   0.688   3.145  14.770 -1.7346  0.8236 -1.1923
 7534TIP3   OH244092   3.925   0.980  14.727  0.2874 -0.2919 -0.7640
 7534TIP3    H144093   3.931   1.020  14.640 -1.0403  1.5357 -0.0851
 7534TIP3    H244094   3.848   1.021  14.767  0.1593 -1.9617  0.8538
 7535TIP3   OH244095   3.699   2.646  10.991  0.0319 -0.0519  0.5941
 7535TIP3    H144096   3.626   2.641  10.929  0.6722  0.1282 -0.1935
 7535TIP3    H244097   3.680   2.578  11.056 -1.7119  1.1353  1.3954
 7536TIP3   OH244098   3.717   0.231  16.008 -0.1381  0.1046  0.5239
 7536TIP3    H144099   3.673   0.225  16.093 -1.1000  1.1555  0.1306
 7536TIP3    H244100   3.653   0.275  15.952  0.9333  0.4609 -0.4414
 7537TIP3   OH244101   0.006   2.753  13.848  0.2252 -0.6422 -0.4048
 7537TIP3    H144102  -0.010   2.669  13.805 -0.7360 -0.0779 -1.2155
 7537TIP3    H244103   0.097   2.775  13.827 -0.1562 -0.4801 -2.0323
 7538TIP3   OH244104   6.177   6.799  14.156  0.2831  0.2548  0.0057
 7538TIP3    H144105   6.165   6.870  14.219  0.7466 -0.1336  0.5532
 7538TIP3    H244106   6.268   6.808  14.128  0.1121  0.3495 -0.5189
 7539TIP3   OH244107   4.088   3.598   4.902 -0.3489 -0.1563  0.4454
 7539TIP3    H144108   4.182   3.611   4.913 -0.4994  0.5913  0.9387
 7539TIP3    H244109   4.050   3.634   4.982 -1.0599 -0.4225  0.2332
 7540TIP3   OH244110   5.119   0.824   3.592 -0.5689 -0.1208 -0.4297
 7540TIP3    H144111   5.046   0.840   3.651  0.5904 -0.6386  1.2177
 7540TIP3    H244112   5.127   0.905   3.542 -1.6090  0.3207  0.0837
 7541TIP3   OH244113   0.842   3.174  12.556  0.2702 -0.7946  0.4800
 7541TIP3    H144114   0.823   3.235  12.627  1.3956  0.5740 -0.3241
 7541TIP3    H244115   0.814   3.220  12.477  0.9421 -1.4042 -0.1338
 7542TIP3   OH244116   2.484   2.513   4.580  0.1859  0.0202 -0.1143
 7542TIP3    H144117   2.563   2.524   4.633 -1.0147  0.7299  1.6253
 7542TIP3    H244118   2.430   2.452   4.629 -0.8144  0.3924 -0.7135
 7543TIP3   OH244119   2.325   4.635  15.790 -0.0383 -0.2104 -0.4233
 7543TIP3    H144120   2.321   4.686  15.708 -0.2996  0.6846  0.1307
 7543TIP3    H244121   2.234   4.613  15.809 -0.1819  1.0284  0.4865
 7544TIP3   OH244122   4.918   3.594   5.090 -0.1513 -0.0717  0.3777
 7544TIP3    H144123   4.913   3.512   5.041 -1.2610 -1.1352  2.1338
 7544TIP3    H244124   4.838   3.595   5.144  1.5657  0.3280  3.1424
 7545TIP3   OH244125   0.201   0.322  15.321  0.0622  0.3705  0.3172
 7545TIP3    H144126   0.167   0.393  15.267  1.3219  0.1991 -0.7490
 7545TIP3    H244127   0.210   0.248  15.260 -0.1558 -0.3564  1.1530
 7546TIP3   OH244128   3.972   4.796  13.780 -0.2498  0.4914 -0.1325
 7546TIP3    H144129   4.026   4.870  13.751  1.7150 -0.7141  0.2178
 7546TIP3    H244130   3.890   4.806  13.733  0.9011  1.4821 -2.0563
 7547TIP3   OH244131   0.755   0.145   5.327  0.1479  0.0267  0.1802
 7547TIP3    H144132   0.781   0.082   5.394 -0.7847 -1.2290 -0.5926
 7547TIP3    H244133   0.803   0.118   5.249 -0.5733  0.0082 -0.2667
 7548TIP3   OH244134   4.805   1.581   3.867  0.2507 -0.4772  0.0101
 7548TIP3    H144135   4.756   1.611   3.791 -2.4476 -1.6021  1.1913
 7548TIP3    H244136   4.882   1.537   3.830 -0.6998 -0.5281 -2.0367
 7549TIP3   OH244137   4.912   6.346  14.446  0.0401  0.4428 -0.4602
 7549TIP3    H144138   4.915   6.262  14.402 -0.2419 -0.4490  1.1489
 7549TIP3    H244139   4.973   6.402  14.397  2.5940 -1.5723  0.2265
 7550TIP3   OH244140   5.848   0.589   1.149  0.3886 -0.2244  0.4809
 7550TIP3    H144141   5.792   0.537   1.207 -1.9189  1.7140  0.0931
 7550TIP3    H244142   5.884   0.657   1.205  1.5289 -0.7905  0.4741
 7551TIP3   OH244143   5.082   0.456  13.943 -0.0382 -0.0011 -1.1876
 7551TIP3    H144144   5.152   0.520  13.933  1.6141 -1.4272  0.4796
 7551TIP3    H244145   5.118   0.375  13.906  0.9702 -1.8309  3.1597
 7552TIP3   OH244146   1.304   0.638  10.159  0.1320  0.0831 -0.2889
 7552TIP3    H144147   1.217   0.639  10.119  0.7104  0.2566 -1.5887
 7552TIP3    H244148   1.363   0.666  10.089  1.4963 -2.0827 -0.1106
 7553TIP3   OH244149   5.767   1.009   5.171  0.0300  0.2931  0.1053
 7553TIP3    H144150   5.851   1.030   5.210  0.0926 -0.5083  0.4276
 7553TIP3    H244151   5.708   1.078   5.202  0.5435  0.8121 -0.0636
 7554TIP3   OH244152   4.853   3.398  15.407 -0.2728 -0.4574  0.6210
 7554TIP3    H144153   4.826   3.355  15.488 -0.7056  0.4144  0.9509
 7554TIP3    H244154   4.771   3.426  15.367  0.0383  0.8178  0.8487
 7555TIP3   OH244155   3.169   2.783   2.246 -0.2076 -0.4023 -0.0860
 7555TIP3    H144156   3.166   2.719   2.317 -0.0330 -0.2970  0.0172
 7555TIP3    H244157   3.108   2.749   2.181  0.6464 -1.2171 -0.4952
 7556TIP3   OH244158   0.898   1.137   4.748  0.4757 -0.0766  0.0653
 7556TIP3    H144159   0.956   1.062   4.760  0.6746 -0.2584 -1.7841
 7556TIP3    H244160   0.822   1.102   4.701 -0.5589  0.4256  1.2937
 7557TIP3   OH244161   6.636   4.678  16.752  0.5591 -0.4144  0.0935
 7557TIP3    H144162   6.673   4.743  16.693 -1.3857  1.3823  0.7629
 7557TIP3    H244163   6.605   4.727  16.828 -1.4793 -1.9925  0.4022
 7558TIP3   OH244164   6.640   4.326  12.223 -0.0664  0.6275  0.1715
 7558TIP3    H144165   6.609   4.268  12.153  0.6680  0.5074 -0.0693
 7558TIP3    H244166   6.735   4.313  12.223  0.3873  3.3420 -1.2468
 7559TIP3   OH244167   6.062   2.243   3.824  0.7195  0.0696  0.1548
 7559TIP3    H144168   6.147   2.279   3.799  0.6236 -1.0637 -2.1135
 7559TIP3    H244169   6.028   2.205   3.743 -0.7149 -1.9661  1.6007
 7560TIP3   OH244170   4.668   1.627  11.959 -0.2216 -0.1823 -0.1835
 7560TIP3    H144171   4.752   1.668  11.939 -0.8502  1.2850  0.1144
 7560TIP3    H244172   4.629   1.683  12.027 -1.2255 -1.1217  0.0467
 7561TIP3   OH244173   6.260   5.897  13.971  0.3614 -0.5945 -0.0379
 7561TIP3    H144174   6.330   5.833  13.983  1.7725  1.0023  0.7187
 7561TIP3    H244175   6.186   5.863  14.022  1.2431 -1.3716  0.7459
 7562TIP3   OH244176   3.280   4.117  16.366  0.4245 -0.3796  0.1180
 7562TIP3    H144177   3.295   4.022  16.365  0.1834 -0.4200 -0.8134
 7562TIP3    H244178   3.247   4.135  16.455 -1.4745 -1.5104 -0.2895
 7563TIP3   OH244179   5.377   5.558  12.634 -0.1647 -0.0030 -0.2707
 7563TIP3    H144180   5.399   5.478  12.586 -1.1588  0.0820 -0.9040
 7563TIP3    H244181   5.318   5.529  12.704 -2.6766  0.4223 -2.0607
 7564TIP3   OH244182   3.738   5.403   1.384 -0.0501 -0.0197  0.5231
 7564TIP3    H144183   3.789   5.429   1.308 -0.1450 -0.1061  0.4290
 7564TIP3    H244184   3.648   5.395   1.351 -0.5336  2.2207  1.1354
 7565TIP3   OH244185   0.260   1.534  15.351 -0.1754 -0.6948  0.3845
 7565TIP3    H144186   0.250   1.439  15.350  1.0600 -0.8816  2.0317
 7565TIP3    H244187   0.338   1.551  15.297  0.6418 -0.8063  1.4917
 7566TIP3   OH244188   1.327   1.826  17.218 -0.1127 -0.2503 -0.6637
 7566TIP3    H144189   1.285   1.787  17.295  0.8178 -1.6328 -0.8172
 7566TIP3    H244190   1.421   1.807  17.229  0.1541  0.4053 -1.6405
 7567TIP3   OH244191   6.071   4.705   6.202 -0.6270 -0.0441 -0.6230
 7567TIP3    H144192   6.099   4.613   6.196  0.4762  0.0076  2.1778
 7567TIP3    H244193   6.141   4.754   6.158  2.8064 -0.1426  3.9614
 7568TIP3   OH244194   0.751   3.048  13.001  0.2132  0.2750 -0.4357
 7568TIP3    H144195   0.670   3.057  13.052 -0.1139 -1.4107 -0.6081
 7568TIP3    H244196   0.755   3.128  12.948 -1.4136  0.3320 -0.5213
 7569TIP3   OH244197   5.238   2.762   5.982 -0.3982  0.3499 -0.4517
 7569TIP3    H144198   5.252   2.842   6.033 -0.4278 -0.1455  0.3675
 7569TIP3    H244199   5.147   2.737   6.001 -0.2695 -0.0807 -0.3890
 7570TIP3   OH244200   6.599   2.958  12.487  0.8118 -0.2140  0.2038
 7570TIP3    H144201   6.636   3.011  12.558  0.9362  1.1214 -0.8175
 7570TIP3    H244202   6.674   2.908  12.453  0.8261 -0.5843  0.7682
 7571TIP3   OH244203   3.588   1.617  14.113 -0.2222 -0.1424  0.5684
 7571TIP3    H144204   3.619   1.707  14.116  0.8641 -0.4288 -0.8142
 7571TIP3    H244205   3.520   1.617  14.045  0.8168 -0.6251 -0.5022
 7572TIP3   OH244206   0.795   0.720  15.598 -0.2699 -0.3503  0.0255
 7572TIP3    H144207   0.833   0.806  15.583 -1.2494  0.0090 -0.5218
 7572TIP3    H244208   0.864   0.658  15.576  0.0894  0.2794 -0.6442
 7573TIP3   OH244209   4.515   1.957  15.309 -0.2170  0.1634 -0.2014
 7573TIP3    H144210   4.431   1.925  15.341 -0.7110  0.7594 -0.9027
 7573TIP3    H244211   4.494   2.018  15.239  0.8362 -0.7147 -1.3398
 7574TIP3   OH244212   4.826   2.092   5.220 -0.0583  0.2926 -1.1837
 7574TIP3    H144213   4.859   2.004   5.236 -0.2968  0.4700  0.5703
 7574TIP3    H244214   4.732   2.086   5.237 -0.3805  0.5233 -2.7792
 7575TIP3   OH244215   2.489   2.619  15.110 -0.3190  0.2100  0.3513
 7575TIP3    H144216   2.396   2.617  15.131 -0.5667 -0.0895 -0.7154
 7575TIP3    H244217   2.514   2.711  15.117 -1.3540  0.7405 -1.9872
 7576TIP3   OH244218   3.978   1.258  15.491  0.3142 -0.2301 -0.1161
 7576TIP3    H144219   3.901   1.218  15.450  0.4665  0.0353 -0.6706
 7576TIP3    H244220   4.052   1.209  15.456  0.4518  0.0421 -0.2061
 7577TIP3   OH244221   6.197   3.163  11.515  0.4747 -0.3892  0.3266
 7577TIP3    H144222   6.118   3.202  11.552 -0.8077 -0.9795 -1.6387
 7577TIP3    H244223   6.207   3.081  11.563 -1.4639 -1.3991 -0.8728
 7578TIP3   OH244224   6.142   5.393   3.719  0.0751  0.0684 -0.7742
 7578TIP3    H144225   6.163   5.376   3.811 -1.4368  0.2864 -0.3611
 7578TIP3    H244226   6.123   5.306   3.683  1.1286 -0.0701 -1.0144
 7579TIP3   OH244227   0.247   2.552  10.906 -0.1065 -0.1707 -0.1750
 7579TIP3    H144228   0.211   2.577  10.821  3.0472  1.6052 -1.1542
 7579TIP3    H244229   0.236   2.631  10.961 -0.3638 -0.6415  0.4688
 7580TIP3   OH244230   5.581   6.300   5.986  0.2427  0.2405 -0.2096
 7580TIP3    H144231   5.610   6.392   5.978  0.9127 -0.0884 -2.6557
 7580TIP3    H244232   5.493   6.306   6.022 -0.4720  2.0436 -2.0053
 7581TIP3   OH244233   1.335   3.076  13.517 -0.2368  0.0120  0.1667
 7581TIP3    H144234   1.409   3.074  13.577  0.5768 -0.1257 -0.8282
 7581TIP3    H244235   1.311   3.169  13.513  1.0652  0.3284 -0.9125
 7582TIP3   OH244236   4.225   1.121   2.693  0.3416  0.3634  0.0872
 7582TIP3    H144237   4.219   1.186   2.763  1.7476  1.6847 -0.9545
 7582TIP3    H244238   4.134   1.099   2.674 -0.0890 -0.1107  2.3368
 7583TIP3   OH244239   6.171   4.595  12.346  0.6312  0.0081 -0.2631
 7583TIP3    H144240   6.200   4.525  12.288  1.8250 -0.1464  0.4789
 7583TIP3    H244241   6.160   4.671  12.289  0.0961 -0.5778 -0.9499
 7584TIP3   OH244242   2.727   5.743  15.508 -0.1800 -0.1275 -0.5132
 7584TIP3    H144243   2.690   5.737  15.595 -1.4385  1.5125 -0.8930
 7584TIP3    H244244   2.822   5.740  15.522 -0.3676 -1.1404  0.7610
 7585TIP3   OH244245   1.881   4.867  12.647 -0.1950  0.1991  0.8613
 7585TIP3    H144246   1.844   4.896  12.563  0.5594 -4.2471 -1.3023
 7585TIP3    H244247   1.958   4.922  12.659 -0.1457  0.7603 -1.5423
 7586TIP3   OH244248   1.771   2.833  15.855  0.2028 -0.7503  1.2369
 7586TIP3    H144249   1.777   2.737  15.858 -1.5151 -0.9003  0.9297
 7586TIP3    H244250   1.679   2.852  15.872 -0.4033  0.6019 -2.5274
 7587TIP3   OH244251   6.771   4.101   4.125  0.4049  0.5344  0.7092
 7587TIP3    H144252   6.736   4.171   4.181  1.8543 -0.2195  2.6438
 7587TIP3    H244253   6.727   4.114   4.041 -0.3498  2.9592  1.3964
 7588TIP3   OH244254   1.740   6.123  15.463  0.3097 -0.1278  0.3267
 7588TIP3    H144255   1.688   6.126  15.383  0.6797  1.4033  0.1221
 7588TIP3    H244256   1.719   6.204  15.509  1.1566 -0.3322  1.1175
 7589TIP3   OH244257   6.447   6.424   3.114 -0.1105 -0.1420  0.2623
 7589TIP3    H144258   6.379   6.397   3.176 -0.4908  0.4218  0.0952
 7589TIP3    H244259   6.404   6.423   3.029 -0.3170  1.5391  0.3144
 7590TIP3   OH244260   5.330   3.415   0.729  0.1710  0.2343  0.0350
 7590TIP3    H144261   5.400   3.477   0.708 -1.5155  1.6937 -1.5803
 7590TIP3    H244262   5.253   3.450   0.686 -1.4362 -1.7093  1.1541
 7591TIP3   OH244263   1.657   0.531  16.714 -0.3433  0.8017  0.0832
 7591TIP3    H144264   1.740   0.506  16.754 -1.4935 -0.2581  2.0104
 7591TIP3    H244265   1.617   0.448  16.689 -0.9416  1.2728 -0.5533
 7592TIP3   OH244266   4.320   2.507  17.188 -0.2749 -0.3567  0.1749
 7592TIP3    H144267   4.296   2.588  17.233  2.0036 -0.4795  1.8007
 7592TIP3    H244268   4.261   2.441  17.226 -0.3353  0.0770  0.8625
 7593TIP3   OH244269   3.068   4.343   0.768 -0.1321 -0.1677 -0.4420
 7593TIP3    H144270   3.050   4.436   0.778 -1.4252 -0.2882 -1.4503
 7593TIP3    H244271   3.077   4.330   0.674  0.1359 -1.0559 -0.3069
 7594TIP3   OH244272   1.729   6.149  16.235 -0.0839 -0.1388  0.3345
 7594TIP3    H144273   1.650   6.150  16.288  0.5014 -1.2103  1.2608
 7594TIP3    H244274   1.723   6.067  16.185 -0.3991  0.6297 -0.9383
 7595TIP3   OH244275   2.067   4.452   0.815 -0.3068  0.0098 -0.4905
 7595TIP3    H144276   2.001   4.404   0.865 -0.8822  0.0382 -1.1999
 7595TIP3    H244277   2.083   4.531   0.866  0.0805 -0.5657  0.2979
 7596TIP3   OH244278   0.134   0.884  17.278 -0.9668 -0.0558  0.3449
 7596TIP3    H144279   0.106   0.947  17.345  0.3274 -0.0240  0.8859
 7596TIP3    H244280   0.074   0.899  17.205 -1.6473  0.7507  1.0379
 7597TIP3   OH244281   5.883   0.586  14.261  0.3798 -0.0943  0.1912
 7597TIP3    H144282   5.920   0.586  14.349 -0.2270  0.9419  0.4576
 7597TIP3    H244283   5.881   0.494  14.236  0.5137 -0.3992  1.2735
 7598TIP3   OH244284   6.268   5.000  15.487  0.1467 -0.0664  0.2155
 7598TIP3    H144285   6.361   5.012  15.506 -0.2808 -0.3611  2.9311
 7598TIP3    H244286   6.241   4.930  15.547 -1.3640 -1.6418 -2.1584
 7599TIP3   OH244287   6.041   0.198  13.411  0.2027 -0.2034 -0.4334
 7599TIP3    H144288   6.048   0.242  13.326 -1.2790  0.7680 -0.0926
 7599TIP3    H244289   6.010   0.266  13.470 -2.1441 -1.6838  0.1450
 7600TIP3   OH244290   5.060   3.527  16.356 -0.1310 -0.6441  0.2935
 7600TIP3    H144291   4.979   3.499  16.400 -0.4068  0.5548  0.5916
 7600TIP3    H244292   5.050   3.622  16.347  0.7913 -0.6243 -0.6217
 7601TIP3   OH244293   5.125   6.520   5.502  0.3037 -0.2687  0.0075
 7601TIP3    H144294   5.081   6.435   5.506 -0.7756  0.2343 -0.5612
 7601TIP3    H244295   5.185   6.520   5.577 -1.2472 -0.6928  1.3181
 7602TIP3   OH244296   5.733   4.598  14.699 -0.1893  0.1563 -0.7652
 7602TIP3    H144297   5.783   4.517  14.691 -0.7342 -0.2989  0.2796
 7602TIP3    H244298   5.672   4.595  14.625 -1.7613 -1.5379  0.5122
 7603TIP3   OH244299   6.507   6.505   5.613  0.3630 -0.0107 -0.2407
 7603TIP3    H144300   6.507   6.600   5.622 -0.4055 -0.2433  4.2618
 7603TIP3    H244301   6.417   6.483   5.590 -0.3717  0.2688  2.1573
 7604TIP3   OH244302   1.501   1.333   3.020 -0.3400  0.1860 -0.6043
 7604TIP3    H144303   1.578   1.347   3.075 -1.5456 -2.0658  1.9063
 7604TIP3    H244304   1.433   1.387   3.060 -0.9921 -0.7355 -0.4430
 7605TIP3   OH244305   6.388   6.770  13.435 -0.1217 -0.2106 -0.2295
 7605TIP3    H144306   6.299   6.778  13.471  0.4117  3.1835  0.6511
 7605TIP3    H244307   6.445   6.775  13.511  0.8830  0.6446 -1.0134
 7606TIP3   OH244308   2.776   6.683  11.844 -0.0919  0.4368  0.2587
 7606TIP3    H144309   2.804   6.652  11.758  0.2098  0.9014  0.1822
 7606TIP3    H244310   2.792   6.777  11.841 -2.0145  0.7875  0.1002
 7607TIP3   OH244311   6.372   1.201   3.126  0.9450 -0.4470 -0.3341
 7607TIP3    H144312   6.413   1.266   3.068 -0.2853 -0.2521 -1.0165
 7607TIP3    H244313   6.282   1.231   3.136  0.8122 -1.1417  0.7283
 7608TIP3   OH244314   2.320   4.077  14.533 -0.3259  0.5055 -0.1515
 7608TIP3    H144315   2.360   4.063  14.447  1.0488 -1.3474  0.7178
 7608TIP3    H244316   2.367   4.150  14.571  0.8254 -0.2947  0.0032
 7609TIP3   OH244317   0.611   2.835  15.281  0.4458 -0.1974 -0.2417
 7609TIP3    H144318   0.572   2.916  15.245 -0.3920 -0.5824 -0.2253
 7609TIP3    H244319   0.653   2.863  15.362 -1.0982 -0.0008  0.5416
 7610TIP3   OH244320   6.140   3.557   4.190  0.3996  0.0033  0.0597
 7610TIP3    H144321   6.224   3.511   4.185  0.3562 -0.2910  1.4821
 7610TIP3    H244322   6.076   3.496   4.152  0.6729 -0.1855 -0.0991
 7611TIP3   OH244323   6.557   1.306  17.177 -0.3473  0.2055 -0.6853
 7611TIP3    H144324   6.553   1.212  17.161 -0.7488  0.4315 -2.0202
 7611TIP3    H244325   6.478   1.325  17.228  0.4758 -0.3804  0.8875
 7612TIP3   OH244326   2.842   6.541   3.667  0.2687  0.6298  0.5171
 7612TIP3    H144327   2.852   6.635   3.651 -0.2059  0.7383  0.8534
 7612TIP3    H244328   2.901   6.523   3.741 -0.2670  0.8319  1.0042
 7613TIP3   OH244329   1.681   3.057  12.942 -0.0264 -0.8955 -0.2278
 7613TIP3    H144330   1.643   3.022  12.862 -1.4236  1.1304 -0.5456
 7613TIP3    H244331   1.705   2.980  12.994  0.2100 -2.2475 -2.2478
 7614TIP3   OH244332   1.258   1.927   3.076  0.4012 -0.8542 -0.5133
 7614TIP3    H144333   1.305   1.870   3.138  1.5108  1.0194  0.4795
 7614TIP3    H244334   1.168   1.894   3.076  0.9985 -2.6197 -0.0572
 7615TIP3   OH244335   3.991   4.186   4.817  0.5811 -0.3114 -0.4065
 7615TIP3    H144336   4.060   4.124   4.794  2.2026  1.5207 -0.7232
 7615TIP3    H244337   3.989   4.249   4.745  0.5593  1.2620  0.8924
 7616TIP3   OH244338   6.043   5.452  16.850 -0.0003 -0.3634 -0.2425
 7616TIP3    H144339   6.123   5.402  16.834 -1.8252 -2.9715 -2.1822
 7616TIP3    H244340   6.013   5.478  16.763 -1.4506  0.2625  0.4121
 7617TIP3   OH244341   2.037   6.809   5.951 -0.4698  0.5195  0.4640
 7617TIP3    H144342   2.124   6.792   5.915 -0.7432  0.5035 -0.1998
 7617TIP3    H244343   2.049   6.888   6.004 -0.1232  0.7183  0.0965
 7618TIP3   OH244344   1.299   0.424  13.982  0.1954  0.0587  0.5426
 7618TIP3    H144345   1.264   0.492  13.924  1.1560  0.9232  0.9398
 7618TIP3    H244346   1.376   0.464  14.021  0.4513 -1.0732  1.2339
 7619TIP3   OH244347   3.402   2.095  10.910  0.2127 -0.7323  0.0340
 7619TIP3    H144348   3.429   2.023  10.966 -0.2141  0.0066  1.2419
 7619TIP3    H244349   3.476   2.156  10.911  0.2514 -0.7739 -0.3020
 7620TIP3   OH244350   2.932   2.859  12.466 -0.2774  0.0237  0.4225
 7620TIP3    H144351   2.875   2.798  12.418  0.1694 -0.1612  0.1132
 7620TIP3    H244352   3.001   2.882  12.403  0.3915 -0.3162  1.0105
 7621TIP3   OH244353   3.980   4.065   0.759 -0.0175 -0.0202  0.1993
 7621TIP3    H144354   3.986   4.149   0.804 -0.0212  0.2961 -0.3820
 7621TIP3    H244355   3.886   4.045   0.758 -0.3445  1.2783 -1.9868
 7622TIP3   OH244356   5.109   1.736   5.117  0.0307  0.7163  0.1790
 7622TIP3    H144357   5.136   1.658   5.165 -1.3353 -1.5479 -2.4402
 7622TIP3    H244358   5.129   1.716   5.026 -1.2128  3.0641 -0.6957
 7623TIP3   OH244359   2.890   2.143  13.306  0.3543  0.0139 -0.5397
 7623TIP3    H144360   2.961   2.140  13.371  0.6553 -1.0769 -0.8927
 7623TIP3    H244361   2.820   2.093  13.347  0.1271  0.2953 -0.5852
 7624TIP3   OH244362   3.330   1.876   1.455  0.3557  0.0031  0.3090
 7624TIP3    H144363   3.315   1.923   1.537  0.0545  2.7063 -1.1841
 7624TIP3    H244364   3.425   1.881   1.442  0.1118  2.6341 -1.0866
 7625TIP3   OH244365   0.051   6.189   1.644  0.4215  0.1341  0.3311
 7625TIP3    H144366   0.051   6.282   1.664  1.0110  0.4583 -1.0691
 7625TIP3    H244367  -0.041   6.163   1.649  0.2307  0.8355  0.5141
 7626TIP3   OH244368   3.114   1.871   1.044 -0.0088 -0.0411 -0.1693
 7626TIP3    H144369   3.209   1.861   1.036 -0.2703 -1.4632 -1.9281
 7626TIP3    H244370   3.098   1.964   1.028  1.0117  0.0446 -0.7258
 7627TIP3   OH244371   0.525   5.731  13.948 -0.3249 -0.5557  0.2856
 7627TIP3    H144372   0.549   5.648  13.988  0.9507  0.0825  0.9287
 7627TIP3    H244373   0.530   5.794  14.020  0.9982  0.4431 -0.6339
 7628TIP3   OH244374   1.217   6.210   0.191  0.2236  0.0276 -0.0370
 7628TIP3    H144375   1.197   6.241   0.279  0.1683  0.0879 -0.0712
 7628TIP3    H244376   1.270   6.131   0.206 -0.0221 -0.1239  0.0542
 7629TIP3   OH244377   1.496   4.231   2.176  0.0486  0.1643  0.3635
 7629TIP3    H144378   1.414   4.279   2.190 -0.6529 -1.2927  1.4073
 7629TIP3    H244379   1.503   4.224   2.080 -1.0413  0.3044  0.2578
 7630TIP3   OH244380   1.757   0.979  14.579  0.2508  0.2644 -0.6577
 7630TIP3    H144381   1.842   1.019  14.595  0.0283  1.2094 -1.6613
 7630TIP3    H244382   1.697   1.053  14.569 -0.7069 -0.3828  0.0948
 7631TIP3   OH244383   0.059   3.926   2.441  0.3438  0.3807  0.5801
 7631TIP3    H144384   0.034   3.922   2.349 -1.2931 -1.3479  1.0415
 7631TIP3    H244385   0.119   3.852   2.453 -0.4538 -0.1808  1.1664
 7632TIP3   OH244386   2.129   0.159  16.082  0.4363 -0.2099  0.3560
 7632TIP3    H144387   2.173   0.172  16.166  1.8074 -0.3333 -0.3163
 7632TIP3    H244388   2.196   0.120  16.025  0.3518  2.1691 -1.5377
 7633TIP3   OH244389   2.553   0.503   5.542 -0.5263  0.1669 -0.2707
 7633TIP3    H144390   2.549   0.462   5.455 -0.0799  2.6785 -1.5796
 7633TIP3    H244391   2.506   0.586   5.532  1.9217  1.8433  1.0397
 7634TIP3   OH244392   2.843   5.675  16.374 -0.4690  0.5637 -0.3315
 7634TIP3    H144393   2.863   5.596  16.324 -0.0453  0.0295  0.6406
 7634TIP3    H244394   2.918   5.684  16.434 -0.5642  1.6469 -0.3614
 7635TIP3   OH244395   3.800   0.635  12.829  0.3863 -0.2679 -0.0780
 7635TIP3    H144396   3.710   0.667  12.833  0.7161  0.5891  0.6686
 7635TIP3    H244397   3.835   0.649  12.917  0.8726 -1.7592  0.0022
 7636TIP3   OH244398   4.594   4.762   0.377  0.2833 -0.0558 -0.0092
 7636TIP3    H144399   4.678   4.721   0.398 -0.9820 -1.6831  2.2499
 7636TIP3    H244400   4.601   4.851   0.411  1.0342 -0.2202  0.2726
 7637TIP3   OH244401   5.982   5.752   1.371  0.2852 -0.1873 -0.3366
 7637TIP3    H144402   6.013   5.719   1.287 -0.0012  0.5038 -0.7272
 7637TIP3    H244403   5.907   5.697   1.393 -0.5600  0.5547 -1.2715
 7638TIP3   OH244404   4.602   6.392  14.463  0.3476 -0.3490  0.2811
 7638TIP3    H144405   4.696   6.375  14.448  0.6913  1.2318  0.5441
 7638TIP3    H244406   4.567   6.407  14.375  0.6161  0.3534  0.2880
 7639TIP3   OH244407   3.407   2.994   1.943 -0.0153  0.6041  0.0368
 7639TIP3    H144408   3.471   3.011   1.873 -0.9033 -1.0665 -1.2309
 7639TIP3    H244409   3.458   2.948   2.010  0.4831  0.7603 -0.2236
 7640TIP3   OH244410   1.300   4.900   5.483 -0.2404  0.6063  0.0918
 7640TIP3    H144411   1.217   4.905   5.530  0.4828  0.4664  1.4384
 7640TIP3    H244412   1.275   4.893   5.390 -1.7788 -1.2039  0.5779
 7641TIP3   OH244413   2.067   6.036   2.719 -0.0902 -0.0551  0.0944
 7641TIP3    H144414   2.074   6.106   2.783 -0.9638 -0.0625  0.2096
 7641TIP3    H244415   2.041   6.080   2.638  1.2661 -0.0099 -0.3476
 7642TIP3   OH244416   1.948   3.209  14.544 -0.2888 -0.1077 -0.0235
 7642TIP3    H144417   1.972   3.198  14.636 -0.0319  1.1138  0.0776
 7642TIP3    H244418   1.862   3.251  14.546 -0.2106  0.0741 -0.3331
 7643TIP3   OH244419   1.838   3.624  14.372 -0.1556  0.3630  0.3453
 7643TIP3    H144420   1.895   3.665  14.306 -0.7539  2.0882  0.8469
 7643TIP3    H244421   1.751   3.625  14.332 -0.1112 -0.8580  0.1930
 7644TIP3   OH244422   1.435   5.904  13.731 -0.3736  0.1219  0.7144
 7644TIP3    H144423   1.434   5.885  13.825  2.0621  1.2667  1.0274
 7644TIP3    H244424   1.523   5.880  13.702  0.1483  3.0550 -0.5071
 7645TIP3   OH244425   4.055   5.740  15.829  0.6326  0.1127 -0.4953
 7645TIP3    H144426   4.006   5.815  15.795  0.1766  0.4191  0.8031
 7645TIP3    H244427   3.992   5.692  15.882  1.6398  0.3956  1.0349
 7646TIP3   OH244428   4.922   3.187   0.066 -0.0698 -0.2158 -0.3683
 7646TIP3    H144429   4.857   3.150   0.006 -0.8090 -4.0275  2.3556
 7646TIP3    H244430   5.002   3.139   0.047  0.5924  0.8979 -0.4365
 7647TIP3   OH244431   5.561   1.136   5.302 -0.1837  0.2717  0.5754
 7647TIP3    H144432   5.555   1.178   5.388 -1.4454 -0.6154  0.9510
 7647TIP3    H244433   5.497   1.065   5.305 -0.8731  0.7445 -1.4099
 7648TIP3   OH244434   2.211   5.291   0.596 -0.2363 -0.5236  0.3632
 7648TIP3    H144435   2.261   5.372   0.605  1.0122 -0.9324 -1.9965
 7648TIP3    H244436   2.276   5.221   0.602 -1.0326 -1.2673  0.5922
 7649TIP3   OH244437   5.879   2.918  17.293  0.0043  0.1506  0.2134
 7649TIP3    H144438   5.889   3.009  17.264  1.8729 -0.3421 -0.8318
 7649TIP3    H244439   5.819   2.880  17.230  0.4881  0.2536 -0.3164
 7650TIP3   OH244440   2.970   5.391   1.313  0.0763  0.4759  0.3044
 7650TIP3    H144441   2.890   5.377   1.364 -0.4415 -2.1532 -1.0789
 7650TIP3    H244442   2.939   5.435   1.233 -0.0688 -0.8269 -0.3717
 7651TIP3   OH244443   3.118   2.922   3.747  1.0713 -0.1646  0.2415
 7651TIP3    H144444   3.072   2.875   3.678 -0.6369  0.5552  0.8265
 7651TIP3    H244445   3.179   2.979   3.700  1.3916 -1.1298 -0.5608
 7652TIP3   OH244446   5.499   5.576  14.885 -0.2371 -0.0706 -0.4512
 7652TIP3    H144447   5.492   5.485  14.857  1.5662 -0.4230  0.0872
 7652TIP3    H244448   5.449   5.581  14.966 -0.3130 -0.6017 -0.4645
 7653TIP3   OH244449   0.820   2.201   0.534  0.5617 -0.0110 -0.0869
 7653TIP3    H144450   0.789   2.255   0.461 -0.6277 -0.4023  0.1005
 7653TIP3    H244451   0.915   2.202   0.526  0.4757  0.3701 -1.3440
 7654TIP3   OH244452   3.251   2.407  10.970  0.0424  0.1795 -0.3142
 7654TIP3    H144453   3.319   2.466  10.938 -1.0590  3.0702  2.0732
 7654TIP3    H244454   3.169   2.454  10.952 -1.2167 -2.2442 -1.2757
 7655TIP3   OH244455   5.165   0.772   1.819 -0.8383 -0.3973 -0.0388
 7655TIP3    H144456   5.238   0.815   1.774 -0.6926 -0.3893  0.2023
 7655TIP3    H244457   5.091   0.832   1.809 -0.3536  0.4641  1.2730
 7656TIP3   OH244458   1.313   1.531  11.686  0.5581  0.2677  0.2237
 7656TIP3    H144459   1.287   1.447  11.648 -3.0829  1.6524 -0.7712
 7656TIP3    H244460   1.347   1.581  11.613  0.1478  0.5504  0.2197
 7657TIP3   OH244461   2.778   4.324  14.682 -0.2815  0.0538 -0.3984
 7657TIP3    H144462   2.873   4.317  14.685 -0.3079 -0.1401  0.3486
 7657TIP3    H244463   2.747   4.234  14.688 -0.5098  0.0917 -0.9871
 7658TIP3   OH244464   5.699   1.505  11.670  0.2558 -0.6675 -0.0765
 7658TIP3    H144465   5.726   1.488  11.580  3.0961  2.5549 -0.0531
 7658TIP3    H244466   5.768   1.467  11.724 -1.2085 -2.2130  0.8221
 7659TIP3   OH244467   6.375   3.409   4.198 -0.8097 -0.0778  0.3164
 7659TIP3    H144468   6.426   3.476   4.152  0.2154  0.3241  1.9531
 7659TIP3    H244469   6.441   3.345   4.226 -1.2682  0.0867  1.8579
 7660TIP3   OH244470   4.477   4.511   0.329 -0.5205  0.5780  0.0570
 7660TIP3    H144471   4.446   4.488   0.417 -1.1153  1.7843  0.1902
 7660TIP3    H244472   4.509   4.600   0.338  0.6181  0.2615 -0.6861
 7661TIP3   OH244473   1.475   0.829   6.235 -0.0658  0.2806 -0.3454
 7661TIP3    H144474   1.497   0.738   6.254 -0.6955  0.1293 -0.3100
 7661TIP3    H244475   1.463   0.868   6.322  0.8786  0.5793 -0.3376
 7662TIP3   OH244476   2.666   6.486   2.853 -0.0476  0.6398  0.0769
 7662TIP3    H144477   2.601   6.556   2.855 -2.3620 -1.3422  2.0223
 7662TIP3    H244478   2.634   6.427   2.784 -0.2878 -0.2932  0.9674
 7663TIP3   OH244479   1.520   5.128  16.034 -0.2758  0.2356 -0.1920
 7663TIP3    H144480   1.444   5.185  16.029 -1.0504 -0.7996 -0.4997
 7663TIP3    H244481   1.557   5.128  15.946  2.2173  3.4912  0.6637
 7664TIP3   OH244482   0.279   1.472  13.980 -0.1060  0.3827 -0.7025
 7664TIP3    H144483   0.372   1.467  13.959 -0.0831  2.1448 -1.1976
 7664TIP3    H244484   0.252   1.381  13.992  1.7865 -0.1491 -0.0145
 7665TIP3   OH244485   2.208   6.354  13.003 -0.2239  1.1584  0.4775
 7665TIP3    H144486   2.176   6.268  12.976 -1.1627  1.3835  0.8307
 7665TIP3    H244487   2.170   6.368  13.090  1.4600  1.1164  1.2701
 7666TIP3   OH244488   2.715   5.426  14.813 -0.4903 -0.2700  0.2112
 7666TIP3    H144489   2.694   5.505  14.863 -0.9625 -0.5962  0.5392
 7666TIP3    H244490   2.655   5.360  14.847  0.6741 -1.0883  0.7706
 7667TIP3   OH244491   4.023   5.803   4.198  0.6890 -0.0098 -0.0359
 7667TIP3    H144492   4.053   5.849   4.277  1.0599 -1.6103  0.7966
 7667TIP3    H244493   3.942   5.847   4.173  0.6323  0.5994  1.1752
 7668TIP3   OH244494   1.434   3.291   4.253  0.2364 -0.3264 -0.7404
 7668TIP3    H144495   1.445   3.370   4.199 -0.5685  0.0335 -0.3966
 7668TIP3    H244496   1.519   3.277   4.293  0.6167 -0.1115 -1.4517
 7669TIP3   OH244497   0.021   3.070   2.046  0.1275  0.5558  0.0581
 7669TIP3    H144498   0.000   2.977   2.035  0.9507  0.6653 -3.6845
 7669TIP3    H244499   0.117   3.074   2.044  0.0989  1.5129  0.0230
 7670TIP3   OH244500   0.889   1.730  16.721  0.3369 -0.2543  0.4747
 7670TIP3    H144501   0.875   1.643  16.759 -1.6878  0.7365  2.2198
 7670TIP3    H244502   0.895   1.789  16.797  3.6908  0.9796 -0.5556
 7671TIP3   OH244503   0.837   3.469   2.801 -0.1188 -0.3875  0.1650
 7671TIP3    H144504   0.856   3.399   2.864  0.0537 -2.4623 -2.0452
 7671TIP3    H244505   0.923   3.506   2.780  0.3969 -2.4366 -1.7378
 7672TIP3   OH244506   1.128   1.743   4.555 -0.4818  0.1896 -0.0539
 7672TIP3    H144507   1.220   1.735   4.530  0.1210  0.5112  1.9002
 7672TIP3    H244508   1.121   1.831   4.594 -2.0704  0.9363 -1.8509
 7673TIP3   OH244509   3.175   2.485   5.633 -0.2525 -0.0625  0.2703
 7673TIP3    H144510   3.212   2.457   5.717  1.7173  1.5651  0.0287
 7673TIP3    H244511   3.083   2.459   5.638 -0.5448  1.0803  3.4901
 7674TIP3   OH244512   5.768   3.264   5.613 -0.3693  0.2446 -0.1932
 7674TIP3    H144513   5.796   3.355   5.624 -1.2979  0.3941  1.2279
 7674TIP3    H244514   5.844   3.220   5.574  1.0835  1.0873  1.5279
 7675TIP3   OH244515   5.293   1.334   2.222  0.0461  0.3474  0.5780
 7675TIP3    H144516   5.260   1.251   2.258 -1.4923  0.4284 -0.5459
 7675TIP3    H244517   5.282   1.397   2.294  1.3734 -0.4087  1.4956
 7676TIP3   OH244518   5.442   2.601   2.157  0.9873  0.1487  0.4179
 7676TIP3    H144519   5.389   2.681   2.154  1.3748  0.4826  1.6113
 7676TIP3    H244520   5.530   2.632   2.181  1.6812 -0.4177 -1.2485
 7677TIP3   OH244521   3.296   4.962  12.672 -0.7784  0.3459  0.7579
 7677TIP3    H144522   3.386   4.938  12.693 -0.1013  2.1955  0.1778
 7677TIP3    H244523   3.303   5.008  12.588 -2.3841 -0.2460  0.2780
 7678TIP3   OH244524   6.303   6.047   4.147  0.2085  0.2514  0.0370
 7678TIP3    H144525   6.283   5.954   4.136  0.3498  0.0684  1.2389
 7678TIP3    H244526   6.232   6.080   4.201 -1.2948  1.4611 -2.5282
 7679TIP3   OH244527   0.513   2.217   4.559 -0.1405 -0.2521  0.1227
 7679TIP3    H144528   0.474   2.302   4.575  2.0984  0.9096 -0.1751
 7679TIP3    H244529   0.529   2.180   4.646 -0.6063 -0.1188  0.2638
 7680TIP3   OH244530   0.629   5.752  13.327  0.8286 -0.2477  0.0363
 7680TIP3    H144531   0.574   5.677  13.350  0.8667 -0.7490 -1.3604
 7680TIP3    H244532   0.674   5.775  13.408  1.1456 -2.0425  0.4155
 7681TIP3   OH244533   1.760   6.105  13.913 -0.4198 -0.5085  0.7361
 7681TIP3    H144534   1.799   6.176  13.964 -0.3289 -0.6991  0.9322
 7681TIP3    H244535   1.739   6.038  13.978 -2.4586  0.1812  0.8770
 7682TIP3   OH244536   0.443   0.422  17.170  0.2105  0.1081 -0.5847
 7682TIP3    H144537   0.460   0.512  17.141 -0.8910  1.1014  1.6572
 7682TIP3    H244538   0.348   0.413  17.165  0.0859 -0.0885  1.3934
 7683TIP3   OH244539   6.724   3.240  12.512 -0.5732  0.0899 -0.1117
 7683TIP3    H144540   6.765   3.253  12.598 -2.7280 -1.3193  1.2449
 7683TIP3    H244541   6.766   3.161  12.477 -1.3138 -0.7175  0.7706
 7684TIP3   OH244542   5.009   5.202   2.911 -0.2739  0.1171 -0.0441
 7684TIP3    H144543   5.006   5.106   2.915 -0.9943  0.1598  0.9661
 7684TIP3    H244544   5.100   5.222   2.892 -0.3226 -0.7845 -1.4113
 7685TIP3   OH244545   1.791   0.623  14.248 -0.2763  0.4743  0.3406
 7685TIP3    H144546   1.799   0.698  14.190 -0.3079 -0.5788 -1.0669
 7685TIP3    H244547   1.880   0.605  14.277  0.4167 -1.3067 -2.4740
 7686TIP3   OH244548   0.288   0.670  15.979 -1.3291  0.1208 -0.5481
 7686TIP3    H144549   0.295   0.720  15.898 -1.2196 -0.6606 -1.0277
 7686TIP3    H244550   0.307   0.580  15.954 -1.5500 -0.1741  0.2985
 7687TIP3   OH244551   4.451   6.491  16.090 -0.2796  0.0363 -0.0582
 7687TIP3    H144552   4.385   6.548  16.051  0.0626 -0.2071 -1.0336
 7687TIP3    H244553   4.455   6.416  16.031  1.2194  0.2786 -0.3069
 7688TIP3   OH244554   1.194   3.077   4.985  0.8518  0.3359 -0.3936
 7688TIP3    H144555   1.257   3.073   5.058  1.7041  1.6457 -1.0134
 7688TIP3    H244556   1.160   2.988   4.978  0.9248  0.1231  1.4430
 7689TIP3   OH244557   0.599   5.520  14.334  0.2717  0.0407 -0.0957
 7689TIP3    H144558   0.532   5.565  14.384  0.4377  1.9275 -1.4692
 7689TIP3    H244559   0.670   5.584  14.325  1.5025 -1.2891 -0.1989
 7690TIP3   OH244560   3.351   1.572   1.828 -0.5146  1.2176 -0.1665
 7690TIP3    H144561   3.275   1.545   1.777 -0.7117  1.6518 -0.1052
 7690TIP3    H244562   3.408   1.495   1.828  0.1015  1.6036 -2.1777
 7691TIP3   OH244563   6.420   2.376  15.864  0.4303 -0.3474  0.1647
 7691TIP3    H144564   6.470   2.449  15.828 -0.2524 -1.2389 -2.9343
 7691TIP3    H244565   6.331   2.411  15.876  0.4112 -0.3241 -0.0449
 7692TIP3   OH244566   1.523   0.236   3.170 -0.5116  0.1053 -0.2258
 7692TIP3    H144567   1.466   0.280   3.107 -1.0176  0.8003  0.6885
 7692TIP3    H244568   1.543   0.303   3.235 -0.6665 -0.7984  0.7907
 7693TIP3   OH244569   0.800   0.087  13.963  0.3765 -0.2298  0.1553
 7693TIP3    H144570   0.889   0.102  13.930  0.8839  0.3218  1.6552
 7693TIP3    H244571   0.757   0.172  13.955  0.2317 -0.3065  0.1234
 7694TIP3   OH244572   0.521   4.770   5.666 -1.0379  0.5368 -0.2458
 7694TIP3    H144573   0.524   4.784   5.571  0.9529 -1.3366 -0.5453
 7694TIP3    H244574   0.428   4.761   5.686 -1.4390 -0.4386 -2.2834
 7695TIP3   OH244575   1.972   4.197  11.268 -0.2234  0.1997 -0.4854
 7695TIP3    H144576   1.968   4.253  11.190 -2.9869  1.5432  0.5133
 7695TIP3    H244577   1.923   4.119  11.243  3.3286 -1.8762 -1.7525
 7696TIP3   OH244578   5.342   6.023   2.552 -0.1111 -0.5251  0.3970
 7696TIP3    H144579   5.327   6.105   2.597  0.4660  0.1506 -0.5944
 7696TIP3    H244580   5.316   5.955   2.614 -2.5325  0.4355  0.4992
 7697TIP3   OH244581   2.819   1.472  12.736 -0.2666  0.1425  0.0925
 7697TIP3    H144582   2.871   1.393  12.728 -0.4162  0.0659 -0.1284
 7697TIP3    H244583   2.751   1.463  12.669 -2.2502 -1.0754  2.0944
 7698TIP3   OH244584   1.415   5.824   4.647 -0.4614  0.5560  0.1005
 7698TIP3    H144585   1.350   5.763   4.681 -0.8316  0.9956  0.1821
 7698TIP3    H244586   1.498   5.776   4.651 -0.6528  0.2763  0.7488
 7699TIP3   OH244587   0.278   3.575  14.496 -0.2057 -0.0718  0.6575
 7699TIP3    H144588   0.240   3.548  14.579  0.8019  2.3049  2.0180
 7699TIP3    H244589   0.247   3.665  14.484 -1.0482 -0.6257 -2.0533
 7700TIP3   OH244590   2.684   1.671   0.626  0.3016  0.2029  0.2041
 7700TIP3    H144591   2.736   1.730   0.573 -0.9994  0.7832 -0.4837
 7700TIP3    H244592   2.673   1.593   0.571 -0.4120  0.5052 -0.1049
 7701TIP3   OH244593   5.010   2.990   4.463  0.0249  0.2093  0.4695
 7701TIP3    H144594   5.011   3.085   4.450 -0.5864  0.2740  0.8462
 7701TIP3    H244595   5.076   2.974   4.530 -0.0200  0.3958  0.5608
 7702TIP3   OH244596   6.064   1.603   0.023 -0.2891 -0.4410  0.0853
 7702TIP3    H144597   6.154   1.572   0.018  1.4768  3.9404  0.4635
 7702TIP3    H244598   6.030   1.566   0.104  2.1908 -0.0060  1.4125
 7703TIP3   OH244599   6.231   5.593  11.422  0.7332  0.5486 -0.0766
 7703TIP3    H144600   6.247   5.623  11.332  2.8550 -1.1813 -0.3657
 7703TIP3    H244601   6.303   5.532  11.440 -0.5505 -0.4172  2.2235
 7704TIP3   OH244602   1.860   4.393   3.421 -0.1069  0.3132  0.5822
 7704TIP3    H144603   1.864   4.385   3.516  0.5139 -0.7185  0.4859
 7704TIP3    H244604   1.950   4.382   3.392 -0.1422  1.5568 -0.0806
 7705TIP3   OH244605   2.758   5.655   0.721  0.2128 -0.8249  0.0149
 7705TIP3    H144606   2.735   5.584   0.781 -1.8391  0.3062  0.6482
 7705TIP3    H244607   2.718   5.630   0.638 -0.0370 -0.6852  0.0916
 7706TIP3   OH244608   6.668   4.914   0.575 -0.2250  0.3783  0.1232
 7706TIP3    H144609   6.669   4.832   0.526 -2.2580 -0.4468  1.3403
 7706TIP3    H244610   6.578   4.946   0.567 -0.1503  1.1264  1.8119
 7707TIP3   OH244611   2.958   3.905   1.601  0.7326  0.4793  0.4760
 7707TIP3    H144612   2.992   3.961   1.671  0.3071  1.2398  0.0848
 7707TIP3    H244613   2.953   3.818   1.640  2.1458  0.5524  0.8551
 7708TIP3   OH244614   3.297   1.217  17.185 -0.3313 -0.0612  0.0599
 7708TIP3    H144615   3.232   1.276  17.144 -1.7395 -0.4426  1.6415
 7708TIP3    H244616   3.276   1.220  17.278  1.7973 -0.4269  0.5871
 7709TIP3   OH244617   1.130   4.288  15.808 -0.2202 -0.0966  0.7475
 7709TIP3    H144618   1.054   4.335  15.773  0.5266  1.4481  1.0907
 7709TIP3    H244619   1.163   4.345  15.877  0.6055 -1.2740  1.3648
 7710TIP3   OH244620   2.216   5.372  15.617 -0.0685  0.5944 -0.0053
 7710TIP3    H144621   2.144   5.311  15.632 -0.3801  0.5854 -1.4223
 7710TIP3    H244622   2.175   5.448  15.575  0.8707  0.1091 -1.9186
 7711TIP3   OH244623   4.322   5.226   5.218  0.4625  0.1008 -0.4984
 7711TIP3    H144624   4.380   5.283   5.268 -1.1278  0.2004  1.3310
 7711TIP3    H244625   4.381   5.162   5.177  1.9140  0.6262  0.6821
 7712TIP3   OH244626   1.619   1.602  15.408 -0.1763 -0.1971  0.0650
 7712TIP3    H144627   1.674   1.550  15.350  1.1148  1.1467  0.0116
 7712TIP3    H244628   1.681   1.648  15.465 -1.0055  3.0996 -1.4171
 7713TIP3   OH244629   4.479   3.775   1.388  0.0617  1.0217  0.2241
 7713TIP3    H144630   4.441   3.788   1.475  1.4342  0.8912  0.8815
 7713TIP3    H244631   4.496   3.864   1.356 -0.2647  1.0643  0.1616
 7714TIP3   OH244632   5.190   2.924  12.176  0.0658 -0.0566  0.3055
 7714TIP3    H144633   5.157   2.961  12.094 -0.0900 -1.1135 -0.1237
 7714TIP3    H244634   5.154   2.836  12.179  0.1529 -0.0734  1.4763
 7715TIP3   OH244635   2.942   6.408   5.704  0.4938 -0.2760  0.3321
 7715TIP3    H144636   2.927   6.371   5.791 -2.7085  0.9003  0.4035
 7715TIP3    H244637   3.031   6.380   5.681  0.5178 -2.7028  2.9000
 7716TIP3   OH244638   0.253   3.319   4.058 -0.0343 -0.3997  0.2186
 7716TIP3    H144639   0.282   3.405   4.087  1.2204 -0.7068 -0.0746
 7716TIP3    H244640   0.183   3.337   3.995  1.0156  0.4547 -0.7415
 7717TIP3   OH244641   1.516   4.781   2.778  0.0352 -0.1477  0.2065
 7717TIP3    H144642   1.608   4.773   2.753  1.3295  0.4719  4.1105
 7717TIP3    H244643   1.489   4.691   2.796 -0.2752 -0.3603 -1.1952
 7718TIP3   OH244644   5.480   1.989  15.743 -0.2954  0.4022 -0.0946
 7718TIP3    H144645   5.451   2.068  15.788 -0.5414  0.2650 -0.0080
 7718TIP3    H244646   5.514   2.020  15.659  0.4439  0.6878  0.3070
 7719TIP3   OH244647   0.401   0.568  11.128  0.0806 -0.0387  0.0522
 7719TIP3    H144648   0.410   0.514  11.049 -0.9583 -0.0371 -0.0873
 7719TIP3    H244649   0.452   0.523  11.195  0.0374 -0.6517 -0.3264
 7720TIP3   OH244650   3.419   5.672  12.697  0.0989 -0.1374  0.7333
 7720TIP3    H144651   3.509   5.642  12.708  1.1150  2.2217 -0.5314
 7720TIP3    H244652   3.397   5.710  12.782  1.2435  1.4785  0.3577
 7721TIP3   OH244653   1.478   0.385   3.993  0.2830  0.2480  0.1366
 7721TIP3    H144654   1.458   0.470   4.034 -1.2741  0.7142 -1.4786
 7721TIP3    H244655   1.416   0.324   4.034  1.3287 -0.1307  1.2176
 7722TIP3   OH244656   5.296   4.213   3.228 -0.3439  0.0939 -0.3350
 7722TIP3    H144657   5.273   4.206   3.320 -1.7727  1.0759 -0.5929
 7722TIP3    H244658   5.230   4.161   3.182  0.6143 -0.7556 -0.7990
 7723TIP3   OH244659   3.110   6.173  12.841 -0.4337  0.0097 -0.2787
 7723TIP3    H144660   3.160   6.163  12.759 -0.8471  2.1686 -0.8668
 7723TIP3    H244661   3.064   6.256  12.830 -2.0767 -0.6366  1.3591
 7724TIP3   OH244662   1.043   1.532   1.435 -0.0830 -0.4435 -0.3014
 7724TIP3    H144663   1.014   1.481   1.511  1.6067 -0.5134  0.3311
 7724TIP3    H244664   1.028   1.623   1.460 -2.8634 -0.5085 -1.3324
 7725TIP3   OH244665   0.586   2.798   0.718 -0.1361  0.0764  0.1449
 7725TIP3    H144666   0.672   2.783   0.758  0.3964 -3.1123 -1.8736
 7725TIP3    H244667   0.597   2.876   0.664  0.6512  1.2695  1.9438
 7726TIP3   OH244668   1.461   2.628  11.777  0.0184  0.6743 -0.7356
 7726TIP3    H144669   1.396   2.663  11.837  0.7887  1.9938 -0.6271
 7726TIP3    H244670   1.519   2.575  11.831 -0.0850  0.7327 -0.5684
 7727TIP3   OH244671   5.700   2.507   0.852 -0.0618  0.4813 -0.3012
 7727TIP3    H144672   5.659   2.535   0.771 -1.1714 -1.6718 -0.5446
 7727TIP3    H244673   5.636   2.449   0.893  1.0350  0.4207  1.4471
 7728TIP3   OH244674   3.061   1.282   3.882 -0.5335 -0.0330  0.8129
 7728TIP3    H144675   3.035   1.208   3.937 -0.9613 -1.2394 -0.9496
 7728TIP3    H244676   3.153   1.267   3.864 -0.9810 -1.0689 -0.8425
 7729TIP3   OH244677   1.852   0.186   6.676 -0.0309 -0.2442 -0.7655
 7729TIP3    H144678   1.822   0.098   6.698  0.3775 -0.8637 -2.5340
 7729TIP3    H244679   1.916   0.207   6.745 -1.6637 -0.4262  0.8834
 7730TIP3   OH244680   5.707   4.107  13.329  0.2055  0.4961 -0.3466
 7730TIP3    H144681   5.760   4.182  13.357  0.5190  0.5731 -1.1081
 7730TIP3    H244682   5.618   4.141  13.321 -0.0892  0.2386  1.4655
 7731TIP3   OH244683   3.454   3.667   4.244 -0.4393 -0.2769  0.8293
 7731TIP3    H144684   3.435   3.742   4.188 -0.3862 -0.5547  0.4343
 7731TIP3    H244685   3.545   3.645   4.225 -1.1844 -2.0656 -1.0448
 7732TIP3   OH244686   6.341   6.493  16.495  0.1000  0.1023  0.4925
 7732TIP3    H144687   6.279   6.493  16.568 -2.2665 -2.1131 -1.3142
 7732TIP3    H244688   6.311   6.564  16.439 -0.5267 -0.6160 -0.1096
 7733TIP3   OH244689   4.770   1.839  15.123  0.2072 -0.2643  0.2735
 7733TIP3    H144690   4.789   1.918  15.072  0.1083 -0.1154  0.4674
 7733TIP3    H244691   4.691   1.803  15.084  0.0790 -0.0992  0.3803
 7734TIP3   OH244692   6.506   5.822   3.685  0.5493 -0.9974 -0.4252
 7734TIP3    H144693   6.468   5.899   3.725  3.7770 -0.4548  2.0187
 7734TIP3    H244694   6.540   5.771   3.758 -0.2197 -4.1050 -2.0607
 7735TIP3   OH244695   6.779   3.714   3.419  0.0085 -0.3567  0.2061
 7735TIP3    H144696   6.773   3.791   3.362 -1.0944 -0.9877 -0.5587
 7735TIP3    H244697   6.688   3.686   3.430  0.3476 -1.1631  1.0275
 7736TIP3   OH244698   3.922   2.067  15.778 -0.1705  0.0495 -0.5161
 7736TIP3    H144699   3.975   2.080  15.699 -0.8614  0.6570 -0.8917
 7736TIP3    H244700   3.862   2.141  15.779 -1.0971 -0.6813 -0.1714
 7737TIP3   OH244701   2.036   1.898  14.412 -0.0123 -0.1479  0.4305
 7737TIP3    H144702   2.082   1.982  14.410  0.2580 -0.2987  0.3810
 7737TIP3    H244703   1.986   1.900  14.493 -0.1857  0.1579  0.3185
 7738TIP3   OH244704   4.904   3.285   3.739 -0.1720  0.3380 -0.1487
 7738TIP3    H144705   4.939   3.372   3.754 -0.0325  0.2928 -0.2085
 7738TIP3    H244706   4.849   3.294   3.661 -1.9120  0.8539  1.0670
 7739TIP3   OH244707   2.627   5.957  13.503 -0.7956  0.3459  0.2543
 7739TIP3    H144708   2.628   5.874  13.549 -0.8044  0.6360  0.7856
 7739TIP3    H244709   2.551   6.003  13.539 -0.6021  0.7127  0.1945
 7740TIP3   OH244710   4.737   3.015   1.931  0.4401  0.0747 -0.1093
 7740TIP3    H144711   4.768   3.098   1.895  0.3872 -0.4801 -1.4890
 7740TIP3    H244712   4.797   2.997   2.003  0.0068  1.6621  0.7031
 7741TIP3   OH244713   6.657   5.052  15.837 -0.0997 -0.2774 -0.0835
 7741TIP3    H144714   6.622   5.128  15.791 -0.9451 -0.9037 -0.4888
 7741TIP3    H244715   6.750   5.050  15.812  0.3345  1.4976  1.1536
 7742TIP3   OH244716   0.105   2.792  15.450  0.0385  0.1949 -0.5303
 7742TIP3    H144717   0.108   2.767  15.358  0.9737  0.9498 -0.7087
 7742TIP3    H244718   0.011   2.794  15.471 -0.1424 -1.7644 -0.9513
 7743TIP3   OH244719   6.074   0.782  11.325 -0.2992  0.6381 -0.7629
 7743TIP3    H144720   5.984   0.759  11.347 -0.7744 -2.8006 -5.0413
 7743TIP3    H244721   6.066   0.863  11.275 -1.0530  0.3487 -1.1334
 7744TIP3   OH244722   1.200   3.336   1.754 -0.1558  0.1659 -0.6822
 7744TIP3    H144723   1.128   3.389   1.719 -0.6127 -0.0573 -0.1036
 7744TIP3    H244724   1.176   3.246   1.733  0.2084  0.1274 -0.9344
 7745TIP3   OH244725   5.347   2.933  15.699 -0.2443  0.1244  0.3342
 7745TIP3    H144726   5.343   2.948  15.604  1.1500  1.5651  0.4564
 7745TIP3    H244727   5.320   3.016  15.738  0.8783  0.1293  1.1625
 7746TIP3   OH244728   4.227   4.085   0.486  0.4936  0.6396  0.3633
 7746TIP3    H144729   4.132   4.092   0.477  0.4552 -1.0538 -1.0266
 7746TIP3    H244730   4.260   4.083   0.396  1.4971 -2.1723  0.6789
 7747TIP3   OH244731   0.269   1.427  12.588 -0.1395 -0.0697  0.8656
 7747TIP3    H144732   0.203   1.497  12.593 -0.6677 -0.4976  0.1154
 7747TIP3    H244733   0.234   1.358  12.644 -1.6132 -1.2901 -1.3960
 7748TIP3   OH244734   1.318   6.330  12.465 -0.6393 -0.2858 -0.2766
 7748TIP3    H144735   1.257   6.354  12.535 -0.2063 -1.2639  0.4512
 7748TIP3    H244736   1.264   6.280  12.404 -0.1801 -3.1969  1.5005
 7749TIP3   OH244737   2.092   3.266   5.474  0.3503  0.1463  0.6293
 7749TIP3    H144738   2.059   3.334   5.534  0.3711 -0.2152  1.0543
 7749TIP3    H244739   2.022   3.254   5.410 -0.8004 -1.2995  2.0667
 7750TIP3   OH244740   1.478   1.414  14.112 -0.2209 -0.4652 -0.9770
 7750TIP3    H144741   1.498   1.505  14.088  1.9945 -1.3143 -2.7475
 7750TIP3    H244742   1.384   1.405  14.095 -0.3404  1.2925 -1.4720
 7751TIP3   OH244743   1.618   0.824  14.729 -0.3283  0.0815 -0.1233
 7751TIP3    H144744   1.674   0.874  14.669 -0.5970  0.1870 -0.2862
 7751TIP3    H244745   1.533   0.822  14.686  0.1891 -2.4104 -1.2277
 7752TIP3   OH244746   0.055   1.979  16.531  0.1957 -0.0131 -0.2963
 7752TIP3    H144747   0.089   1.991  16.442  1.5827  0.3479  0.2527
 7752TIP3    H244748   0.028   1.887  16.534  1.3794 -0.3872 -0.7020
 7753TIP3   OH244749   6.619   2.064   5.849  0.1479  0.1510 -0.6368
 7753TIP3    H144750   6.598   2.003   5.919 -1.0026  2.4452  1.1633
 7753TIP3    H244751   6.711   2.047   5.829  0.9138  0.2079  2.3488
 7754TIP3   OH244752   5.043   6.528  14.287  0.3327 -0.0488  0.1576
 7754TIP3    H144753   5.000   6.592  14.230  0.8517  0.4889  0.3662
 7754TIP3    H244754   5.121   6.573  14.319  1.8479 -1.4698 -1.3284
 7755TIP3   OH244755   1.315   5.324  16.083 -0.6401  0.8461  0.0759
 7755TIP3    H144756   1.284   5.406  16.120 -1.8065 -0.4899  2.2145
 7755TIP3    H244757   1.243   5.262  16.094  1.0602 -1.1372  0.8652
 7756TIP3   OH244758   2.268   3.224  12.190 -0.0416  0.7341  0.5757
 7756TIP3    H144759   2.248   3.132  12.209 -1.4109  0.7637 -0.5467
 7756TIP3    H244760   2.364   3.228  12.190  0.0578 -0.8071  0.1977
 7757TIP3   OH244761   0.361   0.476   3.813  0.0145 -0.3501 -0.4126
 7757TIP3    H144762   0.295   0.429   3.865  2.3062 -0.0665  3.0671
 7757TIP3    H244763   0.357   0.566   3.845  2.0310 -0.3228 -0.1669
 7758TIP3   OH244764   6.314   0.502   2.589 -0.0205 -0.1237  0.1681
 7758TIP3    H144765   6.271   0.582   2.559  0.1803 -0.4209 -0.9518
 7758TIP3    H244766   6.394   0.532   2.632  1.1664  0.2062 -2.1524
 7759TIP3   OH244767   3.810   3.040  12.161  0.4847 -0.7559  0.3202
 7759TIP3    H144768   3.844   3.028  12.073 -0.3527  1.4470 -0.3692
 7759TIP3    H244769   3.885   3.072  12.212  0.2720  0.8978 -0.3712
 7760TIP3   OH244770   1.801   2.012  16.274 -0.5991 -0.5549  0.2670
 7760TIP3    H144771   1.887   2.032  16.309 -0.7430  1.0411 -0.1737
 7760TIP3    H244772   1.812   1.931  16.225  0.6994 -0.2907  0.1019
 7761TIP3   OH244773   2.990   5.479  11.679 -0.4161 -0.8229  0.0926
 7761TIP3    H144774   2.951   5.534  11.747 -0.8418 -2.3740  1.1488
 7761TIP3    H244775   2.959   5.517  11.597  0.9240  1.7089  0.6445
 7762TIP3   OH244776   5.308   1.393   6.105  0.1057  0.3938 -0.4048
 7762TIP3    H144777   5.318   1.419   6.196  0.2876  1.2789 -0.6699
 7762TIP3    H244778   5.214   1.385   6.092  0.1225 -1.0424  0.2052
 7763TIP3   OH244779   1.437   4.385   5.220  0.0852 -0.5674 -0.2208
 7763TIP3    H144780   1.468   4.315   5.278  1.8844 -0.0387 -0.4786
 7763TIP3    H244781   1.506   4.395   5.155 -0.6499  0.7036 -0.8465
 7764TIP3   OH244782   2.228   4.739   0.937  0.5656  0.0028 -0.1595
 7764TIP3    H144783   2.282   4.697   1.004  0.6496 -0.9769 -0.8312
 7764TIP3    H244784   2.276   4.725   0.855 -0.6277 -0.7778 -0.7493
 7765TIP3   OH244785   4.423   5.950  11.198  0.0890 -0.2966  0.3358
 7765TIP3    H144786   4.374   5.909  11.269  0.2339 -2.2641 -0.6414
 7765TIP3    H244787   4.449   5.877  11.141  0.2573  1.1688 -1.5659
 7766TIP3   OH244788   0.562   1.135  11.600  0.1324 -0.0405 -0.3086
 7766TIP3    H144789   0.554   1.047  11.636  1.0591 -0.0141 -0.0063
 7766TIP3    H244790   0.478   1.152  11.558  0.4553 -1.7105 -1.7814
 7767TIP3   OH244791   4.744   6.762  15.151  0.1570 -0.0828  0.0885
 7767TIP3    H144792   4.775   6.799  15.233  0.3266  1.6317 -0.7066
 7767TIP3    H244793   4.659   6.724  15.172 -0.3912  1.4817  0.8114
 7768TIP3   OH244794   5.250   1.254   5.125 -0.1121 -0.1343 -0.2399
 7768TIP3    H144795   5.212   1.193   5.061  0.0008  0.0926 -0.5264
 7768TIP3    H244796   5.222   1.220   5.210  1.0349 -1.3494 -0.3089
 7769TIP3   OH244797   5.088   2.546   0.235  0.7120 -0.0061 -0.8134
 7769TIP3    H144798   5.030   2.506   0.300  0.4055 -1.6406 -2.0408
 7769TIP3    H244799   5.157   2.587   0.287 -0.4697  0.2669  0.5983
 7770TIP3   OH244800   1.255   0.394  13.055 -0.0985  0.3769 -0.3676
 7770TIP3    H144801   1.278   0.485  13.036  0.4334 -0.1237 -2.4129
 7770TIP3    H244802   1.238   0.355  12.969 -3.2344 -0.7355  0.6039
 7771TIP3   OH244803   2.217   4.963  14.270 -0.1529  0.5528  0.5812
 7771TIP3    H144804   2.239   5.019  14.195 -1.5480  1.7743  1.0237
 7771TIP3    H244805   2.130   4.928  14.249  0.5128 -1.1138  0.5291
 7772TIP3   OH244806   1.543   4.384  15.274 -0.5295  0.2813 -0.3334
 7772TIP3    H144807   1.637   4.399  15.263  0.0820 -0.7014  2.5090
 7772TIP3    H244808   1.501   4.460  15.234  1.6103  2.0352  0.5443
 7773TIP3   OH244809   2.994   3.443  11.733 -0.0194  0.4826 -0.4075
 7773TIP3    H144810   2.962   3.446  11.823  0.2599 -1.3641 -0.2045
 7773TIP3    H244811   2.933   3.498  11.684  1.4714  3.9237  1.3179
 7774TIP3   OH244812   5.181   5.227   3.934 -0.1568  0.1603 -0.4851
 7774TIP3    H144813   5.194   5.246   3.841  0.7115  1.2500 -0.1643
 7774TIP3    H244814   5.140   5.141   3.936  2.2014 -1.0800 -1.7983
 7775TIP3   OH244815   1.233   2.188   4.865  0.5975  0.0100 -0.4582
 7775TIP3    H144816   1.170   2.211   4.933  0.7025 -0.4200 -0.2118
 7775TIP3    H244817   1.315   2.171   4.913  0.7759  0.1022 -0.7287
 7776TIP3   OH244818   3.335   3.379  15.342  0.7016 -0.0353  0.0260
 7776TIP3    H144819   3.271   3.435  15.298 -0.8057 -0.0911  1.9984
 7776TIP3    H244820   3.361   3.428  15.420  2.9883 -0.1025 -0.6174
 7777TIP3   OH244821   3.655   4.405  10.533 -0.2618  0.3250  0.2190
 7777TIP3    H144822   3.665   4.311  10.540  0.7677  0.3560 -0.5657
 7777TIP3    H244823   3.580   4.418  10.475 -0.9758  0.0118  1.0539
 7778TIP3   OH244824   3.631   6.768   4.209 -0.4593 -0.7406  0.4148
 7778TIP3    H144825   3.720   6.801   4.197 -0.0975 -1.4848  0.9984
 7778TIP3    H244826   3.642   6.680   4.245 -1.4335 -0.0813  2.4639
 7779TIP3   OH244827   1.422   6.668   5.612 -0.2817  0.1397  0.2442
 7779TIP3    H144828   1.341   6.617   5.622  0.1500 -0.3808  1.2177
 7779TIP3    H244829   1.491   6.602   5.609  0.1033  0.5709 -0.8286
 7780TIP3   OH244830   1.612   1.827  11.638  0.0740  0.3059 -0.2924
 7780TIP3    H144831   1.600   1.753  11.698 -1.4976  0.6948 -0.0941
 7780TIP3    H244832   1.651   1.896  11.691  3.6438 -0.9924 -0.9533
 7781TIP3   OH244833   3.760   4.996   2.173 -0.3480  0.1995 -0.2509
 7781TIP3    H144834   3.786   5.079   2.133  2.3796  0.1186  1.1312
 7781TIP3    H244835   3.794   4.929   2.114 -1.7838  0.0029 -0.9097
 7782TIP3   OH244836   4.602   5.070   4.550  0.0596  0.2188  0.1763
 7782TIP3    H144837   4.679   5.106   4.506  0.9745 -2.3736 -0.5377
 7782TIP3    H244838   4.617   5.089   4.643  1.5536 -0.1701  0.0401
 7783TIP3   OH244839   1.640   6.123  12.136 -0.1941 -0.0161  0.0599
 7783TIP3    H144840   1.636   6.205  12.087 -0.1504  1.0360  1.7164
 7783TIP3    H244841   1.732   6.113  12.160 -0.2337 -0.4338  0.0449
 7784TIP3   OH244842   0.121   3.407  11.226 -0.3978  0.1309  0.7380
 7784TIP3    H144843   0.143   3.419  11.133 -0.3987 -0.7380  0.6165
 7784TIP3    H244844   0.206   3.405  11.270 -0.3729 -0.0571  0.6802
 7785TIP3   OH244845   5.421   1.486  13.136  0.1975 -0.9970  0.4091
 7785TIP3    H144846   5.376   1.558  13.092 -2.5012 -2.4995  0.5028
 7785TIP3    H244847   5.422   1.511  13.228  0.5131 -0.4893  0.2730
 7786TIP3   OH244848   1.205   3.813  14.899 -1.0369  0.4836 -0.4550
 7786TIP3    H144849   1.176   3.889  14.950 -1.3289 -0.0517  0.1948
 7786TIP3    H244850   1.166   3.827  14.813 -1.9359  0.5786 -0.0503
 7787TIP3   OH244851   6.371   6.540  11.571  0.7763 -0.5584  0.4990
 7787TIP3    H144852   6.386   6.488  11.650 -0.2862 -0.5069  0.7587
 7787TIP3    H244853   6.327   6.619  11.603  1.1743 -0.1120 -0.0426
 7788TIP3   OH244854   1.304   1.593  15.118  0.2197 -0.3712 -0.1219
 7788TIP3    H144855   1.372   1.586  15.051  0.7769  0.3741  0.3505
 7788TIP3    H244856   1.265   1.505  15.123 -0.6508 -0.1537 -2.2590
 7789TIP3   OH244857   4.220   2.229   1.591 -0.3155  0.3605 -0.0720
 7789TIP3    H144858   4.227   2.261   1.501  0.6448  1.7331  0.4538
 7789TIP3    H244859   4.257   2.300   1.644 -2.0970  0.1601  1.5276
 7790TIP3   OH244860   0.147   5.434   4.196  0.3955 -0.5038  0.1720
 7790TIP3    H144861   0.172   5.360   4.141  1.5407  1.1081 -1.6156
 7790TIP3    H244862   0.206   5.429   4.272  2.3650  0.0088 -1.2373
 7791TIP3   OH244863   2.148   5.842   5.048 -0.1326 -0.3412  0.1949
 7791TIP3    H144864   2.078   5.788   5.083 -0.3364 -0.4687 -0.3916
 7791TIP3    H244865   2.103   5.907   4.994  0.1791 -0.2575  0.0344
 7792TIP3   OH244866   5.439   5.007   3.001  0.0290 -0.0010  0.1902
 7792TIP3    H144867   5.501   4.993   3.072  0.0595 -0.7707  0.0161
 7792TIP3    H244868   5.489   4.992   2.921 -0.3133 -0.3762  0.0432
 7793TIP3   OH244869   2.297   0.566  14.730 -0.2002 -0.2964  0.0881
 7793TIP3    H144870   2.392   0.573  14.725  0.0094 -1.9585  0.9353
 7793TIP3    H244871   2.274   0.614  14.810 -0.0617  0.0297 -0.0687
 7794TIP3   OH244872   2.780   6.277   1.630  0.2282  0.1293 -0.2575
 7794TIP3    H144873   2.766   6.234   1.715  0.9545  2.0370  0.8914
 7794TIP3    H244874   2.692   6.289   1.595 -0.2447  0.9740  1.1259
 7795TIP3   OH244875   4.688   0.359   5.822 -0.1226  0.3630 -0.3802
 7795TIP3    H144876   4.626   0.375   5.893 -1.0981 -1.8135 -0.6644
 7795TIP3    H244877   4.635   0.320   5.752  1.3935 -0.8415 -0.9260
 7796TIP3   OH244878   5.762   3.831   2.334 -0.2299 -0.5996  0.3486
 7796TIP3    H144879   5.773   3.921   2.305 -1.8917 -0.5419 -0.2302
 7796TIP3    H244880   5.848   3.790   2.322 -0.3276 -0.0713 -2.9087
 7797TIP3   OH244881   0.160   0.268   3.300 -0.0368  0.4227 -0.0679
 7797TIP3    H144882   0.245   0.226   3.286 -0.4883 -1.9294  3.2291
 7797TIP3    H244883   0.111   0.251   3.219  1.7308 -0.4922 -0.9938
 7798TIP3   OH244884   3.981   2.799  12.559 -0.1056 -0.0836  0.3321
 7798TIP3    H144885   4.069   2.824  12.587 -1.0305  0.7840  2.7168
 7798TIP3    H244886   3.939   2.766  12.638 -1.9321 -0.5112 -0.7525
 7799TIP3   OH244887   1.070   0.641   0.762  0.2595 -0.0215  0.3765
 7799TIP3    H144888   1.085   0.689   0.844  1.7818 -0.2168  0.2270
 7799TIP3    H244889   1.099   0.701   0.693 -0.2131 -0.1902  0.0277
 7800TIP3   OH244890   1.468   6.549  15.840  0.4474  0.0377 -0.3125
 7800TIP3    H144891   1.496   6.520  15.926 -0.8487 -1.3502 -0.3187
 7800TIP3    H244892   1.540   6.604  15.808  2.7128 -2.5575  0.0112
 7801TIP3   OH244893   5.060   6.716   4.729 -0.1002 -0.0305 -0.1543
 7801TIP3    H144894   5.036   6.649   4.665  0.0289 -0.8398  0.6308
 7801TIP3    H244895   4.977   6.759   4.750 -0.0771  0.5705 -1.2030
 7802TIP3   OH244896   4.675   2.250  13.942 -0.0452  0.5529  0.4356
 7802TIP3    H144897   4.663   2.281  14.032 -0.9784 -0.0074  0.5109
 7802TIP3    H244898   4.743   2.183  13.949 -2.1687 -1.6488  1.2450
 7803TIP3   OH244899   6.800   4.506  13.968 -0.6063  0.7024  0.0110
 7803TIP3    H144900   6.840   4.593  13.976 -1.1973  0.9625  0.1939
 7803TIP3    H244901   6.771   4.484  14.056 -0.0777  0.1282  0.0442
 7804TIP3   OH244902   6.477   5.367   0.367 -0.3789  0.1270  0.0293
 7804TIP3    H144903   6.559   5.317   0.369 -0.4188  0.0825  0.5326
 7804TIP3    H244904   6.427   5.334   0.442 -1.0703 -0.2071 -0.5624
 7805TIP3   OH244905   6.459   2.462   5.282  0.0154  0.4307  0.1105
 7805TIP3    H144906   6.523   2.532   5.291 -1.5274  1.7022  1.7439
 7805TIP3    H244907   6.470   2.409   5.361  0.9540 -1.0525 -0.9583
 7806TIP3   OH244908   2.299   4.966  10.537  0.4021  0.1351  0.5802
 7806TIP3    H144909   2.258   4.918  10.609  0.0543  2.0078  1.7148
 7806TIP3    H244910   2.226   5.005  10.490  0.6612 -0.6343 -0.5045
 7807TIP3   OH244911   4.869   3.720  13.326 -0.2557 -0.7491  0.2026
 7807TIP3    H144912   4.842   3.660  13.397  2.5760 -0.5722  1.5573
 7807TIP3    H244913   4.933   3.670  13.276  1.6661  0.8285  0.9611
 7808TIP3   OH244914   4.403   3.362   6.416  0.6776  0.4750 -0.3531
 7808TIP3    H144915   4.356   3.279   6.422 -0.0198  0.9709  1.8665
 7808TIP3    H244916   4.343   3.420   6.369  0.2352  0.3378  0.0405
 7809TIP3   OH244917   2.754   3.366   0.160  0.3048 -0.4488 -0.5764
 7809TIP3    H144918   2.792   3.315   0.232  0.7510  0.3132 -0.2504
 7809TIP3    H244919   2.772   3.315   0.082  0.4927 -0.9275 -0.2276
 7810TIP3   OH244920   4.213   6.057  17.031 -0.2851  0.0570  0.2829
 7810TIP3    H144921   4.127   6.072  17.071 -0.3510 -3.0556  1.5975
 7810TIP3    H244922   4.193   6.020  16.945 -0.3285 -1.4040  0.8974
 7811TIP3   OH244923   4.065   2.388   6.579 -0.0210  0.3562 -0.4644
 7811TIP3    H144924   3.973   2.379   6.554  0.0347 -0.2515 -0.4780
 7811TIP3    H244925   4.101   2.299   6.571 -0.3632 -0.2630  3.1579
 7812TIP3   OH244926   4.491   1.345  11.316  0.0115 -0.0737  0.2983
 7812TIP3    H144927   4.401   1.360  11.346  0.0289 -1.3006  1.0411
 7812TIP3    H244928   4.485   1.270  11.257  0.7226 -1.1868  1.5733
 7813TIP3   OH244929   5.628   2.193   1.684  0.2019  0.3496  0.3580
 7813TIP3    H144930   5.589   2.143   1.756  1.2340  0.0377  0.7210
 7813TIP3    H244931   5.566   2.263   1.667 -0.2030  0.2487  1.3590
 7814TIP3   OH244932   0.265   3.258  15.236  0.4128  0.2610 -0.4259
 7814TIP3    H144933   0.265   3.169  15.202  1.2182  0.0749  0.0213
 7814TIP3    H244934   0.178   3.269  15.275  0.0687 -0.0858 -1.0886
 7815TIP3   OH244935   1.869   5.451   5.754 -0.4312 -0.3883 -0.0238
 7815TIP3    H144936   1.943   5.391   5.762 -0.7591 -0.9330 -0.9065
 7815TIP3    H244937   1.860   5.466   5.659  0.9243  2.7093  0.2012
 7816TIP3   OH244938   3.301   6.769  16.723 -0.0199 -0.4110  0.0376
 7816TIP3    H144939   3.304   6.679  16.691 -1.2831 -1.0448  1.5201
 7816TIP3    H244940   3.225   6.807  16.680 -0.0551 -0.3756  0.1309
 7817TIP3   OH244941   2.277   1.577  13.301 -0.5629  0.1200 -0.4588
 7817TIP3    H144942   2.186   1.548  13.307  0.6667 -4.0391  2.7694
 7817TIP3    H244943   2.290   1.633  13.378 -0.4891  1.2488 -1.2707
 7818TIP3   OH244944   6.626   0.495  17.261  0.3775 -0.0541  0.0654
 7818TIP3    H144945   6.638   0.409  17.221  0.0959  0.1515 -0.4697
 7818TIP3    H244946   6.714   0.528  17.275  0.4788  0.0542 -0.7876
 7819TIP3   OH244947   0.546   4.199   3.170 -0.2018  0.4579  0.1128
 7819TIP3    H144948   0.613   4.268   3.162  1.4949 -1.0042  0.9884
 7819TIP3    H244949   0.563   4.141   3.096  0.3012 -0.5465  0.9920
 7820TIP3   OH244950   1.956   0.139  15.517  0.2645 -0.0864 -0.4326
 7820TIP3    H144951   1.902   0.136  15.438 -0.7077 -0.9434  0.2414
 7820TIP3    H244952   2.042   0.108  15.488 -0.6534 -2.5462 -0.7622
 7821TIP3   OH244953   2.996   6.705  15.127  0.8571  0.2044  0.3934
 7821TIP3    H144954   2.965   6.669  15.211  1.0076 -0.7497  0.0513
 7821TIP3    H244955   2.975   6.798  15.132  0.3459  0.0574  1.2607
 7822TIP3   OH244956   1.749   0.358   0.653  0.1348 -0.1205 -0.2640
 7822TIP3    H144957   1.738   0.272   0.613  1.4868 -1.1931  1.5365
 7822TIP3    H244958   1.713   0.349   0.741  1.7783  0.6247  0.5324
 7823TIP3   OH244959   1.611   4.682  15.177 -0.2453 -0.0915 -0.0979
 7823TIP3    H144960   1.574   4.671  15.265 -1.3992 -0.5701 -0.6205
 7823TIP3    H244961   1.685   4.741  15.190 -0.4210 -0.1138  1.1922
 7824TIP3   OH244962   0.286   5.895  16.576  0.2307  0.7632  0.0667
 7824TIP3    H144963   0.226   5.869  16.507 -0.3360  1.2448  0.3759
 7824TIP3    H244964   0.373   5.879  16.539 -0.0128 -2.7724  0.6397
 7825TIP3   OH244965   4.279   1.808  15.134  0.7570  0.7586 -0.1665
 7825TIP3    H144966   4.263   1.881  15.195  2.7555  1.8204 -0.8324
 7825TIP3    H244967   4.267   1.729  15.188  0.1213  1.5863  0.9722
 7826TIP3   OH244968   1.876   1.448  17.128  0.5385  0.2093 -0.5102
 7826TIP3    H144969   1.812   1.380  17.150  0.1277  1.1867  1.5076
 7826TIP3    H244970   1.961   1.405  17.138  0.2634 -0.3463 -0.5008
 7827TIP3   OH244971   2.230   1.637  15.121  0.6271 -0.0061 -0.5427
 7827TIP3    H144972   2.240   1.731  15.132 -2.2862  0.4176 -0.7363
 7827TIP3    H244973   2.294   1.598  15.181  1.8735  2.0643 -0.4600
 7828TIP3   OH244974   3.709   5.658  16.365  0.3294 -0.0048  0.0559
 7828TIP3    H144975   3.728   5.597  16.294  1.4620 -2.5468  2.3694
 7828TIP3    H244976   3.635   5.710  16.333 -0.6728 -2.5400 -2.1007
 7829TIP3   OH244977   1.022   3.191   4.744  0.6124 -1.0025  0.0424
 7829TIP3    H144978   0.956   3.241   4.695 -0.1819 -1.0662  1.0222
 7829TIP3    H244979   1.079   3.258   4.781  0.5240 -0.8970 -0.0103
 7830TIP3   OH244980   1.763   5.724   5.508  0.4727 -0.0636 -0.3538
 7830TIP3    H144981   1.745   5.630   5.495  3.0779 -0.8538  0.9886
 7830TIP3    H244982   1.839   5.741   5.453  1.0667  0.7987  0.6911
 7831TIP3   OH244983   6.779   2.000  11.428  0.3176  0.4293 -0.0247
 7831TIP3    H144984   6.852   2.039  11.476  0.3165 -0.7994  1.0252
 7831TIP3    H244985   6.740   1.938  11.490  0.4602 -1.4054 -1.6716
 7832TIP3   OH244986   5.172   3.616  16.019 -0.1887  0.0520 -0.0986
 7832TIP3    H144987   5.080   3.639  16.010 -0.2313 -0.2700 -0.5391
 7832TIP3    H244988   5.212   3.645  15.937 -0.3963 -2.1259 -1.0422
 7833TIP3   OH244989   5.748   0.933   6.241  0.2663  0.6175  0.0370
 7833TIP3    H144990   5.843   0.921   6.243  0.0097 -2.0091 -0.1795
 7833TIP3    H244991   5.716   0.883   6.316 -0.9474  1.8935  0.4179
 7834TIP3   OH244992   2.958   4.413   6.052  0.2057  0.7111  0.2188
 7834TIP3    H144993   3.041   4.449   6.022 -0.2840 -0.0741 -2.3096
 7834TIP3    H244994   2.981   4.331   6.095  0.6897  0.0156 -1.3229
 7835TIP3   OH244995   6.090   3.642  12.253  0.0511 -0.1320 -0.3343
 7835TIP3    H144996   6.011   3.590  12.238  0.2807 -0.2722 -1.1061
 7835TIP3    H244997   6.159   3.595  12.205  0.1770  1.0825 -1.3960
 7836TIP3   OH244998   0.799   3.332  15.573  0.1820 -0.1842  0.0036
 7836TIP3    H144999   0.876   3.304  15.623  0.1583  0.4596  0.4172
 7836TIP3    H245000   0.724   3.296  15.622  0.2123 -0.7769 -0.3769
 7837TIP3   OH245001   5.789   5.519   2.013  0.0204 -0.1269  0.0497
 7837TIP3    H145002   5.861   5.469   2.051 -0.2912  0.2322  1.1478
 7837TIP3    H245003   5.777   5.593   2.072 -0.8020  0.1931 -0.4966
 7838TIP3   OH245004   1.521   3.262   1.154 -0.8862 -0.1622  0.4271
 7838TIP3    H145005   1.555   3.293   1.071 -2.5912  1.7242  0.3209
 7838TIP3    H245006   1.597   3.231   1.202  0.4312  0.6644 -1.0430
 7839TIP3   OH245007   6.194   2.575   4.938 -0.8588  0.0588 -0.1110
 7839TIP3    H145008   6.286   2.578   4.913 -0.6844  2.5681  0.5695
 7839TIP3    H245009   6.194   2.538   5.026 -0.6809 -1.2298 -0.6271
 7840TIP3   OH245010   3.694   3.886  13.680  0.0524 -0.1522  0.0207
 7840TIP3    H145011   3.782   3.882  13.718 -0.1132 -0.8759  0.3393
 7840TIP3    H245012   3.640   3.924  13.749  0.1952  0.7398 -0.3444
 7841TIP3   OH245013   2.003   4.774   1.881  0.5042  0.1298 -0.3928
 7841TIP3    H145014   1.983   4.680   1.883  0.4755  0.1034 -1.5628
 7841TIP3    H245015   1.999   4.800   1.973 -0.9306 -0.7056 -0.1756
 7842TIP3   OH245016   4.859   1.807   5.247 -0.3917  0.4805 -0.0869
 7842TIP3    H145017   4.874   1.777   5.337  0.2928  0.9590 -0.0281
 7842TIP3    H245018   4.934   1.773   5.198  1.2439  3.2092  0.2742
 7843TIP3   OH245019   6.638   6.450   5.181 -0.1132  0.2990 -0.3066
 7843TIP3    H145020   6.553   6.462   5.140 -1.1965 -3.2895  0.5231
 7843TIP3    H245021   6.701   6.480   5.116 -1.9428  2.1337 -1.3216
 7844TIP3   OH245022   1.396   1.450   0.306  0.0672  0.2993 -0.3645
 7844TIP3    H145023   1.319   1.398   0.329  0.4413 -0.1574 -0.1250
 7844TIP3    H245024   1.380   1.535   0.347 -1.0615  0.7549 -1.6891
 7845TIP3   OH245025   5.653   5.741   2.143  0.2853  0.0150 -0.0347
 7845TIP3    H145026   5.571   5.785   2.163  0.2680 -1.3043  3.3648
 7845TIP3    H245027   5.720   5.789   2.191  0.7073 -1.6967  1.2170
 7846TIP3   OH245028   6.174   0.048   0.801  0.2748 -0.1767  0.1209
 7846TIP3    H145029   6.235  -0.019   0.829  1.9252  0.8171 -0.9039
 7846TIP3    H245030   6.224   0.103   0.740 -2.2264 -0.5482 -2.5135
 7847TIP3   OH245031   6.537   1.750  17.284 -0.2086 -0.7420  0.5405
 7847TIP3    H145032   6.482   1.810  17.235 -1.1766 -1.5198  0.6316
 7847TIP3    H245033   6.580   1.805  17.350  0.4798  0.1634 -0.6318
 7848TIP3   OH245034   3.865   1.372  15.708  0.1290 -0.5285 -0.1575
 7848TIP3    H145035   3.827   1.301  15.759  2.1328 -0.6996  1.2088
 7848TIP3    H245036   3.897   1.330  15.628  0.8561 -1.0878  0.4203
 7849TIP3   OH245037   0.617   0.544  16.540  0.0326  0.7759 -0.6949
 7849TIP3    H145038   0.568   0.593  16.474 -0.8443  1.0167  0.1239
 7849TIP3    H245039   0.588   0.453  16.528  1.2777  0.4990 -1.8713
 7850TIP3   OH245040   2.991   4.847   1.848  0.6808 -0.2645  0.5629
 7850TIP3    H145041   2.909   4.869   1.893  0.5147  0.5080 -0.1082
 7850TIP3    H245042   3.000   4.752   1.860 -0.1331 -0.3033  0.9272
 7851TIP3   OH245043   2.264   2.663  16.879 -0.1564  0.2781  0.6533
 7851TIP3    H145044   2.214   2.685  16.958  0.2492 -0.5161  1.1418
 7851TIP3    H245045   2.305   2.746  16.853  0.0214  0.4661  1.4991
 7852TIP3   OH245046   3.702   2.123  11.508 -0.3831  0.1078 -0.8721
 7852TIP3    H145047   3.685   2.134  11.601  0.9931 -0.5899 -0.5073
 7852TIP3    H245048   3.755   2.044  11.502 -1.4198 -0.5296 -2.3802
 7853TIP3   OH245049   4.233   6.169  15.828  0.3173 -0.3936 -0.3477
 7853TIP3    H145050   4.172   6.156  15.901  1.0507 -0.2414  0.3023
 7853TIP3    H245051   4.204   6.250  15.787  1.5880  1.1006  1.5271
 7854TIP3   OH245052   5.058   4.750   1.422 -0.2518 -0.2159  0.2138
 7854TIP3    H145053   5.041   4.827   1.368  1.1181 -0.7145 -0.9956
 7854TIP3    H245054   5.098   4.784   1.501  0.2202  0.3475 -0.2556
 7855TIP3   OH245055   5.989   4.082   4.850  0.3032  0.3144 -0.1069
 7855TIP3    H145056   5.959   4.173   4.841  0.6254  0.2898 -1.6134
 7855TIP3    H245057   6.066   4.077   4.794  0.7164 -0.7067  0.5391
 7856TIP3   OH245058   1.456   0.954  12.561 -0.1761 -0.7917  0.3123
 7856TIP3    H145059   1.483   1.046  12.557  0.1457 -0.8553  0.8964
 7856TIP3    H245060   1.442   0.929  12.470 -2.0250  0.3421  0.2173
 7857TIP3   OH245061   1.780   2.037  11.091 -0.7764 -0.1090 -0.1469
 7857TIP3    H145062   1.694   2.064  11.121 -0.4666 -0.3232  0.9746
 7857TIP3    H245063   1.838   2.110  11.114 -0.3273 -0.7663  0.9012
 7858TIP3   OH245064   5.849   1.357  13.357 -0.2418 -0.2449 -0.3386
 7858TIP3    H145065   5.942   1.356  13.378 -0.2693  0.1853 -0.1936
 7858TIP3    H245066   5.846   1.367  13.262 -0.1385  2.9643 -0.1090
 7859TIP3   OH245067   6.003   1.249  11.081  0.1985 -0.2461  0.1323
 7859TIP3    H145068   6.099   1.255  11.082  0.4256 -2.1985 -1.7260
 7859TIP3    H245069   5.985   1.156  11.095 -1.4421  0.1064  0.5248
 7860TIP3   OH245070   1.853   1.250   0.127  0.4976  0.1786  0.0399
 7860TIP3    H145071   1.901   1.172   0.096  0.3385 -0.2713  0.9030
 7860TIP3    H245072   1.761   1.223   0.126  0.3151  0.7856 -0.8665
 7861TIP3   OH245073   2.909   5.869   1.481 -0.0690 -0.8860 -0.2925
 7861TIP3    H145074   2.922   5.805   1.551 -0.6076  0.0927  0.7211
 7861TIP3    H245075   2.852   5.936   1.519  3.4761  2.2760  0.0073
 7862TIP3   OH245076   3.591   1.765  12.344  0.2570 -0.9266 -0.0879
 7862TIP3    H145077   3.607   1.846  12.295  4.8882  0.4520  3.0877
 7862TIP3    H245078   3.519   1.787  12.403  0.7121  0.5364 -0.0329
 7863TIP3   OH245079   2.040   1.761   5.481 -0.8183  0.1669 -0.0849
 7863TIP3    H145080   2.047   1.723   5.568 -2.6670  0.9221  0.4338
 7863TIP3    H245081   2.066   1.852   5.491 -1.2220  0.3068 -0.2749
 7864TIP3   OH245082   3.592   5.320  16.828 -0.5738  0.1617  0.0358
 7864TIP3    H145083   3.655   5.329  16.757 -0.0473  0.2131  0.4954
 7864TIP3    H245084   3.633   5.366  16.902 -0.1677 -1.6139  0.9624
 7865TIP3   OH245085   2.404   5.065  15.621  0.2288  0.8139 -0.0379
 7865TIP3    H145086   2.353   5.123  15.564 -0.0110  1.5918  0.9180
 7865TIP3    H245087   2.338   5.026  15.679  0.3774 -0.5292 -0.7403
 7866TIP3   OH245088   2.715   0.031  11.508  0.4154  0.3869 -0.1739
 7866TIP3    H145089   2.714  -0.065  11.518 -0.1847  0.2556 -1.3462
 7866TIP3    H245090   2.808   0.054  11.511  0.5040 -0.0198  1.7477
 7867TIP3   OH245091   0.896   4.727  14.254 -0.3603 -0.1119 -0.1102
 7867TIP3    H145092   0.899   4.653  14.314  1.0136 -0.7531 -0.9254
 7867TIP3    H245093   0.849   4.694  14.177  0.7269 -0.3417 -0.6981
 7868TIP3   OH245094   5.272   5.601  11.672 -0.6919  0.7209 -0.2396
 7868TIP3    H145095   5.218   5.601  11.751 -0.1708 -1.2850  0.1754
 7868TIP3    H245096   5.223   5.547  11.609  0.8160 -1.2637  0.1977
 7869TIP3   OH245097   3.252   1.386  13.296 -0.3385 -0.5414  0.9739
 7869TIP3    H145098   3.193   1.394  13.221 -1.1410 -2.1684  1.3932
 7869TIP3    H245099   3.200   1.342  13.363  0.8410 -0.4949  1.9533
 7870TIP3   OH245100   3.194   0.930   2.525  0.0223 -0.1056  0.3183
 7870TIP3    H145101   3.142   0.861   2.484  0.1688 -0.0866  0.0971
 7870TIP3    H245102   3.278   0.927   2.479  0.0981  0.0868  0.4442
 7871TIP3   OH245103   2.976   5.402  14.802 -0.4611  0.1930 -0.2439
 7871TIP3    H145104   2.881   5.401  14.814 -0.5349  4.2988  1.1181
 7871TIP3    H245105   3.007   5.327  14.852 -2.8871 -0.3406  0.6163
 7872TIP3   OH245106   4.594   3.275  14.485 -0.6155 -0.0538  0.9624
 7872TIP3    H145107   4.633   3.219  14.418 -0.9026  1.3350 -0.4097
 7872TIP3    H245108   4.545   3.215  14.541 -1.4447 -1.1042 -0.8278
 7873TIP3   OH245109   6.453   2.935   1.847 -0.3504 -0.7843 -0.1483
 7873TIP3    H145110   6.397   2.898   1.779  0.8866 -1.5186 -0.8184
 7873TIP3    H245111   6.509   2.862   1.874  0.9919  0.1571 -0.2708
 7874TIP3   OH245112   1.308   2.576  13.637 -0.1735  0.6688  0.6833
 7874TIP3    H145113   1.220   2.565  13.600 -0.2453  1.4526  0.6056
 7874TIP3    H245114   1.313   2.510  13.706 -0.5634  0.1506  0.2284
 7875TIP3   OH245115   2.856   5.991   5.213 -0.0258 -0.0322 -0.0679
 7875TIP3    H145116   2.813   5.913   5.178 -0.0381  0.3362 -0.8978
 7875TIP3    H245117   2.870   5.971   5.305 -3.1142  0.2957  0.5835
 7876TIP3   OH245118   1.546   0.951   1.932 -0.0653 -0.2589  0.5873
 7876TIP3    H145119   1.589   1.030   1.964  1.5717 -1.1401  0.6771
 7876TIP3    H245120   1.455   0.977   1.917  1.0956  2.5984 -2.6697
 7877TIP3   OH245121   3.004   6.333  15.142  0.2478  0.6565 -0.0656
 7877TIP3    H145122   2.957   6.258  15.177 -0.1091  1.1460  0.5189
 7877TIP3    H245123   3.084   6.337  15.194  0.6814  0.1627 -0.6816
 7878TIP3   OH245124   4.662   2.361  14.213  0.6904 -0.1536  0.3159
 7878TIP3    H145125   4.581   2.409  14.230 -0.8679 -2.7325  0.8077
 7878TIP3    H245126   4.689   2.329  14.299  1.4654 -0.4823 -0.0352
 7879TIP3   OH245127   0.812   4.143  12.102  0.2846  0.4910 -0.2260
 7879TIP3    H145128   0.762   4.182  12.173 -1.5297  0.8651 -1.6418
 7879TIP3    H245129   0.903   4.149  12.131 -0.2713  2.0679  1.3697
 7880TIP3   OH245130   5.996   0.668  14.023  0.2286  0.3442  0.4002
 7880TIP3    H145131   5.960   0.656  14.111 -0.9688 -1.1534 -0.2440
 7880TIP3    H245132   5.968   0.755  13.997  2.9269  1.9987  2.4878
 7881TIP3   OH245133   0.841   0.832  12.846 -0.3857  0.1611  0.8854
 7881TIP3    H145134   0.841   0.738  12.862  1.8096 -0.0267  0.0235
 7881TIP3    H245135   0.792   0.842  12.764  0.8474 -0.4487  0.0501
 7882TIP3   OH245136   3.306   5.838  16.935  0.0073  0.2482 -1.0950
 7882TIP3    H145137   3.237   5.861  16.873  1.1974 -0.7901 -2.8842
 7882TIP3    H245138   3.385   5.878  16.899  0.5591  0.5563  0.3801
 7883TIP3   OH245139   3.877   5.639  15.554 -0.0354 -0.2199  0.1535
 7883TIP3    H145140   3.860   5.607  15.642 -0.4883 -1.0602 -0.2281
 7883TIP3    H245141   3.844   5.729  15.554  1.9892  0.5744  1.4773
 7884TIP3   OH245142   1.690   4.678  11.426  0.1837  0.0076  0.5085
 7884TIP3    H145143   1.646   4.684  11.341  1.0235  0.8480  0.1149
 7884TIP3    H245144   1.670   4.761  11.470  0.2323 -0.1812  0.8911
 7885TIP3   OH245145   3.329   3.691  11.159 -0.2059 -0.1444  0.1157
 7885TIP3    H145146   3.253   3.743  11.186 -0.3500  0.6116 -1.5832
 7885TIP3    H245147   3.403   3.752  11.165  0.2290 -0.7609  1.3672
 7886TIP3   OH245148   6.673   1.267   6.083  0.2704  0.0971  0.1559
 7886TIP3    H145149   6.751   1.211   6.086 -1.0721 -1.9117 -0.5263
 7886TIP3    H245150   6.601   1.209   6.106 -1.3299  1.2824 -1.5751
 7887TIP3   OH245151   3.640   2.177  14.016  0.6577 -0.5010 -0.5432
 7887TIP3    H145152   3.714   2.125  13.985  0.5588  0.1407 -1.9243
 7887TIP3    H245153   3.645   2.258  13.966  0.6411  0.7298  1.3485
 7888TIP3   OH245154   0.404   1.031  14.084 -0.6904 -0.1667  0.6572
 7888TIP3    H145155   0.397   1.010  14.177 -1.0419 -1.2562  0.3907
 7888TIP3    H245156   0.489   0.995  14.057 -0.3402  0.6250  0.6698
 7889TIP3   OH245157   3.448   0.902   2.414 -0.2162  0.5544 -0.1423
 7889TIP3    H145158   3.424   0.824   2.364 -0.1127  0.1524  0.4240
 7889TIP3    H245159   3.513   0.946   2.360 -0.0582  0.0927 -0.3342
 7890TIP3   OH245160   6.240   1.249  14.145  0.2091 -0.3996 -0.4899
 7890TIP3    H145161   6.147   1.238  14.127  0.0146 -1.4946  0.9610
 7890TIP3    H245162   6.274   1.159  14.148  1.3563 -0.0013 -1.1909
 7891TIP3   OH245163   0.554   5.629   5.927 -0.0905 -0.1937 -0.1922
 7891TIP3    H145164   0.519   5.675   6.003  0.8210  1.9299 -0.9730
 7891TIP3    H245165   0.510   5.669   5.852  2.2914  1.0338 -1.0517
 7892TIP3   OH245166   1.213   6.771   4.804  0.1291 -0.2084  0.7338
 7892TIP3    H145167   1.235   6.821   4.725 -2.4997 -0.7029 -0.4189
 7892TIP3    H245168   1.298   6.754   4.846  1.4900  1.2977 -1.2097
 7893TIP3   OH245169   1.774   2.294   6.572 -1.0239  0.2093  0.0143
 7893TIP3    H145170   1.819   2.215   6.603  0.3871  1.1957  0.6056
 7893TIP3    H245171   1.811   2.365   6.625  0.9552  1.8959 -3.2912
 7894TIP3   OH245172   2.175   6.373  13.624  0.6938 -0.0909  0.3605
 7894TIP3    H145173   2.106   6.355  13.687 -0.2400 -0.7140 -0.7878
 7894TIP3    H245174   2.166   6.466  13.603 -1.5731 -0.6795 -1.7242
 7895TIP3   OH245175   2.006   2.979  15.845 -0.0604  0.7734 -0.5473
 7895TIP3    H145176   1.940   2.909  15.840  0.6835 -0.1199  1.0501
 7895TIP3    H245177   1.991   3.019  15.931  1.4644  0.5388 -0.1425
 7896TIP3   OH245178   2.627   5.025  11.482  0.1426 -0.8646  0.1740
 7896TIP3    H145179   2.539   5.033  11.520 -0.2998 -4.2899  0.1153
 7896TIP3    H245180   2.654   5.116  11.467 -2.4738  0.3876  2.1895
 7897TIP3   OH245181   1.838   4.377  15.140 -0.3357 -0.1584 -0.6825
 7897TIP3    H145182   1.879   4.463  15.129  0.6154 -0.3549  0.9378
 7897TIP3    H245183   1.892   4.334  15.206 -2.2891 -1.0244  0.4381
 7898TIP3   OH245184   1.359   2.557  15.131 -0.0597 -0.1760 -0.1545
 7898TIP3    H145185   1.332   2.649  15.138 -0.8114 -0.5151  2.2061
 7898TIP3    H245186   1.303   2.521  15.063  0.8861  1.2786 -1.8051
 7899TIP3   OH245187   1.324   1.240   1.149  0.0456 -0.4186  0.2133
 7899TIP3    H145188   1.374   1.316   1.120  0.9770 -1.2144 -0.3293
 7899TIP3    H245189   1.233   1.263   1.130  0.1895  0.9538  0.9939
 7900TIP3   OH245190   6.774   1.343  14.661 -0.1999  0.2660 -0.7233
 7900TIP3    H145191   6.734   1.302  14.584  0.8094 -1.0560 -0.5847
 7900TIP3    H245192   6.843   1.281  14.687  1.1418  1.8830 -0.2696
 7901TIP3   OH245193   2.483   0.554  14.026 -0.2091  0.2108  0.1793
 7901TIP3    H145194   2.457   0.635  13.981 -0.6237  0.7661  1.3591
 7901TIP3    H245195   2.525   0.501  13.958 -1.1722  0.8300 -0.9466
 7902TIP3   OH245196   3.475   1.749   4.671 -0.6238  0.3155 -0.4420
 7902TIP3    H145197   3.424   1.766   4.592 -1.2945 -1.2978 -0.3907
 7902TIP3    H245198   3.413   1.758   4.743 -0.0389  1.6772 -0.0760
 7903TIP3   OH245199   0.472   0.121   5.196 -0.4708 -0.1712 -0.6110
 7903TIP3    H145200   0.416   0.066   5.142  0.9717 -0.2131 -2.1536
 7903TIP3    H245201   0.553   0.131   5.145  1.2340 -0.7295  1.8068
 7904TIP3   OH245202   3.153   2.009   2.433  0.1651  0.3461  0.0612
 7904TIP3    H145203   3.204   2.062   2.494 -1.9356  2.9675 -0.2851
 7904TIP3    H245204   3.174   2.045   2.347 -0.2393 -0.3426 -0.3302
 7905TIP3   OH245205   6.009   6.458   0.671 -0.0458 -0.1059  0.0758
 7905TIP3    H145206   5.986   6.533   0.615 -1.3556  0.0587  0.7974
 7905TIP3    H245207   6.102   6.442   0.652  0.3186  1.8140  0.0269
 7906TIP3   OH245208   1.052   2.199  15.315  0.2787  0.1343  0.1504
 7906TIP3    H145209   1.043   2.242  15.400 -1.2468  1.2523 -0.5264
 7906TIP3    H245210   0.982   2.134  15.313  0.1304  0.3053 -0.3544
 7907TIP3   OH245211   4.895   4.314  16.677 -0.1088 -0.4139  0.5727
 7907TIP3    H145212   4.810   4.356  16.692  0.0057 -0.1975  0.6178
 7907TIP3    H245213   4.890   4.232  16.727 -1.0435 -1.3845 -1.0140
 7908TIP3   OH245214   4.361   2.258   1.843  0.4132 -0.1571  0.4069
 7908TIP3    H145215   4.340   2.209   1.923  0.7464 -0.0691  0.5507
 7908TIP3    H245216   4.457   2.255   1.838  0.4617  0.8700  0.6570
 7909TIP3   OH245217   4.244   1.476  14.852 -0.3685  0.0740  0.1652
 7909TIP3    H145218   4.184   1.462  14.779 -0.0176  2.7297 -0.7518
 7909TIP3    H245219   4.261   1.570  14.850  3.6095 -0.4913  0.5308
 7910TIP3   OH245220   1.385   0.102   1.155 -0.2656 -0.9113 -0.7144
 7910TIP3    H145221   1.466   0.083   1.107  1.9403  1.4657  1.7051
 7910TIP3    H245222   1.413   0.157   1.228 -4.2137  0.6527 -0.1238
 7911TIP3   OH245223   3.173   5.745   4.342  0.1180  0.4826  0.0349
 7911TIP3    H145224   3.235   5.705   4.403 -0.5653 -0.1887  0.3201
 7911TIP3    H245225   3.205   5.834   4.329  1.7099 -0.1518 -0.6485
 7912TIP3   OH245226   3.970   6.051  15.326 -0.0355  0.5562  0.2011
 7912TIP3    H145227   3.967   6.146  15.316  2.4934  0.6337 -0.5173
 7912TIP3    H245228   3.987   6.036  15.419  1.8429  0.9645 -0.0335
 7913TIP3   OH245229   5.498   0.169  12.300 -0.6843 -0.7940  0.5556
 7913TIP3    H145230   5.493   0.260  12.330  0.1043 -0.8017  0.7511
 7913TIP3    H245231   5.462   0.171  12.211 -1.5985 -0.4835  0.9251
 7914TIP3   OH245232   4.802   5.620  12.004  0.5232  0.2333 -0.0333
 7914TIP3    H145233   4.798   5.527  11.984  4.2326 -0.3365  1.1047
 7914TIP3    H245234   4.765   5.663  11.926  0.2343 -2.1115 -1.2834
 7915TIP3   OH245235   3.155   3.472   0.619  0.5717  0.1259  0.2371
 7915TIP3    H145236   3.233   3.473   0.564 -0.1744 -4.1079 -1.2064
 7915TIP3    H245237   3.089   3.425   0.568 -2.9069  2.9943  1.6173
 7916TIP3   OH245238   6.800   4.868  16.577  0.4366  0.3968 -0.5372
 7916TIP3    H145239   6.856   4.817  16.635  1.0809  2.6452  0.9519
 7916TIP3    H245240   6.858   4.895  16.505  0.1323 -0.7568 -1.2458
 7917TIP3   OH245241   6.421   1.782  11.277 -0.3403  0.0048  0.2252
 7917TIP3    H145242   6.452   1.744  11.194 -1.3378  0.2429 -0.2727
 7917TIP3    H245243   6.492   1.766  11.339 -0.2938 -1.7148 -0.2370
 7918TIP3   OH245244   1.260   1.140  14.348 -0.6555 -0.2225 -0.5334
 7918TIP3    H145245   1.240   1.135  14.254  0.1993  0.7973 -0.7959
 7918TIP3    H245246   1.349   1.104  14.355 -0.5205  0.1603 -0.2074
 7919TIP3   OH245247   4.771   1.097  12.611  0.0142  0.0862 -0.0183
 7919TIP3    H145248   4.796   1.163  12.675 -1.1383 -1.0061  1.6498
 7919TIP3    H245249   4.675   1.097  12.613 -0.0890 -2.8981  1.5307
 7920TIP3   OH245250   4.894   5.414  16.661 -0.3208 -0.0999  0.6798
 7920TIP3    H145251   4.865   5.405  16.571 -0.0038 -0.6312  0.6235
 7920TIP3    H245252   4.819   5.387  16.714 -0.4378  0.0095  0.5668
 7921TIP3   OH245253   5.081   1.504   3.372 -0.4943  0.1676  0.0226
 7921TIP3    H145254   5.075   1.527   3.465  1.2133 -2.4126  0.8941
 7921TIP3    H245255   5.052   1.583   3.326 -0.9363  1.7151  2.7098
 7922TIP3   OH245256   4.163   0.335   1.834  0.4669  0.2179  0.4327
 7922TIP3    H145257   4.152   0.411   1.777 -2.2178  0.9005  1.7025
 7922TIP3    H245258   4.191   0.372   1.918 -1.2108 -0.0651  1.1651
 7923TIP3   OH245259   0.543   5.219  12.005 -0.5668  0.2719 -0.9326
 7923TIP3    H145260   0.520   5.133  11.971 -0.7385 -0.2019  0.3345
 7923TIP3    H245261   0.467   5.274  11.985 -0.7102 -0.0223 -1.2044
 7924TIP3   OH245262   3.377   0.770   1.689  0.0034 -0.0988 -0.4731
 7924TIP3    H145263   3.383   0.785   1.783 -0.1979 -2.6678  0.0022
 7924TIP3    H245264   3.285   0.783   1.668 -0.1000 -0.3152 -0.1572
 7925TIP3   OH245265   2.969   1.132   0.062 -0.1235  0.2531  0.0097
 7925TIP3    H145266   2.874   1.124   0.060  0.0186 -2.1517 -2.5608
 7925TIP3    H245267   2.995   1.137  -0.030  2.3134 -0.8585  0.5521
 7926TIP3   OH245268   4.268   2.875   5.584  0.5683  0.2051 -0.0490
 7926TIP3    H145269   4.256   2.891   5.678  1.5929 -1.6398  0.4378
 7926TIP3    H245270   4.179   2.876   5.549  0.0661 -0.1788  1.1470
 7927TIP3   OH245271   5.388   6.768  11.770 -0.2239  0.6617  0.1011
 7927TIP3    H145272   5.398   6.760  11.864 -1.4010 -1.0316  0.1386
 7927TIP3    H245273   5.478   6.764  11.735  0.2574  1.9280  1.1589
 7928TIP3   OH245274   2.527   0.524  11.830  0.2228 -0.4184  0.2017
 7928TIP3    H145275   2.441   0.497  11.800 -0.4528  0.5621  1.1817
 7928TIP3    H245276   2.515   0.546  11.922  0.8406  2.5268 -0.3336
 7929TIP3   OH245277   6.269   0.136   4.871 -0.3828 -0.2924 -0.2631
 7929TIP3    H145278   6.274   0.225   4.906 -0.5437 -0.9641  1.6119
 7929TIP3    H245279   6.197   0.139   4.809  0.1597  1.0726 -0.8754
 7930TIP3   OH245280   1.108   2.565   0.640 -0.0050 -0.4122 -0.0464
 7930TIP3    H145281   1.201   2.554   0.618  0.6509 -0.2371  2.3808
 7930TIP3    H245282   1.082   2.481   0.677 -0.6905 -0.3030 -0.2726
 7931TIP3   OH245283   4.170   2.901   6.589 -0.5652  0.1021 -0.0706
 7931TIP3    H145284   4.148   2.828   6.647 -2.3987  0.0864 -0.6885
 7931TIP3    H245285   4.146   2.869   6.502  1.9683  0.1796 -0.8684
 7932TIP3   OH245286   3.123   1.533   1.691  0.0967 -0.2062  0.0471
 7932TIP3    H145287   3.147   1.455   1.640  0.1014 -0.3977  0.3367
 7932TIP3    H245288   3.121   1.604   1.627  0.1239 -0.4389 -0.2165
 7933TIP3   OH245289   2.979   4.188  11.873 -0.5295 -0.2460  0.0620
 7933TIP3    H145290   3.005   4.206  11.783 -0.1354  3.2796  0.7363
 7933TIP3    H245291   3.036   4.244  11.926 -2.3768 -0.3452  2.3127
 7934TIP3   OH245292   4.166   1.174  14.670  0.4122  0.3682 -0.5948
 7934TIP3    H145293   4.220   1.156  14.747  0.6822  2.5543 -0.2142
 7934TIP3    H245294   4.229   1.192  14.600  0.1673  0.4751 -0.7905
 7935TIP3   OH245295   5.895   2.733   4.018  0.0316 -0.0757 -0.0942
 7935TIP3    H145296   5.888   2.803   3.953  2.2096  0.7134  0.4431
 7935TIP3    H245297   5.966   2.677   3.984 -0.8032 -1.3037  0.1433
 7936TIP3   OH245298   4.515   4.601   1.257 -0.0640  0.2865  0.3438
 7936TIP3    H145299   4.542   4.691   1.244  0.9357 -0.2730 -1.9757
 7936TIP3    H245300   4.579   4.565   1.318 -0.6878  1.2097  1.5680
 7937TIP3   OH245301   3.281   4.344   2.773  0.2077 -0.2106 -0.1276
 7937TIP3    H145302   3.315   4.384   2.853  0.4507 -1.5182  0.4546
 7937TIP3    H245303   3.357   4.303   2.733 -0.0725 -0.2858 -0.5828
 7938TIP3   OH245304   6.377   2.068  15.602  0.0911  0.3286 -0.3277
 7938TIP3    H145305   6.422   2.084  15.685  1.0065 -2.0084 -0.2882
 7938TIP3    H245306   6.439   2.098  15.535  0.4127 -0.0426 -0.2011
 7939TIP3   OH245307   2.709   5.274  15.552  0.1126  0.0624 -0.3311
 7939TIP3    H145308   2.680   5.183  15.543  2.5547 -1.0903  1.7866
 7939TIP3    H245309   2.629   5.324  15.568 -1.2576 -1.7843 -1.0649
 7940TIP3   OH245310   4.886   1.656  15.280  0.0828 -0.3979  0.2824
 7940TIP3    H145311   4.972   1.700  15.280 -0.5242  0.8507  0.5403
 7940TIP3    H245312   4.841   1.692  15.204  0.6431 -2.8999 -1.3425
 7941TIP3   OH245313   1.905   3.147   4.569 -0.1249 -0.4995 -0.0136
 7941TIP3    H145314   1.831   3.173   4.515 -0.1625 -1.1926 -0.3083
 7941TIP3    H245315   1.981   3.154   4.512  0.4641  2.6608  0.9747
 7942TIP3   OH245316   5.340   2.804   3.279 -0.0542  0.0239  0.1939
 7942TIP3    H145317   5.275   2.806   3.208  0.1352 -0.9804 -0.0221
 7942TIP3    H245318   5.304   2.861   3.346 -1.2011 -0.5646  0.1041
 7943TIP3   OH245319   3.827   0.753  14.500 -0.0525  0.2020 -0.1697
 7943TIP3    H145320   3.826   0.748  14.404  1.2718  0.3879 -0.2142
 7943TIP3    H245321   3.920   0.757  14.523 -0.3618  0.7591  1.0927
 7944TIP3   OH245322   1.519   6.302   3.625  0.9006 -0.0960 -0.2402
 7944TIP3    H145323   1.590   6.339   3.572  0.7982 -0.1507 -0.4165
 7944TIP3    H245324   1.512   6.211   3.596  0.6972 -0.0651 -0.2892
 7945TIP3   OH245325   2.143   4.427  13.843  0.1324 -0.1219 -0.6960
 7945TIP3    H145326   2.219   4.460  13.794 -1.0955  0.1353 -2.5154
 7945TIP3    H245327   2.101   4.506  13.877  0.5447 -0.2526  0.1447
 7946TIP3   OH245328   1.042   1.312   1.170 -0.2855  0.3948  0.1050
 7946TIP3    H145329   1.005   1.238   1.121  1.1350 -2.3528  2.7817
 7946TIP3    H245330   0.983   1.323   1.245  0.3949  0.8755  0.5846
 7947TIP3   OH245331   2.734   4.034   1.506  0.0088 -0.0313 -0.5186
 7947TIP3    H145332   2.777   4.118   1.521  2.9499 -1.1537 -1.8677
 7947TIP3    H245333   2.795   3.969   1.539 -2.2283 -1.7341  0.5780
 7948TIP3   OH245334   0.741   3.723   2.829 -0.0738 -0.2155  0.1856
 7948TIP3    H145335   0.796   3.779   2.884  0.5829 -0.3786 -0.2841
 7948TIP3    H245336   0.773   3.634   2.846  0.5540 -0.2155 -0.8907
 7949TIP3   OH245337   5.673   0.172   5.475  0.0376 -0.8403  0.5306
 7949TIP3    H145338   5.675   0.262   5.509 -2.3757 -0.7629  0.6553
 7949TIP3    H245339   5.728   0.122   5.536 -0.9761  0.0364  2.2571
 7950TIP3   OH245340   3.633   0.778  14.696 -0.3001 -0.0108 -0.0449
 7950TIP3    H145341   3.691   0.793  14.622  1.2115  2.7253  1.5051
 7950TIP3    H245342   3.554   0.830  14.676 -0.1072  0.3094  0.0166
 7951TIP3   OH245343   1.963   1.071   7.069  0.9642  0.1232  0.2200
 7951TIP3    H145344   1.915   0.991   7.049 -0.7650  0.9751  0.7852
 7951TIP3    H245345   1.990   1.105   6.984 -0.0173 -0.0379 -0.1678
 7952TIP3   OH245346   3.813   6.758  15.427 -0.5010  1.0975  0.7285
 7952TIP3    H145347   3.856   6.812  15.361 -0.3356 -0.3160 -0.3956
 7952TIP3    H245348   3.845   6.791  15.510  2.1285  0.6803 -0.0220
 7953TIP3   OH245349   3.197   3.927  14.425  0.4588  0.7641 -0.1382
 7953TIP3    H145350   3.278   3.963  14.461  0.8728 -0.9954  0.8087
 7953TIP3    H245351   3.224   3.877  14.349  0.2258  0.3961  0.0192
 7954TIP3   OH245352   5.222   6.309  13.819  0.5215 -0.2243 -0.8546
 7954TIP3    H145353   5.146   6.330  13.873  0.9497 -0.7597 -0.0275
 7954TIP3    H245354   5.245   6.219  13.844  1.9444  0.2232 -0.4604
 7955TIP3   OH245355   2.729   5.177   3.933  0.5860  0.1333  0.0370
 7955TIP3    H145356   2.731   5.084   3.956  0.3389  0.5399  1.8933
 7955TIP3    H245357   2.677   5.217   4.002 -1.2757  1.3624 -1.9628
 7956TIP3   OH245358   1.650   6.642  14.392 -0.6624 -0.0776 -0.1483
 7956TIP3    H145359   1.630   6.727  14.352  0.6435 -0.2367 -1.1918
 7956TIP3    H245360   1.666   6.662  14.485 -0.6407  0.7655 -0.3314
 7957TIP3   OH245361   5.922   4.285   1.549  0.0553  0.2155 -0.0585
 7957TIP3    H145362   5.988   4.249   1.489  0.5526 -0.3174  0.8011
 7957TIP3    H245363   5.871   4.344   1.494  0.3905 -0.3949 -1.0626
 7958TIP3   OH245364   6.067   2.274   4.446  0.2406  0.2703 -0.0189
 7958TIP3    H145365   6.099   2.304   4.361  0.6666 -0.0906  0.0138
 7958TIP3    H245366   6.015   2.348   4.479 -0.6404  0.0975 -0.9596
 7959TIP3   OH245367   3.477   2.012   6.475  0.4624  0.1413 -0.0749
 7959TIP3    H145368   3.555   1.957   6.473  0.3397 -0.0201 -1.3466
 7959TIP3    H245369   3.506   2.097   6.441  0.1965  0.2309 -0.0863
 7960TIP3   OH245370   5.356   1.984   3.939 -0.0716  0.2776  0.2941
 7960TIP3    H145371   5.343   2.017   4.027 -2.1253 -2.6646  1.2653
 7960TIP3    H245372   5.275   1.935   3.919 -0.6273  2.4458 -4.0689
 7961TIP3   OH245373   6.585   1.826   5.632  0.3116  0.4848 -0.1613
 7961TIP3    H145374   6.582   1.842   5.538  0.1999  0.5862 -0.1411
 7961TIP3    H245375   6.580   1.913   5.671 -0.9490  0.3719 -0.0315
 7962TIP3   OH245376   0.961   2.448  16.929 -0.3144  0.7246 -0.3907
 7962TIP3    H145377   0.897   2.459  16.859 -0.1612  1.7328 -0.3876
 7962TIP3    H245378   0.916   2.481  17.008 -0.0473  0.7526 -0.2510
 7963TIP3   OH245379   0.934   6.384   3.329  0.5431 -0.3901  0.7242
 7963TIP3    H145380   0.946   6.450   3.260 -1.9158 -1.1798 -0.5720
 7963TIP3    H245381   1.013   6.330   3.323  2.2013  1.7983  1.2089
 7964TIP3   OH245382   0.149   0.235  16.186  0.8478 -0.6962  0.1711
 7964TIP3    H145383   0.129   0.231  16.280  0.1509  0.9621  0.1254
 7964TIP3    H245384   0.243   0.248  16.182  0.7866 -0.0873  0.6629
 7965TIP3   OH245385   5.637   5.199   2.832  0.7002  0.4407 -0.6791
 7965TIP3    H145386   5.584   5.269   2.793 -0.6370  0.6851  1.3992
 7965TIP3    H245387   5.688   5.242   2.899  0.4197 -0.4461  0.1262
 7966TIP3   OH245388   3.298   5.311   0.912 -0.5507  0.5286  0.3098
 7966TIP3    H145389   3.241   5.325   0.987 -0.7736  0.9788  0.0613
 7966TIP3    H245390   3.376   5.364   0.931 -0.8195  1.0483 -0.0017
 7967TIP3   OH245391   6.190   2.266  13.144  0.3052 -0.2458 -0.2234
 7967TIP3    H145392   6.259   2.201  13.131  1.1638  0.5859 -0.0155
 7967TIP3    H245393   6.109   2.217  13.137  0.9329 -1.4750  0.6770
 7968TIP3   OH245394   5.165   6.161   6.199 -0.1122  0.1610 -0.3237
 7968TIP3    H145395   5.080   6.119   6.192 -0.9785  1.1388  2.7168
 7968TIP3    H245396   5.193   6.145   6.289  2.2675  1.1034 -0.8085
 7969TIP3   OH245397   4.392   3.285   2.801 -0.2151 -0.1570 -0.0637
 7969TIP3    H145398   4.486   3.280   2.819 -0.3307  1.8607  1.5567
 7969TIP3    H245399   4.352   3.289   2.888 -1.4843  2.4024 -0.6799
 7970TIP3   OH245400   0.968   4.434  13.489 -0.5548  0.1079 -0.2560
 7970TIP3    H145401   0.964   4.351  13.538 -0.9830 -0.3483 -1.0453
 7970TIP3    H245402   0.876   4.457  13.474 -0.5257  1.7921  1.6739
 7971TIP3   OH245403   1.996   5.386  12.368 -0.0153  0.5175  0.4562
 7971TIP3    H145404   2.083   5.383  12.407  0.3223 -0.0559 -0.3342
 7971TIP3    H245405   1.968   5.477  12.379  1.7730  1.3914 -1.6179
 7972TIP3   OH245406   1.161   4.475  13.315 -0.3642  0.8128 -0.2344
 7972TIP3    H145407   1.094   4.454  13.380 -0.2689  1.9279  0.2531
 7972TIP3    H245408   1.243   4.443  13.354 -0.3734  1.0457 -0.0233
 7973TIP3   OH245409   3.904   1.284   3.277  0.3751 -0.4337  0.2204
 7973TIP3    H145410   3.899   1.300   3.183 -1.3633 -1.0887  0.1823
 7973TIP3    H245411   3.903   1.189   3.286  2.5319 -0.4671  0.8489
 7974TIP3   OH245412   3.523   1.266   4.271  0.2083 -0.3805  0.0979
 7974TIP3    H145413   3.529   1.272   4.175  1.4493 -0.7161  0.1411
 7974TIP3    H245414   3.479   1.347   4.297  1.1023  0.3616 -0.6571
 7975TIP3   OH245415   1.384   3.175  16.811 -0.1389  0.0623 -0.1833
 7975TIP3    H145416   1.387   3.081  16.798 -1.5761 -0.0236 -0.0368
 7975TIP3    H245417   1.292   3.199  16.798  0.4156  1.6445 -1.5889
 7976TIP3   OH245418   5.953   2.033   6.262 -0.2076 -0.1885  0.0540
 7976TIP3    H145419   5.987   2.052   6.349 -0.1659  0.5890 -0.1261
 7976TIP3    H245420   5.866   2.074   6.261 -0.4904 -0.7835 -0.0356
 7977TIP3   OH245421   5.311   1.324  17.010 -0.1076  0.2876 -0.0223
 7977TIP3    H145422   5.285   1.368  16.929 -0.2773 -0.7701 -0.5684
 7977TIP3    H245423   5.238   1.265  17.029  0.1963  0.1015  0.5713
 7978TIP3   OH245424   4.556   1.225   3.354  0.7487 -0.1537 -0.4018
 7978TIP3    H145425   4.590   1.178   3.278 -0.4184 -0.7549 -0.5711
 7978TIP3    H245426   4.498   1.163   3.397  0.4641  0.5833  0.3020
 7979TIP3   OH245427   0.255   0.729   0.676 -0.0206  0.6832 -0.3206
 7979TIP3    H145428   0.335   0.683   0.649 -0.0335  0.4532  0.0296
 7979TIP3    H245429   0.279   0.770   0.759 -0.9412 -1.2817  0.9935
 7980TIP3   OH245430   0.614   2.034   0.566 -0.6506  0.3552  0.5410
 7980TIP3    H145431   0.555   2.063   0.496 -1.8437  0.0756  1.3782
 7980TIP3    H245432   0.682   2.101   0.569 -1.5378  1.3149  0.2552
 7981TIP3   OH245433   6.154   2.760  13.085  0.3814  0.1093  0.0373
 7981TIP3    H145434   6.219   2.715  13.138  1.1368  1.6777  0.4760
 7981TIP3    H245435   6.204   2.818  13.028 -0.6133  1.3126  0.3399
 7982TIP3   OH245436   6.020   3.286  10.867  0.4057  0.5331 -0.0030
 7982TIP3    H145437   5.924   3.284  10.868  0.3172  1.8407 -1.7818
 7982TIP3    H245438   6.042   3.375  10.840  2.1015 -0.2665 -1.4142
 7983TIP3   OH245439   4.183   2.122   1.304  0.1551 -0.3137  0.0230
 7983TIP3    H145440   4.087   2.125   1.307 -0.0860 -0.8574 -3.2637
 7983TIP3    H245441   4.209   2.212   1.288  0.0333 -0.4413 -0.9372
 7984TIP3   OH245442   4.423   2.123   4.665  0.0095 -0.2881  0.0899
 7984TIP3    H145443   4.329   2.125   4.648 -0.1455 -0.7815  0.8192
 7984TIP3    H245444   4.435   2.185   4.737 -0.0146 -1.3898  1.0771
 7985TIP3   OH245445   5.028   0.658  11.172 -0.3422 -0.1422 -0.0561
 7985TIP3    H145446   5.065   0.743  11.147 -2.4096  0.9681  0.4698
 7985TIP3    H245447   4.951   0.680  11.225  0.7318 -2.3648  2.6785
 7986TIP3   OH245448   1.125   5.298  15.058  0.3040  0.1746  0.3936
 7986TIP3    H145449   1.089   5.347  15.132  2.1167  0.8740  0.8564
 7986TIP3    H245450   1.187   5.237  15.097  2.1266  1.3195 -0.5881
 7987TIP3   OH245451   5.626   1.862  16.065  0.4133 -0.3438  0.2722
 7987TIP3    H145452   5.632   1.796  15.996 -1.8196  0.0395 -0.3822
 7987TIP3    H245453   5.646   1.945  16.021 -2.7958  0.1690 -0.5469
 7988TIP3   OH245454   6.535   3.416   5.624 -0.0662 -0.7461 -0.5970
 7988TIP3    H145455   6.523   3.384   5.714  1.1565 -0.5870 -0.3506
 7988TIP3    H245456   6.592   3.493   5.634 -0.2861 -0.4651 -1.4740
 7989TIP3   OH245457   1.988   2.442  15.983 -0.0608  0.2196  0.2029
 7989TIP3    H145458   1.946   2.481  15.905  0.1795 -1.5011 -0.8371
 7989TIP3    H245459   1.919   2.440  16.049 -0.7854  0.1102 -0.5440
 7990TIP3   OH245460   3.939   0.489   3.237  0.1408 -0.0288 -0.2972
 7990TIP3    H145461   4.032   0.514   3.234  0.1312  0.2190  0.7389
 7990TIP3    H245462   3.899   0.537   3.165  1.0722 -1.3716 -1.7714
 7991TIP3   OH245463   4.679   4.175  15.695 -0.1099 -0.0626 -0.4041
 7991TIP3    H145464   4.670   4.201  15.603  1.2718  1.8872 -0.0595
 7991TIP3    H245465   4.589   4.169  15.727 -0.6820 -2.0694 -2.1609
 7992TIP3   OH245466   4.972   5.220  13.543  0.5008 -0.2870 -0.8367
 7992TIP3    H145467   4.949   5.135  13.504  0.4714  0.0998 -1.6699
 7992TIP3    H245468   4.976   5.280  13.469  0.8157  0.3831 -0.2827
 7993TIP3   OH245469   1.363   1.009   4.279 -0.6384 -0.1742  0.2633
 7993TIP3    H145470   1.321   1.068   4.341 -1.2552  1.3310 -1.5027
 7993TIP3    H245471   1.449   1.048   4.263 -1.5608  1.0867 -1.9423
 7994TIP3   OH245472   1.944   1.683   1.228  0.0734 -0.3058 -0.3511
 7994TIP3    H145473   1.926   1.592   1.207  0.3289 -0.8901  1.7637
 7994TIP3    H245474   2.020   1.706   1.174  0.0294 -1.3554 -0.8746
 7995TIP3   OH245475   3.170   5.685   0.271 -0.4129  0.4680 -0.2599
 7995TIP3    H145476   3.137   5.604   0.310 -0.3798  0.0994 -0.9835
 7995TIP3    H245477   3.210   5.732   0.344 -0.2878 -0.2464  0.1381
 7996TIP3   OH245478   5.671   5.284  15.040 -0.1136  0.4596  0.1776
 7996TIP3    H145479   5.576   5.271  15.031  0.0058  0.4485 -1.3816
 7996TIP3    H245480   5.693   5.343  14.968  1.0828  0.3609  0.4562
 7997TIP3   OH245481   5.273   1.029  13.831 -0.3199 -0.0723  0.2338
 7997TIP3    H145482   5.222   0.969  13.777 -1.3188  0.5196  0.5094
 7997TIP3    H245483   5.243   1.116  13.806 -1.9131  0.1975  2.7695
 7998TIP3   OH245484   1.783   0.040   3.169  0.4628  0.6622 -0.3490
 7998TIP3    H145485   1.699   0.074   3.136  0.3145 -0.2230 -0.9206
 7998TIP3    H245486   1.844   0.112   3.157  0.0160  0.9500 -0.9623
 7999TIP3   OH245487   4.098   6.422  12.141 -0.2742 -0.1581  0.1685
 7999TIP3    H145488   4.083   6.466  12.057 -2.2983 -1.2562 -0.1207
 7999TIP3    H245489   4.094   6.329  12.121 -3.3343 -0.5024  1.7463
 8000TIP3   OH245490   0.885   0.717   4.677  0.1073  0.0417  0.1739
 8000TIP3    H145491   0.906   0.723   4.770  0.8903 -0.3891  0.0441
 8000TIP3    H245492   0.853   0.627   4.666  1.5450 -0.4524 -0.2310
 8001TIP3   OH245493   3.988   3.756   4.431 -0.5422 -0.0381  0.1259
 8001TIP3    H145494   4.044   3.707   4.371 -2.1518 -0.7114 -0.8784
 8001TIP3    H245495   4.017   3.730   4.518 -0.7131 -2.0539 -0.3804
 8002TIP3   OH245496   6.736   2.851  16.964 -0.1416 -0.4909  0.2856
 8002TIP3    H145497   6.707   2.762  16.983 -1.9684  0.0462  0.1977
 8002TIP3    H245498   6.660   2.893  16.924  1.4998  0.3563 -2.1615
 8003TIP3   OH245499   4.733   0.447   1.425  0.1639  0.5913 -0.3755
 8003TIP3    H145500   4.723   0.532   1.382 -2.6746  0.8282  0.5059
 8003TIP3    H245501   4.774   0.467   1.509 -1.3573  1.2829  0.2348
 8004TIP3   OH245502   5.839   6.158   2.811  0.0786  0.2704 -1.1606
 8004TIP3    H145503   5.744   6.160   2.821  0.2465 -1.1649  1.5322
 8004TIP3    H245504   5.860   6.066   2.792  0.9679  0.4946 -1.3529
 8005TIP3   OH245505   4.846   2.422  15.932  0.7932 -0.1239 -0.7004
 8005TIP3    H145506   4.776   2.395  15.990  0.0788  0.0830 -1.4441
 8005TIP3    H245507   4.927   2.402  15.980  0.2403  1.4649  1.0047
 8006TIP3   OH245508   0.311   6.182  14.837 -0.7226 -0.1758  0.1939
 8006TIP3    H145509   0.263   6.244  14.782 -0.1254  0.1774  0.0641
 8006TIP3    H245510   0.255   6.169  14.913 -0.6136  0.9676  0.4949
 8007TIP3   OH245511   0.867   0.672  12.067 -0.4025 -0.1140 -0.3537
 8007TIP3    H145512   0.819   0.655  11.986  0.3238  0.8433 -1.0150
 8007TIP3    H245513   0.873   0.768  12.071 -0.8797 -0.1176  1.1136
 8008TIP3   OH245514   2.779   6.551  13.023  0.6630  0.2245  0.2697
 8008TIP3    H145515   2.769   6.463  12.987  0.2746  0.3546  0.0493
 8008TIP3    H245516   2.762   6.609  12.949 -0.9736  0.5135  0.8365
 8009TIP3   OH245517   1.227   1.639   6.861  0.2375 -0.1764  0.0488
 8009TIP3    H145518   1.240   1.682   6.946  0.4522  0.8520 -0.4864
 8009TIP3    H245519   1.144   1.591   6.871  0.7119 -0.8130  1.1214
 8010TIP3   OH245520   6.275   2.066  13.714 -0.1778 -0.3015 -0.5108
 8010TIP3    H145521   6.326   1.986  13.702  0.0985 -0.1162 -0.5793
 8010TIP3    H245522   6.189   2.036  13.744  0.4121 -0.5499  1.0171
 8011TIP3   OH245523   4.930   0.961   1.355  0.0774 -0.5152 -0.1399
 8011TIP3    H145524   5.017   0.996   1.333 -0.8577  0.1321 -3.4659
 8011TIP3    H245525   4.922   0.883   1.299 -2.0673  0.4221 -1.2429
 8012TIP3   OH245526   0.392   3.299  17.041  0.3955  0.9304  0.1349
 8012TIP3    H145527   0.369   3.220  17.090  0.4769  0.2875 -0.8235
 8012TIP3    H245528   0.352   3.371  17.091 -2.9818 -0.0172 -0.8944
 8013TIP3   OH245529   2.364   0.104  13.412 -0.1067  0.0349 -0.4350
 8013TIP3    H145530   2.398   0.018  13.436  0.0501  0.2284  0.0445
 8013TIP3    H245531   2.405   0.164  13.473 -0.3179  0.4374 -0.6846
 8014TIP3   OH245532   0.740   0.914  12.608 -0.1935  0.4592 -0.2807
 8014TIP3    H145533   0.670   0.853  12.584  1.1796 -1.5970  0.6479
 8014TIP3    H245534   0.803   0.908  12.537 -0.2343  1.1088 -0.3723
 8015TIP3   OH245535   0.351   1.160  13.069  0.5954  0.5093 -0.2577
 8015TIP3    H145536   0.416   1.098  13.036  2.7941  1.8577  1.3010
 8015TIP3    H245537   0.385   1.187  13.154 -0.8416  3.0103 -0.3903
 8016TIP3   OH245538   2.572   5.686  14.142  0.0844 -0.2845 -0.0138
 8016TIP3    H145539   2.657   5.722  14.118 -0.7792  1.4557 -0.5592
 8016TIP3    H245540   2.591   5.632  14.219  1.7294 -0.2716 -0.3630
 8017TIP3   OH245541   3.695   3.491   6.702 -1.3405 -0.3897 -0.1505
 8017TIP3    H145542   3.718   3.558   6.638  0.6015 -0.9784 -0.1140
 8017TIP3    H245543   3.712   3.532   6.787 -0.1190 -0.8941 -0.1278
 8018TIP3   OH245544   0.512   4.377  11.972 -0.0198  0.1526 -0.0395
 8018TIP3    H145545   0.537   4.465  11.999  0.7614 -0.5850  1.8352
 8018TIP3    H245546   0.564   4.360  11.893  2.1477  0.3131  1.2727
 8019TIP3   OH245547   3.697   4.521   3.702  0.1696 -0.2041 -0.7009
 8019TIP3    H145548   3.615   4.570   3.701 -0.5568 -1.2865  1.1775
 8019TIP3    H245549   3.765   4.587   3.718 -0.8024  0.2774  1.9356
 8020TIP3   OH245550   4.764   2.597   4.967  0.7970 -0.3373 -0.9036
 8020TIP3    H145551   4.669   2.601   4.969  0.7844 -0.6729  0.8740
 8020TIP3    H245552   4.790   2.670   4.911 -0.4738  0.3129 -0.6737
 8021TIP3   OH245553   3.123   5.707  14.244  0.1826 -0.4897 -0.0441
 8021TIP3    H145554   3.052   5.727  14.305  0.2657 -0.7569  0.1468
 8021TIP3    H245555   3.131   5.784  14.189 -0.3342 -0.5075 -0.1450
 8022TIP3   OH245556   0.403   0.564  14.293  0.0917  0.0688  0.2035
 8022TIP3    H145557   0.481   0.619  14.300 -0.0501  0.2553  0.3249
 8022TIP3    H245558   0.403   0.535  14.202  1.4064 -1.5754  0.6778
 8023TIP3   OH245559   1.681   6.352  11.090  0.3136 -0.0832 -0.2310
 8023TIP3    H145560   1.704   6.279  11.034  1.4250  0.0166  0.0750
 8023TIP3    H245561   1.765   6.391  11.116 -0.1835  0.2122  1.0452
 8024TIP3   OH245562   3.865   0.041   0.206 -0.1577 -0.1464  1.0100
 8024TIP3    H145563   3.786   0.017   0.254  0.8997 -1.7386  2.0352
 8024TIP3    H245564   3.834   0.099   0.136 -2.1678 -0.4638  1.5832
 8025TIP3   OH245565   5.360   6.131   4.121 -0.4084 -0.3425 -0.1104
 8025TIP3    H145566   5.365   6.042   4.158 -3.4156 -0.4997  0.1965
 8025TIP3    H245567   5.275   6.164   4.151 -1.1593  1.1391 -3.4240
 8026TIP3   OH245568   3.919   0.100   4.650  0.0562  0.0863  0.3156
 8026TIP3    H145569   3.965   0.035   4.598 -0.6339  1.9500 -2.8675
 8026TIP3    H245570   3.988   0.145   4.698  0.9043 -0.7453 -0.0714
 8027TIP3   OH245571   6.081   4.337   5.855  0.1939 -0.3640 -0.0133
 8027TIP3    H145572   6.005   4.379   5.895  1.2103  0.3861  1.2153
 8027TIP3    H245573   6.045   4.284   5.784 -1.5310 -0.5356  0.9378
 8028TIP3   OH245574   2.055   0.705  10.579  0.2144  0.3536 -0.2407
 8028TIP3    H145575   2.121   0.729  10.515  2.3294 -0.3688  1.5232
 8028TIP3    H245576   2.011   0.629  10.541  1.3361  0.0120 -0.9133
 8029TIP3   OH245577   1.764   3.854   0.876 -0.4509 -0.3190 -0.6069
 8029TIP3    H145578   1.764   3.879   0.969 -2.2913 -0.1277 -0.6109
 8029TIP3    H245579   1.823   3.917   0.834  0.8121 -0.7369  0.4977
 8030TIP3   OH245580   4.844   3.625  14.973  0.4420 -0.3422 -0.9444
 8030TIP3    H145581   4.766   3.673  14.946  1.8313  3.8646  1.4870
 8030TIP3    H245582   4.833   3.615  15.068  2.2179 -0.9771 -0.7778
 8031TIP3   OH245583   4.479   6.451  15.560  0.1685  0.1289  0.1375
 8031TIP3    H145584   4.431   6.403  15.493 -1.3148  1.8276 -0.0737
 8031TIP3    H245585   4.539   6.386  15.597  0.0048 -1.2249 -1.8043
 8032TIP3   OH245586   0.029   0.547   1.064  0.2425 -0.0698 -0.3996
 8032TIP3    H145587  -0.011   0.619   1.111 -0.1351  0.0306 -0.8701
 8032TIP3    H245588   0.029   0.575   0.972 -1.0829 -1.1883 -0.7757
 8033TIP3   OH245589   2.956   0.874   3.757  0.7234  0.1470  0.9192
 8033TIP3    H145590   2.981   0.813   3.826  1.3067  0.1038  0.6729
 8033TIP3    H245591   3.009   0.848   3.682 -1.8012 -1.5903 -0.4292
 8034TIP3   OH245592   0.245   3.013  12.042  0.3513  0.5184  0.1591
 8034TIP3    H145593   0.332   3.019  12.004  0.8236 -0.0579  1.1147
 8034TIP3    H245594   0.259   3.021  12.136 -0.3904 -1.6302  0.5043
 8035TIP3   OH245595   3.389   3.601   5.927 -0.1302  0.4090 -0.5811
 8035TIP3    H145596   3.363   3.689   5.954 -2.9098 -0.5126  0.0611
 8035TIP3    H245597   3.402   3.608   5.833 -1.2409  1.2994 -0.6816
 8036TIP3   OH245598   5.330   3.201  14.009 -0.2713 -0.3101 -0.0649
 8036TIP3    H145599   5.254   3.153  13.975  0.4047 -0.8046 -0.9311
 8036TIP3    H245600   5.307   3.293  13.998 -0.6064 -0.4589 -0.6429
 8037TIP3   OH245601   5.719   5.487  15.300  0.4521 -0.3295  0.1691
 8037TIP3    H145602   5.738   5.393  15.297 -1.8501 -0.9076  1.3066
 8037TIP3    H245603   5.756   5.522  15.219  0.7263 -2.3427 -0.6258
 8038TIP3   OH245604   2.436   5.016   4.001 -0.3112 -0.6035 -0.0780
 8038TIP3    H145605   2.453   4.967   3.921  0.8004  0.7721 -0.7411
 8038TIP3    H245606   2.348   5.051   3.990 -0.3209 -0.7643 -0.5196
 8039TIP3   OH245607   0.860   0.036   4.702  0.1153  0.0953 -0.0089
 8039TIP3    H145608   0.906   0.063   4.623  0.5603 -0.6769 -0.0188
 8039TIP3    H245609   0.841   0.119   4.748 -1.5750  0.7083 -1.6637
 8040TIP3   OH245610   4.367   5.638   0.454  0.2657 -0.0593 -0.0345
 8040TIP3    H145611   4.299   5.575   0.430 -1.5439  1.6050  0.4790
 8040TIP3    H245612   4.387   5.684   0.373  0.2798 -0.0785 -0.0421
 8041TIP3   OH245613   3.879   3.131   2.652 -0.0508 -0.0678  0.2751
 8041TIP3    H145614   3.913   3.141   2.563 -0.6125 -0.6543 -0.0123
 8041TIP3    H245615   3.837   3.045   2.653  1.4036 -0.8146  1.5953
 8042TIP3   OH245616   5.790   5.074  11.130  0.1045  0.2190  0.1083
 8042TIP3    H145617   5.816   5.166  11.135  0.6936  0.0345  0.5299
 8042TIP3    H245618   5.778   5.057  11.037  0.2638  0.6495  0.0091
 8043TIP3   OH245619   0.816   4.728   1.658 -0.3417  0.9222 -0.7607
 8043TIP3    H145620   0.734   4.681   1.674  0.6616 -1.1499 -1.2533
 8043TIP3    H245621   0.858   4.679   1.587  0.4027  3.1684 -1.9405
 8044TIP3   OH245622   4.267   0.019   0.086 -0.4180 -0.1392 -0.4139
 8044TIP3    H145623   4.202  -0.043   0.055 -1.5964  0.2512  1.1456
 8044TIP3    H245624   4.295   0.067   0.008 -1.6092 -0.6870 -1.1918
 8045TIP3   OH245625   3.676   1.599  13.620  0.3088  0.0297 -0.0131
 8045TIP3    H145626   3.755   1.620  13.571 -0.3525  0.7705 -0.7904
 8045TIP3    H245627   3.633   1.530  13.570  0.2312 -0.0620  0.1758
 8046TIP3   OH245628   6.670   5.940  13.897 -0.3404 -0.0088 -0.6040
 8046TIP3    H145629   6.651   5.962  13.806 -1.8180  1.5921  0.0562
 8046TIP3    H245630   6.695   5.847  13.894  1.7843  0.5333 -2.8930
 8047TIP3   OH245631   3.238   5.100   4.479 -0.2933  0.2629  0.3679
 8047TIP3    H145632   3.186   5.022   4.459  0.7898 -0.8345  1.6154
 8047TIP3    H245633   3.326   5.066   4.498  0.2234  1.7919  0.8826
 8048TIP3   OH245634   1.720   5.580  13.024  0.0418  0.2006  0.0912
 8048TIP3    H145635   1.690   5.648  12.964  3.2171  1.0811 -0.7087
 8048TIP3    H245636   1.767   5.627  13.093  0.3618 -1.0587  0.7632
 8049TIP3   OH245637   3.290   3.926  10.934 -0.8720 -0.3889  0.7966
 8049TIP3    H145638   3.216   3.949  10.990 -0.0003  1.7363  1.1862
 8049TIP3    H245639   3.270   3.969  10.850  1.4303  3.4446  1.9442
 8050TIP3   OH245640   1.156   4.954  14.655 -1.0853  0.1993 -0.0285
 8050TIP3    H145641   1.138   5.042  14.622 -2.0347 -0.0104 -0.1077
 8050TIP3    H245642   1.241   4.931  14.619 -0.7896  1.1177  0.0617
 8051TIP3   OH245643   0.924   6.649   0.979 -0.3505 -0.5208 -0.1847
 8051TIP3    H145644   0.858   6.696   1.029 -0.0971  1.0028 -1.2335
 8051TIP3    H245645   0.922   6.560   1.015 -0.8356  0.2641  1.8487
 8052TIP3   OH245646   5.588   2.698  14.843  0.6195 -0.1376  0.4039
 8052TIP3    H145647   5.564   2.607  14.860  1.3842 -0.4158  0.0745
 8052TIP3    H245648   5.511   2.749  14.867 -0.8238 -1.0760 -1.9232
 8053TIP3   OH245649   6.588   1.391  15.730 -0.0075  0.0661 -0.1003
 8053TIP3    H145650   6.554   1.332  15.663  0.9102 -0.2304 -0.3087
 8053TIP3    H245651   6.646   1.451  15.684  0.6844 -0.1827  0.4382
 8054TIP3   OH245652   0.684   1.547  15.423 -0.3096  0.4997 -0.4973
 8054TIP3    H145653   0.645   1.465  15.393  2.5072 -0.7777 -1.0870
 8054TIP3    H245654   0.616   1.590  15.474 -1.9006 -2.2111 -0.1491
 8055TIP3   OH245655   5.997   0.865   1.814  0.3998  0.0799 -0.4406
 8055TIP3    H145656   6.044   0.891   1.894 -0.4710 -0.9800  0.4483
 8055TIP3    H245657   5.986   0.770   1.823 -2.1066  0.3071 -0.4767
 8056TIP3   OH245658   0.034   1.046   4.777 -0.4005 -0.1711  0.1546
 8056TIP3    H145659   0.058   1.029   4.868 -0.7470 -1.3360  0.0439
 8056TIP3    H245660   0.109   1.017   4.726 -0.2422  0.4005  0.0520
 8057TIP3   OH245661   3.578   1.544  12.187  0.2243 -0.3729  0.4948
 8057TIP3    H145662   3.599   1.611  12.252 -0.3980 -1.4474  1.8304
 8057TIP3    H245663   3.496   1.574  12.148  0.1763 -0.1357  0.7768
 8058TIP3   OH245664   4.233   6.273  10.687 -0.2574  0.7416 -0.1470
 8058TIP3    H145665   4.182   6.354  10.678  2.0310  2.1688 -1.3265
 8058TIP3    H245666   4.213   6.224  10.608 -0.0315  1.1782 -0.4827
 8059TIP3   OH245667   6.734   5.940   5.331  0.2089 -0.1594  0.4167
 8059TIP3    H145668   6.687   6.021   5.310  0.0967 -0.4308 -0.4059
 8059TIP3    H245669   6.713   5.881   5.259  1.5329 -0.4035  0.2023
 8060TIP3   OH245670   1.465   5.695   1.833 -0.8906  0.3182 -0.0205
 8060TIP3    H145671   1.549   5.653   1.849 -0.9905 -0.7510 -1.9902
 8060TIP3    H245672   1.453   5.691   1.738 -3.3440  0.0489  0.2129
 8061TIP3   OH245673   6.523   0.029   0.993 -0.0538 -0.1245 -0.1550
 8061TIP3    H145674   6.485   0.113   1.016 -2.1817 -1.2318  0.6503
 8061TIP3    H245675   6.574   0.003   1.070 -0.0712  0.0592 -0.0824
 8062TIP3   OH245676   4.722   5.740  15.882 -0.2876  1.0079  0.0898
 8062TIP3    H145677   4.673   5.732  15.800  1.2230 -0.3262 -0.7357
 8062TIP3    H245678   4.669   5.693  15.946  0.7781 -2.3494 -1.2614
 8063TIP3   OH245679   0.988   0.489   3.743  0.1420  0.1198 -0.7202
 8063TIP3    H145680   1.002   0.406   3.696 -1.3752  0.4094 -1.7176
 8063TIP3    H245681   0.897   0.486   3.771  0.8022  0.2630  1.7006
 8064TIP3   OH245682   1.505   0.278  14.524  0.0061  0.2219 -0.2622
 8064TIP3    H145683   1.507   0.214  14.453  1.1010 -0.4015  0.3074
 8064TIP3    H245684   1.555   0.352  14.491 -1.1353  0.7611 -0.8635
 8065TIP3   OH245685   0.783   4.685  12.352 -0.7373  0.1444  0.0705
 8065TIP3    H145686   0.801   4.613  12.290  1.2020 -1.3396  2.2047
 8065TIP3    H245687   0.737   4.642  12.424  2.2007  0.5024  2.3143
 8066TIP3   OH245688   4.256   4.128  15.402 -0.0709 -0.2796 -0.2068
 8066TIP3    H145689   4.229   4.049  15.449 -0.7070  0.2235  0.3023
 8066TIP3    H245690   4.294   4.096  15.320  0.6821 -1.1542  0.4659
 8067TIP3   OH245691   6.128   3.901  16.219 -0.4246 -0.2142 -0.4710
 8067TIP3    H145692   6.206   3.861  16.256  0.8904  1.5845 -1.1604
 8067TIP3    H245693   6.134   3.993  16.243 -2.4457 -0.0521 -0.3951
 8068TIP3   OH245694   3.190   0.464  11.803  0.8009 -0.2498 -0.4167
 8068TIP3    H145695   3.247   0.389  11.821  1.0244 -0.1141 -0.5551
 8068TIP3    H245696   3.250   0.537  11.789  0.5695  0.2201  0.8871
 8069TIP3   OH245697   6.798   5.558  14.875  0.4450 -0.2532 -0.0409
 8069TIP3    H145698   6.730   5.592  14.933  0.6694 -0.3850  0.3025
 8069TIP3    H245699   6.823   5.475  14.914  0.9960 -0.0781 -0.0099
 8070TIP3   OH245700   6.168   2.217  12.674  0.7412  0.1457  0.1707
 8070TIP3    H145701   6.122   2.298  12.652  0.2056 -0.0878  0.4337
 8070TIP3    H245702   6.202   2.185  12.590 -0.7924 -0.4386 -0.2471
 8071TIP3   OH245703   6.644   1.735  11.984 -0.1173  0.1605 -0.1209
 8071TIP3    H145704   6.627   1.829  11.989 -1.2826 -0.0883  1.4022
 8071TIP3    H245705   6.739   1.728  11.973  0.2972  1.4904  2.0846
 8072TIP3   OH245706   3.854   3.368   2.255 -0.4184 -0.6625 -0.2069
 8072TIP3    H145707   3.822   3.453   2.285 -0.1699  0.9173 -3.8243
 8072TIP3    H245708   3.945   3.384   2.229  0.3149 -2.6167  0.9144
 8073TIP3   OH245709   5.046   5.796  15.078 -0.1197  0.2739 -0.1680
 8073TIP3    H145710   5.129   5.795  15.031  0.4532 -0.6360  0.8373
 8073TIP3    H245711   5.066   5.760  15.164 -1.8614 -1.4783 -0.4367
 8074TIP3   OH245712   1.718   6.072   1.680 -0.5436 -0.0679  0.4647
 8074TIP3    H145713   1.733   6.081   1.774  0.3845  0.3839  0.2854
 8074TIP3    H245714   1.703   6.161   1.649  0.7259 -0.0067 -0.0511
 8075TIP3   OH245715   6.091   1.509  11.648 -0.0638  0.3504 -0.1001
 8075TIP3    H145716   6.124   1.591  11.684 -0.6857 -0.2656  1.9914
 8075TIP3    H245717   6.142   1.441  11.691  0.4021 -0.4086 -1.7569
 8076TIP3   OH245718   6.489   2.555   0.093 -0.1521 -0.4301 -0.2139
 8076TIP3    H145719   6.489   2.490   0.164 -1.5904  1.6674  1.8680
 8076TIP3    H245720   6.396   2.575   0.080  0.2353  0.8332 -1.1452
 8077TIP3   OH245721   3.986   4.910   4.221  0.0298 -0.5970 -0.2581
 8077TIP3    H145722   3.913   4.970   4.239  1.1879  0.5218  1.0592
 8077TIP3    H245723   3.954   4.851   4.154 -2.0036  0.0040  0.1276
 8078TIP3   OH245724   1.463   4.799  14.034  0.1563  0.5347 -0.0493
 8078TIP3    H145725   1.456   4.819  13.940 -2.4438 -3.0389 -0.8280
 8078TIP3    H245726   1.411   4.867  14.076 -1.6417  0.2301 -1.6373
 8079TIP3   OH245727   5.902   6.649   5.011  0.0636  0.1340 -0.1021
 8079TIP3    H145728   5.824   6.656   5.066 -1.0650  0.7282 -1.7075
 8079TIP3    H245729   5.896   6.724   4.951  1.6594 -0.0420 -0.5276
 8080TIP3   OH245730   2.566   2.225   5.543 -0.0476 -0.5903 -0.3217
 8080TIP3    H145731   2.654   2.240   5.510  0.2154  1.3437  1.0761
 8080TIP3    H245732   2.509   2.254   5.471  0.4863  0.0713 -0.4936
 8081TIP3   OH245733   3.900   1.524   1.468 -0.6288  0.0484  0.2380
 8081TIP3    H145734   3.902   1.437   1.429  0.9599 -0.7142  1.9035
 8081TIP3    H245735   3.814   1.530   1.510 -0.7729 -0.6926  0.0530
 8082TIP3   OH245736   0.005   3.366   4.310  0.3805 -0.3844 -0.6828
 8082TIP3    H145737  -0.060   3.300   4.336  0.1297 -0.0025 -0.3355
 8082TIP3    H245738  -0.008   3.438   4.371  2.3133 -0.9936  0.5138
 8083TIP3   OH245739   5.480   5.558  10.611 -0.4931 -0.2310  0.5115
 8083TIP3    H145740   5.424   5.528  10.682  0.4385  1.0449  1.8640
 8083TIP3    H245741   5.440   5.640  10.581 -0.2759 -0.1852  0.3387
 8084TIP3   OH245742   6.472   3.424  16.978 -0.2574 -0.7596  0.3278
 8084TIP3    H145743   6.388   3.465  16.960 -0.1557 -0.0653  1.3937
 8084TIP3    H245744   6.450   3.338  17.014 -0.4891 -0.9971 -0.3660
 8085TIP3   OH245745   6.124   3.613  15.110 -0.7294  0.4218  0.1897
 8085TIP3    H145746   6.135   3.695  15.158  0.2944  0.1341  0.4690
 8085TIP3    H245747   6.084   3.553  15.174  1.4073 -0.2189  1.0286
 8086TIP3   OH245748   1.572   1.499   5.701 -0.6197  0.2828 -0.0446
 8086TIP3    H145749   1.510   1.426   5.701 -0.7254  0.3726  0.0307
 8086TIP3    H245750   1.522   1.573   5.735 -0.2637  0.1754  0.7346
 8087TIP3   OH245751   2.705   0.204   6.191  0.2097  0.7022 -0.2624
 8087TIP3    H145752   2.699   0.226   6.284  2.0191  2.1546 -0.4223
 8087TIP3    H245753   2.794   0.170   6.180 -0.1085  0.1905 -1.4059
 8088TIP3   OH245754   5.851   5.901  11.923 -0.2671  0.5086 -0.3229
 8088TIP3    H145755   5.813   5.873  12.006 -0.2989 -0.2723 -0.5851
 8088TIP3    H245756   5.937   5.935  11.946  0.8697 -2.1740 -0.1919
 8089TIP3   OH245757   3.877   0.741   4.817  0.2621  0.1973 -0.0633
 8089TIP3    H145758   3.922   0.824   4.802  1.2242 -0.0606  1.2524
 8089TIP3    H245759   3.871   0.701   4.730  0.6045  1.2317 -0.5758
 8090TIP3   OH245760   2.628   3.618  11.762 -0.2421 -0.2666 -0.2076
 8090TIP3    H145761   2.611   3.692  11.820  0.2460  0.8982 -1.5092
 8090TIP3    H245762   2.607   3.650  11.675 -0.6372 -1.8787 -0.7471
 8091TIP3   OH245763   0.080   3.332  17.290 -0.2799 -0.3424  0.0466
 8091TIP3    H145764   0.026   3.389  17.346  0.8297  0.1272  0.6728
 8091TIP3    H245765   0.145   3.296  17.350  0.0505 -0.9660 -0.6819
 8092TIP3   OH245766   1.185   3.847  11.243  0.2973 -0.3955  0.5546
 8092TIP3    H145767   1.111   3.908  11.246  0.5357 -0.0353 -0.4171
 8092TIP3    H245768   1.150   3.765  11.277 -1.0007 -0.6646 -1.2539
 8093TIP3   OH245769   0.153   4.391   0.273 -0.5118  0.0168  0.1589
 8093TIP3    H145770   0.155   4.472   0.325 -0.2343 -0.8740  1.5760
 8093TIP3    H245771   0.063   4.360   0.281 -0.3640 -0.3370  0.4524
 8094TIP3   OH245772   3.258   6.115   0.113 -0.0015 -0.3998  0.1465
 8094TIP3    H145773   3.269   6.058   0.037 -1.0130 -1.0472  0.4608
 8094TIP3    H245774   3.199   6.067   0.171 -0.8537  0.9368  0.4472
 8095TIP3   OH245775   2.306   6.060  14.055 -0.2172  0.3812  0.2221
 8095TIP3    H145776   2.219   6.054  14.016  1.0268 -0.9541 -2.6084
 8095TIP3    H245777   2.296   6.021  14.142 -2.0769 -1.4756 -0.7480
 8096TIP3   OH245778   3.582   6.726   2.507 -0.0506  0.1563 -0.0082
 8096TIP3    H145779   3.663   6.677   2.491 -0.8425 -0.6250 -1.8083
 8096TIP3    H245780   3.585   6.747   2.600  0.6573 -2.7277  0.7007
 8097TIP3   OH245781   6.294   6.221  14.916 -0.5278 -0.1119  0.6323
 8097TIP3    H145782   6.251   6.136  14.914 -0.6218 -0.1290  2.2372
 8097TIP3    H245783   6.269   6.259  15.001  0.3467  1.0738  0.3902
 8098TIP3   OH245784   2.140   2.865   0.849  0.2965  0.5526  0.5875
 8098TIP3    H145785   2.226   2.837   0.880  1.6874  2.8725 -0.8326
 8098TIP3    H245786   2.133   2.828   0.761 -0.6191 -0.4528  1.0768
 8099TIP3   OH245787   2.944   5.473  15.530  0.5675 -0.2959  0.2574
 8099TIP3    H145788   2.897   5.390  15.529 -1.3921  0.7660  0.0134
 8099TIP3    H245789   2.957   5.492  15.623  1.0295 -0.8647  0.3134
 8100TIP3   OH245790   0.805   2.487   0.391 -0.5125  0.2414 -0.0330
 8100TIP3    H145791   0.830   2.485   0.483 -2.4934 -3.8421  0.6783
 8100TIP3    H245792   0.731   2.547   0.387 -0.5506  0.2900  1.1056
 8101TIP3   OH245793   6.151   0.421   5.848 -0.1163 -0.6407  1.2144
 8101TIP3    H145794   6.215   0.382   5.908 -0.1119 -1.2834  0.8100
 8101TIP3    H245795   6.066   0.405   5.889 -0.0182  0.5029  1.9139
 8102TIP3   OH245796   4.136   6.662  15.773 -0.0288  0.3718 -0.2241
 8102TIP3    H145797   4.073   6.706  15.830  0.7390  1.8165 -0.4450
 8102TIP3    H245798   4.211   6.721  15.770  2.3704 -2.3231  1.8774
 8103TIP3   OH245799   3.675   1.876  14.103 -0.4438  0.1963  0.3611
 8103TIP3    H145800   3.706   1.925  14.027  1.4656  0.4554  1.2527
 8103TIP3    H245801   3.725   1.910  14.176 -2.1418 -0.1544  1.7435
 8104TIP3   OH245802   2.191   6.513   0.193 -0.1235  0.3626 -0.3827
 8104TIP3    H145803   2.154   6.526   0.280  1.7300  0.5325  0.4217
 8104TIP3    H245804   2.261   6.578   0.186  0.0605  0.0516 -1.8333
 8105TIP3   OH245805   3.132   0.349  16.487  0.2312 -0.4953  0.1661
 8105TIP3    H145806   3.224   0.337  16.510  0.1397 -1.1679  0.2038
 8105TIP3    H245807   3.084   0.327  16.566 -0.0252 -1.6667 -0.2855
 8106TIP3   OH245808   5.272   3.810   1.950 -0.0986  0.0522  0.1565
 8106TIP3    H145809   5.181   3.781   1.940 -0.3975  1.2344 -0.8143
 8106TIP3    H245810   5.323   3.729   1.948 -1.0653 -0.5687 -0.2628
 8107TIP3   OH245811   5.465   4.920   2.529 -0.4543 -0.1702 -0.2944
 8107TIP3    H145812   5.481   4.851   2.465  0.6497 -1.0553  0.9031
 8107TIP3    H245813   5.382   4.897   2.570 -0.0935 -0.7869  0.0948
 8108TIP3   OH245814   5.329   0.911   1.313  0.1701  0.2237  0.2273
 8108TIP3    H145815   5.256   0.970   1.295 -0.0615  0.5346  2.0305
 8108TIP3    H245816   5.386   0.960   1.372  3.5234  1.2070 -3.3398
 8109TIP3   OH245817   5.802   6.548  15.893  0.1988  0.3796  0.0314
 8109TIP3    H145818   5.893   6.524  15.908 -0.0686 -1.1521 -0.5929
 8109TIP3    H245819   5.752   6.490  15.951 -0.3661  1.8007  1.0185
 8110TIP3   OH245820   0.077   0.173  10.593 -0.8617 -0.2322 -0.7571
 8110TIP3    H145821   0.081   0.184  10.498 -0.0219  0.5876 -0.6391
 8110TIP3    H245822   0.165   0.147  10.618 -0.8066  0.5506 -0.0952
 8111TIP3   OH245823   4.727   5.548  16.982 -0.5419  0.3186  0.3592
 8111TIP3    H145824   4.813   5.559  16.942  0.3568  1.1826  2.3636
 8111TIP3    H245825   4.682   5.485  16.926  1.0337  0.5709 -1.2782
 8112TIP3   OH245826   0.393   3.298  11.461 -0.1425 -0.3594 -0.1114
 8112TIP3    H145827   0.372   3.382  11.502  1.5894  0.3572 -0.6161
 8112TIP3    H245828   0.438   3.322  11.380  3.1468 -1.7436  1.1760
 8113TIP3   OH245829   1.042   3.600  16.008  0.1123  0.1537 -0.0248
 8113TIP3    H145830   1.014   3.667  16.070  0.3651 -0.2621  0.5539
 8113TIP3    H245831   1.113   3.640  15.958  0.9004  0.0126  0.9609
 8114TIP3   OH245832   1.719   5.198   2.935 -0.2337  0.4898  0.1733
 8114TIP3    H145833   1.631   5.167   2.956  0.1851  0.9326  3.0633
 8114TIP3    H245834   1.709   5.292   2.926 -0.3283  0.3495 -1.4663
 8115TIP3   OH245835   2.331   0.490  13.145 -0.9003  0.0817 -0.7307
 8115TIP3    H145836   2.381   0.535  13.214 -1.0088  0.7839 -1.1003
 8115TIP3    H245837   2.286   0.419  13.191  1.5174 -1.4885 -0.6056
 8116TIP3   OH245838   2.976   1.916   5.163  0.2605  0.7519  0.3895
 8116TIP3    H145839   3.043   1.945   5.225  0.0722  0.3843  0.7738
 8116TIP3    H245840   2.962   1.991   5.106  1.9449  0.4227 -0.5317
 8117TIP3   OH245841   2.402   1.556   6.339 -0.7540  0.3543  0.1419
 8117TIP3    H145842   2.428   1.464   6.336 -3.7099 -0.5647 -0.2529
 8117TIP3    H245843   2.437   1.588   6.423  0.2834 -1.1041  0.3042
 8118TIP3   OH245844   5.176   5.670  11.938  0.1175 -0.0399  0.6045
 8118TIP3    H145845   5.143   5.731  12.004 -0.5691 -0.7775  0.9673
 8118TIP3    H245846   5.271   5.681  11.941  0.0795  0.1639  1.5061
 8119TIP3   OH245847   0.717   2.689  15.803  0.0461  0.3982 -0.0867
 8119TIP3    H145848   0.737   2.599  15.780 -0.8445  0.5348 -1.5146
 8119TIP3    H245849   0.644   2.713  15.746 -0.4729  1.6690  1.0474
 8120TIP3   OH245850   6.325   5.927  14.557  0.3018  0.5332 -0.5094
 8120TIP3    H145851   6.277   5.992  14.506  0.2137  1.1168  0.2876
 8120TIP3    H245852   6.412   5.966  14.569  0.0988  0.7331  0.3802
 8121TIP3   OH245853   2.667   3.135  14.321 -0.8392 -0.1972  1.1067
 8121TIP3    H145854   2.732   3.146  14.252 -0.7561  1.0992  1.3699
 8121TIP3    H245855   2.711   3.164  14.401 -1.9358  1.4375  1.1729
 8122TIP3   OH245856   5.206   1.812  17.175 -0.0813 -0.3587 -0.5605
 8122TIP3    H145857   5.151   1.765  17.237  2.0423 -1.7029  0.4503
 8122TIP3    H245858   5.186   1.773  17.090  0.4172 -1.9682  0.0265
 8123TIP3   OH245859   2.564   5.790  12.875  0.0417  0.1744 -0.0925
 8123TIP3    H145860   2.580   5.880  12.902  2.8683 -1.0976  3.0461
 8123TIP3    H245861   2.468   5.782  12.874 -0.2785  3.0748 -0.2864
 8124TIP3   OH245862   6.608   1.876  10.946 -0.2946  0.4582 -0.0776
 8124TIP3    H145863   6.639   1.786  10.938 -2.4246 -0.4048  0.6634
 8124TIP3    H245864   6.620   1.897  11.039 -1.9689  0.0380  0.2684
 8125TIP3   OH245865   6.062   1.160   0.325 -0.4156  0.3474  0.3175
 8125TIP3    H145866   6.133   1.198   0.376 -0.7503 -1.0207  1.9191
 8125TIP3    H245867   5.982   1.192   0.367 -0.7116 -2.2994  2.0169
 8126TIP3   OH245868   1.092   0.828   0.973 -0.2020  0.1789  0.7693
 8126TIP3    H145869   1.126   0.784   1.050  1.8118 -1.1406 -0.7608
 8126TIP3    H245870   1.166   0.879   0.939 -0.6423 -0.2255 -0.9166
 8127TIP3   OH245871   6.635   1.911   0.538 -0.1876 -0.0129  0.1504
 8127TIP3    H145872   6.565   1.971   0.562  0.8250  3.6526 -4.5362
 8127TIP3    H245873   6.591   1.827   0.526 -3.5027  1.6436 -0.6436
 8128TIP3   OH245874   0.953   4.512  12.174 -0.2642  0.6241 -0.1816
 8128TIP3    H145875   1.022   4.496  12.238 -1.8449  0.8874  1.6711
 8128TIP3    H245876   0.954   4.435  12.117  0.7973  0.1025  0.5166
 8129TIP3   OH245877   4.948   3.482   5.931  0.0846 -0.1212  0.3406
 8129TIP3    H145878   5.018   3.548   5.933 -0.0862  0.0671  0.2303
 8129TIP3    H245879   4.976   3.416   5.993 -0.8983  1.2362  2.3213
 8130TIP3   OH245880   6.604   1.331  12.324  0.0547  0.6342  0.1153
 8130TIP3    H145881   6.602   1.236  12.328 -0.1550  0.6469  0.4080
 8130TIP3    H245882   6.612   1.352  12.231  2.1048  0.3176  0.1913
 8131TIP3   OH245883   2.360   0.998  16.963  0.5484 -0.0601  0.3194
 8131TIP3    H145884   2.286   0.967  16.911 -0.3658  1.9107  0.3337
 8131TIP3    H245885   2.379   1.086  16.928  1.5540  0.2978  1.6618
 8132TIP3   OH245886   5.210   2.460  13.910  0.6905  0.0825  0.4964
 8132TIP3    H145887   5.194   2.371  13.942  0.8979 -0.8633 -1.8275
 8132TIP3    H245888   5.123   2.500  13.906  0.4405 -0.4463  0.4644
 8133TIP3   OH245889   4.500   5.905   4.651  0.4476 -0.0581  0.6439
 8133TIP3    H145890   4.572   5.897   4.715  1.2406  1.0230 -0.0812
 8133TIP3    H245891   4.453   5.984   4.677 -1.1249 -1.2656  1.6908
 8134TIP3   OH245892   2.942   4.222  12.223 -0.4608 -0.5237 -0.0039
 8134TIP3    H145893   2.953   4.315  12.243  1.8709 -0.3624 -1.6542
 8134TIP3    H245894   2.916   4.183  12.306  1.7491  1.1124  1.5924
 8135TIP3   OH245895   1.744   2.400  13.798  0.3544  0.4711  0.3060
 8135TIP3    H145896   1.687   2.408  13.722 -1.0280 -0.0569  1.2448
 8135TIP3    H245897   1.804   2.474  13.791 -1.9842  2.5409  0.5296
 8136TIP3   OH245898   1.649   2.941   5.464 -0.0296  0.6798 -0.0351
 8136TIP3    H145899   1.565   2.897   5.479 -0.4781  1.9250  1.3066
 8136TIP3    H245900   1.625   3.024   5.422  0.3383  1.7318  1.7184
 8137TIP3   OH245901   0.987   3.128  15.047  0.1749 -0.1510 -0.1298
 8137TIP3    H145902   1.046   3.092  15.113 -0.3996 -1.9474 -0.5275
 8137TIP3    H245903   0.962   3.052  14.994 -1.0883  0.8727 -1.0573
 8138TIP3   OH245904   1.661   1.869  15.839  0.1382  0.1784 -0.3270
 8138TIP3    H145905   1.623   1.941  15.889  2.3261  1.2470 -0.0922
 8138TIP3    H245906   1.695   1.809  15.906 -1.9320 -1.3121 -0.5096
 8139TIP3   OH245907   6.090   1.852  11.022 -0.2350 -0.0841 -0.4051
 8139TIP3    H145908   6.126   1.776  11.067  0.2603  1.4001  1.9014
 8139TIP3    H245909   5.995   1.836  11.021 -0.1841 -0.5320  0.5044
 8140TIP3   OH245910   3.631   5.913  12.226  0.0186  0.5462 -0.4551
 8140TIP3    H145911   3.705   5.913  12.288 -0.5927 -2.9867  0.5434
 8140TIP3    H245912   3.664   5.959  12.149  3.1544 -0.4310  0.1445
 8141TIP3   OH245913   3.760   5.765  17.082 -0.3551  0.1937 -0.0309
 8141TIP3    H145914   3.831   5.774  17.145  0.2796 -4.0472  0.1744
 8141TIP3    H245915   3.681   5.759  17.135 -0.5581  2.1406 -0.0747
 8142TIP3   OH245916   2.369   3.433  15.810  0.3281 -0.2784 -0.6740
 8142TIP3    H145917   2.284   3.476  15.799 -0.2146 -1.5871 -1.9870
 8142TIP3    H245918   2.432   3.497  15.777  0.3997  2.3023  3.7664
 8143TIP3   OH245919   1.713   1.098   1.076  0.0283 -0.2371 -0.2155
 8143TIP3    H145920   1.655   1.048   1.019  0.5344  0.1375 -1.0805
 8143TIP3    H245921   1.748   1.167   1.020  1.2201 -0.3781  0.3199
 8144TIP3   OH245922   2.869   3.185   4.718  0.1584  0.4946 -0.7472
 8144TIP3    H145923   2.826   3.123   4.659  1.2898 -2.1261  0.9734
 8144TIP3    H245924   2.946   3.216   4.669  0.4797 -0.7717 -1.0739
 8145TIP3   OH245925   3.070   0.375   1.672  0.1284  0.3463 -0.1724
 8145TIP3    H145926   3.029   0.392   1.587 -1.7180 -0.0940  0.5714
 8145TIP3    H245927   3.005   0.324   1.719  1.9674 -1.2668  0.7631
 8146TIP3   OH245928   3.344   6.085   3.448  0.2970 -0.1608 -0.0638
 8146TIP3    H145929   3.401   6.134   3.508  0.2660  0.3028 -0.4016
 8146TIP3    H245930   3.332   6.145   3.374 -2.5987  0.8069  1.0308
 8147TIP3   OH245931   6.620   1.520   1.998 -0.8882  0.0380  0.4302
 8147TIP3    H145932   6.710   1.497   1.978  0.0379  2.3826  1.5024
 8147TIP3    H245933   6.573   1.511   1.915  0.0318 -2.2504  0.0887
 8148TIP3   OH245934   5.847   4.714  12.722  0.5062 -0.4461  0.0175
 8148TIP3    H145935   5.843   4.673  12.809 -0.8997  1.0029  0.6877
 8148TIP3    H245936   5.932   4.756  12.720  0.9551 -1.3104  0.2943
 8149TIP3   OH245937   2.247   5.907   1.739 -0.6674 -0.1379 -0.5563
 8149TIP3    H145938   2.283   5.862   1.662 -1.8490 -1.1225 -0.5669
 8149TIP3    H245939   2.288   5.863   1.814 -1.1125 -0.6200 -0.5885
 8150TIP3   OH245940   5.096   2.552   3.114 -0.0586 -0.3166 -0.1526
 8150TIP3    H145941   5.076   2.577   3.204 -1.2189 -1.8995  0.0532
 8150TIP3    H245942   5.106   2.636   3.068 -2.9887  0.6116  0.6889
 8151TIP3   OH245943   1.752   3.830  13.959 -0.2581 -0.0771 -0.2146
 8151TIP3    H145944   1.846   3.847  13.955 -0.0664 -0.4024  1.7340
 8151TIP3    H245945   1.718   3.856  13.873  1.7281 -0.7477 -1.2540
 8152TIP3   OH245946   2.457   3.145   5.232 -0.2806  0.1114 -0.0099
 8152TIP3    H145947   2.403   3.220   5.258 -1.9865 -1.0946  0.0698
 8152TIP3    H245948   2.547   3.176   5.243 -0.9151  2.2847 -0.3723
 8153TIP3   OH245949   4.885   1.351  10.805 -0.2733 -0.0413  0.0225
 8153TIP3    H145950   4.935   1.353  10.724 -1.1838  2.0911 -0.5648
 8153TIP3    H245951   4.948   1.374  10.873 -0.2974  2.3796 -0.6743
 8154TIP3   OH245952   0.978   6.684  16.090  0.7628  0.3210  0.1823
 8154TIP3    H145953   1.061   6.710  16.130  0.1907 -0.4561  1.9731
 8154TIP3    H245954   0.998   6.674  15.997  2.2346  1.8738  0.2915
 8155TIP3   OH245955   1.999   2.805   3.465  0.4913 -0.8065 -0.2930
 8155TIP3    H145956   2.083   2.799   3.420  0.2762  1.1352 -1.1028
 8155TIP3    H245957   2.015   2.771   3.553  1.5726 -2.3650 -1.0478
 8156TIP3   OH245958   3.195   2.270   2.561  0.2731  0.1387  0.0364
 8156TIP3    H145959   3.226   2.297   2.475  0.6825 -2.0341 -0.5696
 8156TIP3    H245960   3.156   2.349   2.599 -1.2673  0.8194 -2.7130
 8157TIP3   OH245961   5.821   1.882  15.484 -0.0041  0.5758 -0.5556
 8157TIP3    H145962   5.861   1.935  15.553 -1.7232  0.1021  0.8684
 8157TIP3    H245963   5.893   1.829  15.450  0.6905 -0.0664  1.7324
 8158TIP3   OH245964   6.030   6.365   4.435  0.6549 -0.5081 -0.9513
 8158TIP3    H145965   5.997   6.356   4.525 -0.8619 -2.3913 -1.6309
 8158TIP3    H245966   6.048   6.276   4.407 -0.3620 -0.1005 -3.0454
 8159TIP3   OH245967   3.083   0.376   0.275  0.4595  0.6333  0.6347
 8159TIP3    H145968   3.005   0.432   0.280  0.0785  0.1876 -0.1132
 8159TIP3    H245969   3.156   0.437   0.282  0.0931  0.8942  3.1060
 8160TIP3   OH245970   1.831   5.047  15.091 -0.6972 -0.6320  0.0572
 8160TIP3    H145971   1.787   5.126  15.058  0.4578 -1.0352 -2.6437
 8160TIP3    H245972   1.912   5.080  15.131 -0.9336 -0.3550  0.3220
 8161TIP3   OH245973   1.784   1.461  13.069 -0.1698 -0.6054  1.0192
 8161TIP3    H145974   1.701   1.479  13.026  0.7104  0.0850 -0.4911
 8161TIP3    H245975   1.785   1.520  13.145 -0.8550 -0.2904  0.7921
 8162TIP3   OH245976   4.101   3.887   4.760  0.5512 -0.2899  0.4729
 8162TIP3    H145977   4.110   3.813   4.699 -1.5063  0.5875 -0.9966
 8162TIP3    H245978   4.153   3.957   4.720 -0.9189  0.3336 -0.4363
 8163TIP3   OH245979   0.405   3.904   5.222 -0.3762  0.3954  0.4290
 8163TIP3    H145980   0.432   3.832   5.165  1.7940 -0.1782  2.0379
 8163TIP3    H245981   0.386   3.863   5.306 -1.2035  1.4753  0.7941
 8164TIP3   OH245982   1.532   3.268   1.720  0.0984  0.1659  0.6056
 8164TIP3    H145983   1.448   3.267   1.766  0.2366 -0.3666  0.8540
 8164TIP3    H245984   1.596   3.238   1.785  0.5378  0.8671  0.5129
 8165TIP3   OH245985   3.253   6.691   4.814  0.5176 -0.1150 -0.0466
 8165TIP3    H145986   3.314   6.753   4.853 -0.0590 -2.1027  4.6154
 8165TIP3    H245987   3.166   6.728   4.834  0.1971 -0.9982  0.2248
 8166TIP3   OH245988   0.502   3.579   4.210  0.0003  0.4924 -0.4649
 8166TIP3    H145989   0.534   3.651   4.156  1.4570  1.4803  1.5672
 8166TIP3    H245990   0.409   3.599   4.224  0.4554  2.2288  0.3640
 8167TIP3   OH245991   1.403   4.844   6.245  0.3882  0.6709  0.1265
 8167TIP3    H145992   1.326   4.792   6.269  0.5466 -0.1106 -1.0090
 8167TIP3    H245993   1.441   4.870   6.329 -1.4711  1.6267  0.7185
 8168TIP3   OH245994   4.469   4.075   3.852  0.4186 -0.4737  0.0069
 8168TIP3    H145995   4.534   4.145   3.858  1.5722 -1.5187  0.0634
 8168TIP3    H245996   4.469   4.035   3.939  0.1118 -0.8411 -0.1607
 8169TIP3   OH245997   2.131   4.647   0.490  0.1874  0.7570  1.0465
 8169TIP3    H145998   2.043   4.647   0.529 -1.2545  0.4968 -1.8633
 8169TIP3    H245999   2.114   4.639   0.396  3.3689  0.9555  0.3647
 8170TIP3   OH246000   2.128   3.685  17.087 -0.3204 -0.7255 -0.5830
 8170TIP3    H146001   2.135   3.780  17.100 -1.0401 -0.6972 -0.3100
 8170TIP3    H246002   2.213   3.651  17.115 -0.3698 -0.2407  0.2073
 8171TIP3   OH246003   2.467   4.757   6.107 -0.3450 -0.0394 -0.2345
 8171TIP3    H146004   2.537   4.788   6.164 -0.0637 -2.3962  0.7956
 8171TIP3    H246005   2.387   4.796   6.143  0.0382 -0.1152  0.7098
 8172TIP3   OH246006   5.805   6.579   1.811  0.3501 -0.3522  0.5463
 8172TIP3    H146007   5.857   6.593   1.890  2.0024  1.1476 -0.7253
 8172TIP3    H246008   5.718   6.610   1.834  1.3516  2.2672  1.1610
 8173TIP3   OH246009   5.537   5.681   3.384  0.2202 -0.4471  0.6908
 8173TIP3    H146010   5.547   5.762   3.336 -1.9458 -0.6788 -0.2837
 8173TIP3    H246011   5.555   5.704   3.475 -1.5588  1.4811  0.6353
 8174TIP3   OH246012   6.135   2.352  10.590  0.2547  0.3270  0.0345
 8174TIP3    H146013   6.086   2.342  10.509 -2.1848  0.5933  1.3856
 8174TIP3    H246014   6.161   2.444  10.592 -0.5723  0.5675  0.0134
 8175TIP3   OH246015   1.717   6.134   4.249  0.4231 -0.2879 -0.0695
 8175TIP3    H146016   1.704   6.098   4.336  3.5369  0.1644  0.6925
 8175TIP3    H246017   1.743   6.225   4.264 -1.5242  0.6056 -1.6554
 8176TIP3   OH246018   0.925   0.095  11.542  0.6600  0.3949  0.1902
 8176TIP3    H146019   0.981   0.022  11.571  0.5242 -0.3374 -1.2776
 8176TIP3    H246020   0.972   0.132  11.467 -0.0639  0.7692 -0.0855
 8177TIP3   OH246021   3.520   0.198   6.295  0.4908  0.1288 -0.1071
 8177TIP3    H146022   3.541   0.291   6.288 -0.1714  0.2362 -0.9742
 8177TIP3    H246023   3.528   0.165   6.205 -0.8941 -0.2640 -0.1114
 8178TIP3   OH246024   4.066   3.031  13.480  0.5025  0.0727  0.0572
 8178TIP3    H146025   3.977   3.060  13.457  1.2021  1.8063 -0.6286
 8178TIP3    H246026   4.080   3.067  13.568  0.6951  0.2259 -0.0354
 8179TIP3   OH246027   1.982   5.350  13.986 -0.0739 -0.1265 -0.0264
 8179TIP3    H146028   1.950   5.440  13.986  0.5862  0.1206 -0.8142
 8179TIP3    H246029   1.924   5.303  13.927  0.8669  0.2847 -1.3256
 8180TIP3   OH246030   2.683   4.260   3.727  0.1148 -0.0111 -0.3589
 8180TIP3    H146031   2.730   4.207   3.662  2.3780  0.4303  0.8186
 8180TIP3    H246032   2.711   4.224   3.811 -2.9576 -0.7572  0.4627
 8181TIP3   OH246033   0.273   1.237  15.380 -0.0849  0.3096  0.0365
 8181TIP3    H146034   0.231   1.188  15.309  0.3845  1.7720 -1.2978
 8181TIP3    H246035   0.222   1.214  15.458 -1.6381 -0.1101 -1.0527
 8182TIP3   OH246036   3.197   3.006   5.343  0.0563 -0.3185  0.3400
 8182TIP3    H146037   3.153   3.034   5.263  2.4465  0.0553 -0.9246
 8182TIP3    H246038   3.181   2.911   5.347  1.8307 -0.8168 -1.9537
 8183TIP3   OH246039   5.839   3.068   4.852 -0.1465  0.3869 -0.1066
 8183TIP3    H146040   5.747   3.063   4.878 -0.0159 -0.5851  0.1968
 8183TIP3    H246041   5.863   2.977   4.833  0.8467  0.5980  0.1435
 8184TIP3   OH246042   1.599   4.293   1.907  0.0551 -0.2611  0.2208
 8184TIP3    H146043   1.668   4.261   1.848  0.1446 -0.8374  0.6279
 8184TIP3    H246044   1.597   4.387   1.892  1.6546 -0.0799  0.9654
 8185TIP3   OH246045   2.201   1.797  16.836  0.3316  0.8019 -0.0235
 8185TIP3    H146046   2.178   1.875  16.786 -1.0555  0.1320 -0.4806
 8185TIP3    H246047   2.244   1.831  16.914  0.4296  1.9800 -0.5602
 8186TIP3   OH246048   1.540   1.851  15.599  0.0731  0.2626 -0.3026
 8186TIP3    H146049   1.594   1.883  15.526  1.5597 -0.0501  0.6233
 8186TIP3    H246050   1.596   1.860  15.676 -1.5477  0.7899  0.8652
 8187TIP3   OH246051   2.398   6.402   6.514  0.2846 -0.4080  0.4097
 8187TIP3    H146052   2.440   6.328   6.470 -0.7585 -1.6818  1.5006
 8187TIP3    H246053   2.307   6.398   6.488  0.3894  1.1356 -0.3233
 8188TIP3   OH246054   6.750   5.395  10.792  0.6438 -0.2504 -0.0940
 8188TIP3    H146055   6.758   5.299  10.794 -1.1631 -0.4344  1.0914
 8188TIP3    H246056   6.666   5.411  10.749  0.9762  0.8165 -0.3743
 8189TIP3   OH246057   4.298   1.158   3.113 -0.2706  0.1824  0.3785
 8189TIP3    H146058   4.380   1.178   3.069  0.1149  1.2265  1.4981
 8189TIP3    H246059   4.294   1.063   3.116  1.0989  0.1205  0.6438
 8190TIP3   OH246060   0.714   6.222   6.597  0.1896  0.5797  0.1743
 8190TIP3    H146061   0.725   6.178   6.681 -0.9286  3.1992  1.8231
 8190TIP3    H246062   0.794   6.273   6.586 -0.2820  1.4063  0.4528
 8191TIP3   OH246063   2.563   4.458  10.466 -0.4872  0.0538  0.6997
 8191TIP3    H146064   2.591   4.366  10.457 -2.7737 -0.6081 -0.4016
 8191TIP3    H246065   2.637   4.508  10.432  0.3452 -1.4507  0.1758
 8192TIP3   OH246066   1.322   2.452   3.177  0.2880 -0.5756 -0.8290
 8192TIP3    H146067   1.380   2.433   3.104  0.8143 -0.8806 -0.3352
 8192TIP3    H246068   1.373   2.509   3.234  0.4325 -1.5351  0.0328
 8193TIP3   OH246069   1.867   1.824  10.551 -0.5345  0.2622 -0.3024
 8193TIP3    H146070   1.812   1.805  10.627  0.0772 -0.7553 -0.0988
 8193TIP3    H246071   1.834   1.766  10.482 -0.2944  0.2974 -0.4474
 8194TIP3   OH246072   1.830   0.170  15.764 -0.7466 -0.0921 -0.5916
 8194TIP3    H146073   1.856   0.080  15.779 -2.1809 -0.3868  0.2794
 8194TIP3    H246074   1.846   0.185  15.670 -0.6455 -1.2867 -0.7733
 8195TIP3   OH246075   0.776   6.782   5.848  0.3598  0.0727  0.6752
 8195TIP3    H146076   0.795   6.828   5.766 -0.7309 -1.1147 -0.2755
 8195TIP3    H246077   0.803   6.844   5.916 -0.2887  1.7942 -0.5595
 8196TIP3   OH246078   4.440   3.607  16.319 -0.3361 -0.1055  0.2604
 8196TIP3    H146079   4.427   3.520  16.283 -1.8767  0.3421 -0.3584
 8196TIP3    H246080   4.496   3.594  16.395  0.3089 -1.4901 -0.4194
 8197TIP3   OH246081   1.332   1.267  13.560 -0.4341  0.4959 -0.0255
 8197TIP3    H146082   1.318   1.284  13.467 -0.3113 -0.2795 -0.1912
 8197TIP3    H246083   1.268   1.199  13.582  0.5363 -0.3891  0.0960
 8198TIP3   OH246084   5.699   2.221   4.364  0.4054  0.0389  0.4255
 8198TIP3    H146085   5.765   2.221   4.295  0.6286 -0.4778  0.6331
 8198TIP3    H246086   5.732   2.158   4.429 -1.2209 -1.6938 -0.3582
 8199TIP3   OH246087   0.743   5.421   4.770  0.1165 -0.2686 -0.1475
 8199TIP3    H146088   0.711   5.331   4.772  0.4897 -0.4182 -0.8412
 8199TIP3    H246089   0.772   5.435   4.680 -0.5734  0.7667 -0.2375
 8200TIP3   OH246090   0.910   3.840   0.486 -0.2253  0.5153 -0.1989
 8200TIP3    H146091   0.959   3.898   0.428 -1.1387  1.8166  0.2909
 8200TIP3    H246092   0.892   3.893   0.564 -1.5588 -0.2402  0.0395
 8201TIP3   OH246093   5.306   3.450  14.364  0.4463  0.7946 -0.1705
 8201TIP3    H146094   5.251   3.375  14.338  1.5500  0.1610 -0.7555
 8201TIP3    H246095   5.353   3.473  14.284  0.1831  2.0789  0.0342
 8202TIP3   OH246096   1.296   0.696   5.394 -0.2737  0.4130 -0.1016
 8202TIP3    H146097   1.287   0.788   5.418 -0.5056  0.3630  0.0006
 8202TIP3    H246098   1.343   0.657   5.468  1.3711  0.7981 -0.9025
 8203TIP3   OH246099   4.720   0.186  15.818  0.2406 -0.5649  0.0728
 8203TIP3    H146100   4.737   0.121  15.885  3.1498  1.4495  1.5419
 8203TIP3    H246101   4.646   0.237  15.851 -0.2391 -1.3945  0.2873
 8204TIP3   OH246102   1.266   2.695  15.919  0.2444  0.4913 -0.2475
 8204TIP3    H146103   1.227   2.657  15.998  0.2837  1.0551  0.0471
 8204TIP3    H246104   1.219   2.654  15.847  1.3995 -1.3620 -0.0003
 8205TIP3   OH246105   5.887   5.743  11.687 -0.1489 -0.1186  0.3520
 8205TIP3    H146106   5.948   5.807  11.651  0.4240 -0.7726  0.1212
 8205TIP3    H246107   5.838   5.790  11.754 -1.2281  1.1323 -1.2556
 8206TIP3   OH246108   6.699   0.871  16.746  0.4708  0.0122 -0.1679
 8206TIP3    H146109   6.674   0.926  16.819  0.1431 -2.1753  1.4815
 8206TIP3    H246110   6.782   0.907  16.715  0.1905  1.4898  0.7077
 8207TIP3   OH246111   4.401   5.347   2.769 -0.2205 -0.5003 -0.7239
 8207TIP3    H146112   4.440   5.432   2.790 -2.9821  1.4442 -2.7634
 8207TIP3    H246113   4.415   5.294   2.848  0.5903  2.2083  1.1012
 8208TIP3   OH246114   1.830   0.720   0.443 -0.1298  0.1453 -0.2958
 8208TIP3    H146115   1.863   0.732   0.532  0.7692 -1.9747 -0.2814
 8208TIP3    H246116   1.762   0.653   0.452 -2.3524  2.2099 -0.8020
 8209TIP3   OH246117   6.389   1.849  12.758  0.4726 -0.4730  0.2455
 8209TIP3    H146118   6.418   1.765  12.795  1.6315 -0.4574 -0.5787
 8209TIP3    H246119   6.385   1.833  12.664  0.8182  0.4402  0.0717
 8210TIP3   OH246120   2.628   5.361   6.443  0.0001 -1.0342 -0.5465
 8210TIP3    H146121   2.538   5.392   6.436 -0.8927 -3.6486 -2.1766
 8210TIP3    H246122   2.650   5.372   6.536 -1.5090  0.7698 -0.3436
 8211TIP3   OH246123   4.593   3.712   5.553  0.4053 -0.4773 -0.0179
 8211TIP3    H146124   4.549   3.668   5.626  1.8929 -0.4870  0.9154
 8211TIP3    H246125   4.624   3.641   5.497  2.8643 -0.7406  1.5230
 8212TIP3   OH246126   1.647   1.393   1.922 -0.2170 -0.0047  0.6804
 8212TIP3    H146127   1.570   1.362   1.874  0.9391 -2.2174  0.0822
 8212TIP3    H246128   1.664   1.325   1.987  1.8886 -0.2170 -0.0047
 8213TIP3   OH246129   3.051   2.727   0.808  0.1563 -0.5094  0.6024
 8213TIP3    H146130   3.017   2.736   0.719  0.0197 -2.1664  0.4683
 8213TIP3    H246131   3.087   2.814   0.828 -1.5140  0.4639 -0.3276
 8214TIP3   OH246132   0.694   3.842   1.371 -0.3641 -0.0826  0.1150
 8214TIP3    H146133   0.662   3.808   1.455 -0.5813  0.1939  0.1457
 8214TIP3    H246134   0.724   3.930   1.391  1.5825 -0.7628  0.3443
 8215TIP3   OH246135   4.779   0.734  11.307  0.0225 -0.4921  0.2876
 8215TIP3    H146136   4.727   0.808  11.275  0.8827 -0.2574 -0.6177
 8215TIP3    H246137   4.715   0.668  11.331 -0.7240  0.1468  0.0903
 8216TIP3   OH246138   5.626   4.924  13.453  0.7367  0.4939  0.3221
 8216TIP3    H146139   5.665   4.993  13.507 -0.2562  1.9951 -0.7892
 8216TIP3    H246140   5.532   4.934  13.465  0.5509 -0.0041 -0.6432
 8217TIP3   OH246141   5.130   0.275  13.603  0.4414 -0.7833 -0.1466
 8217TIP3    H146142   5.039   0.246  13.612  0.4439 -0.6580  0.2675
 8217TIP3    H246143   5.172   0.249  13.685  0.7357 -0.6738 -0.2622
 8218TIP3   OH246144   1.369   5.330  13.215  0.1947  0.3518 -0.6037
 8218TIP3    H146145   1.447   5.299  13.170  0.4018 -1.6576  1.0299
 8218TIP3    H246146   1.302   5.266  13.194  0.0293 -0.0727  1.0628
 8219TIP3   OH246147   6.304   4.431  14.457 -0.2309  0.0544  0.2551
 8219TIP3    H146148   6.239   4.448  14.389  0.1826 -0.7632 -0.3574
 8219TIP3    H246149   6.275   4.484  14.531 -1.4929 -0.1489 -0.0689
 8220TIP3   OH246150   3.914   3.442   3.836 -0.6126  0.4373 -0.0774
 8220TIP3    H146151   3.999   3.401   3.821 -0.4496  0.7488 -0.0241
 8220TIP3    H246152   3.882   3.403   3.917 -1.1716 -0.7322 -0.8518
 8221TIP3   OH246153   2.130   1.340  17.142  0.8327  0.2523  0.2159
 8221TIP3    H146154   2.156   1.326  17.051 -0.0238 -0.5044  0.0720
 8221TIP3    H246155   2.212   1.359  17.188  1.4762 -0.8320 -0.4434
 8222TIP3   OH246156   4.260   2.060  11.599  0.1755  0.1401  0.0766
 8222TIP3    H146157   4.311   2.072  11.519 -1.1177 -0.2376 -0.8433
 8222TIP3    H246158   4.170   2.080  11.573 -0.1932  0.6049  1.6004
 8223TIP3   OH246159   3.576   4.818   5.986 -0.2356  0.0267  0.2567
 8223TIP3    H146160   3.602   4.805   6.077  0.8481  1.3035  0.1548
 8223TIP3    H246161   3.560   4.912   5.978 -0.5682 -0.1041 -0.8070
 8224TIP3   OH246162   4.063   4.901   5.362 -0.0547 -0.3046  0.3210
 8224TIP3    H146163   3.989   4.840   5.354 -0.6474  0.4883 -0.3263
 8224TIP3    H246164   4.088   4.921   5.272  1.6976 -1.4242  0.5173
 8225TIP3   OH246165   1.945   1.107  13.542  0.2759  0.3116 -1.1875
 8225TIP3    H146166   1.881   1.037  13.555  1.1770 -0.4656 -0.8053
 8225TIP3    H246167   2.029   1.065  13.557  0.8487  1.4487 -1.1433
 8226TIP3   OH246168   5.931   4.410  12.111 -0.2463  0.0911 -0.1995
 8226TIP3    H146169   5.885   4.380  12.033  0.7334 -1.4873 -0.1953
 8226TIP3    H246170   5.946   4.331  12.162  3.6635  0.2388 -0.8475
 8227TIP3   OH246171   0.545   4.454  16.124  0.3980 -0.1952  0.6237
 8227TIP3    H146172   0.614   4.437  16.188 -0.2876  1.5613  1.9029
 8227TIP3    H246173   0.504   4.535  16.154 -1.1234 -0.2869 -1.0599
 8228TIP3   OH246174   6.137   5.135  10.690  0.4498  0.4064 -0.2528
 8228TIP3    H146175   6.080   5.061  10.710  1.2126 -0.4173 -1.0299
 8228TIP3    H246176   6.105   5.206  10.745 -0.5148 -0.4029  0.2528
 8229TIP3   OH246177   3.931   3.943   5.783  0.2132 -0.5278  0.1294
 8229TIP3    H146178   3.995   4.013   5.767  2.2023 -2.3858 -0.5569
 8229TIP3    H246179   3.877   3.975   5.855  0.7030  1.9140 -0.5155
 8230TIP3   OH246180   0.131   6.788   2.182  0.7093  0.0318 -0.1909
 8230TIP3    H146181   0.038   6.811   2.178  1.0376  1.4502 -0.0677
 8230TIP3    H246182   0.140   6.718   2.117 -0.7703 -1.4161  1.0690
 8231TIP3   OH246183   6.686   3.522   6.067 -0.9211 -0.0420  0.0399
 8231TIP3    H146184   6.705   3.591   6.130 -0.5232  0.1256 -0.2653
 8231TIP3    H246185   6.727   3.444   6.104  0.8768  0.4255 -0.8823
 8232TIP3   OH246186   3.631   5.797  14.416  0.2011 -0.4534  0.5116
 8232TIP3    H146187   3.689   5.731  14.452  0.5212 -0.1640  0.5311
 8232TIP3    H246188   3.608   5.764  14.329  1.1462 -0.1236  0.1268
 8233TIP3   OH246189   1.416   1.527   4.756  0.0310  0.0064 -0.0593
 8233TIP3    H146190   1.364   1.472   4.815 -0.8490 -1.2578 -1.9341
 8233TIP3    H246191   1.421   1.477   4.675  0.7503  1.9276 -1.2539
 8234TIP3   OH246192   2.395   4.978   0.797  0.0843 -0.1159 -0.3746
 8234TIP3    H146193   2.453   5.011   0.729  0.3916  0.0178 -0.0512
 8234TIP3    H246194   2.419   4.886   0.807  0.5414  0.0470  0.0608
 8235TIP3   OH246195   2.542   1.369   2.558 -0.1304  0.1074 -0.1961
 8235TIP3    H146196   2.500   1.392   2.475 -1.0475  0.2265  0.2945
 8235TIP3    H246197   2.632   1.345   2.533 -1.1806 -2.8131 -1.6316
 8236TIP3   OH246198   5.244   4.160  15.291 -0.9081 -0.4899 -0.1754
 8236TIP3    H146199   5.297   4.111  15.353 -1.0884 -0.4288  0.0273
 8236TIP3    H246200   5.276   4.132  15.205 -0.2292 -0.0968 -0.0532
 8237TIP3   OH246201   6.508   5.473   3.762 -0.2546  0.0699 -0.3717
 8237TIP3    H146202   6.469   5.392   3.730  0.7506  0.2042 -2.0155
 8237TIP3    H246203   6.495   5.470   3.857  0.2465 -2.2787 -0.3232
 8238TIP3   OH246204   0.140   4.313  12.509 -0.3850 -0.2407  0.4091
 8238TIP3    H146205   0.061   4.332  12.559 -0.7415  0.9382 -0.5543
 8238TIP3    H246206   0.189   4.395  12.509 -0.2296 -0.3085 -0.8549
 8239TIP3   OH246207   4.866   0.565  13.817  0.3651  0.0382 -0.3410
 8239TIP3    H146208   4.925   0.560  13.742  1.3872  2.8780  0.1658
 8239TIP3    H246209   4.916   0.527  13.889  0.9647  0.9292 -0.2726
 8240TIP3   OH246210   4.126   4.707   0.660  0.3155 -0.1976  0.1348
 8240TIP3    H146211   4.069   4.633   0.638  0.2764 -0.2905  0.5403
 8240TIP3    H246212   4.146   4.747   0.576 -0.3589 -0.1596 -0.0165
 8241TIP3   OH246213   3.206   1.630   2.067 -0.2280 -0.3349  0.3994
 8241TIP3    H146214   3.274   1.683   2.109 -1.1476 -0.5147  2.2331
 8241TIP3    H246215   3.228   1.631   1.974  1.9988 -0.0030  0.8759
 8242TIP3   OH246216   1.600   2.724   0.527 -0.7386 -0.2737 -0.0844
 8242TIP3    H146217   1.593   2.810   0.486 -0.9587 -1.0555 -1.7564
 8242TIP3    H246218   1.638   2.668   0.460  3.2008 -0.7154  2.1915
 8243TIP3   OH246219   2.913   0.756   0.814 -0.3859 -0.1663 -0.1250
 8243TIP3    H146220   2.952   0.838   0.783 -2.4831  0.6763 -0.7107
 8243TIP3    H246221   2.838   0.783   0.867 -1.3365 -1.6822 -0.6167
 8244TIP3   OH246222   1.580   2.477   5.253 -0.1689  0.2467  0.5464
 8244TIP3    H146223   1.506   2.467   5.313  0.5379  1.1156  1.5952
 8244TIP3    H246224   1.650   2.424   5.292 -0.2518 -0.6902 -0.5143
 8245TIP3   OH246225   4.870   5.116  16.010 -0.3986  0.1981 -0.1800
 8245TIP3    H146226   4.832   5.094  16.095  1.4096  1.4950  1.0314
 8245TIP3    H246227   4.833   5.201  15.988  0.2341  0.5273  0.0167
 8246TIP3   OH246228   4.451   4.773  14.325 -0.0980  0.1621  1.0688
 8246TIP3    H146229   4.456   4.687  14.368 -1.0048 -0.4828 -0.0534
 8246TIP3    H246230   4.361   4.801  14.339 -0.9593 -0.8680 -1.7968
 8247TIP3   OH246231   5.187   0.485  11.376 -0.6457  0.6651  0.3259
 8247TIP3    H146232   5.155   0.490  11.466 -0.9057 -1.2572  0.3680
 8247TIP3    H246233   5.109   0.464  11.324 -0.5982  2.2642 -0.4474
 8248TIP3   OH246234   0.922   5.322   2.125  0.3302  0.0082 -0.0070
 8248TIP3    H146235   0.978   5.345   2.050 -0.8808  2.3816 -0.2527
 8248TIP3    H246236   0.861   5.257   2.090 -1.4585  2.4625 -1.7293
 8249TIP3   OH246237   3.680   4.886   6.262 -0.3020  0.2348 -0.3904
 8249TIP3    H146238   3.693   4.902   6.355 -1.1091 -0.2574 -0.1792
 8249TIP3    H246239   3.768   4.887   6.225  0.1532 -0.8392  0.5960
 8250TIP3   OH246240   4.910   1.078  16.170  0.2304  0.3362  0.4782
 8250TIP3    H146241   4.901   1.017  16.244  1.5520  0.5559  0.8361
 8250TIP3    H246242   4.989   1.049  16.124 -0.2876  0.5226 -0.5641
 8251TIP3   OH246243   5.205   6.136  12.605  0.3578 -0.0232 -0.1473
 8251TIP3    H146244   5.291   6.155  12.643  0.5044 -1.9492  0.5540
 8251TIP3    H246245   5.167   6.071  12.663 -0.8919 -0.4397 -1.3870
 8252TIP3   OH246246   4.526   2.566   3.332 -0.0467  0.6471  0.0681
 8252TIP3    H146247   4.449   2.519   3.298  0.4497 -1.1767  1.3052
 8252TIP3    H246248   4.500   2.594   3.420  1.2269 -1.6201  1.2561
 8253TIP3   OH246249   6.679   4.516   6.386  0.6298 -0.1897 -0.1361
 8253TIP3    H146250   6.628   4.577   6.334  2.3982  3.0351  1.6082
 8253TIP3    H246251   6.614   4.462   6.430 -1.0945  1.0900 -1.0001
 8254TIP3   OH246252   6.248   1.655   5.476  0.0175  0.1187  0.0420
 8254TIP3    H146253   6.249   1.652   5.572 -0.8042  0.0296  0.0517
 8254TIP3    H246254   6.229   1.565   5.450 -0.6114  0.3135 -0.1849
 8255TIP3   OH246255   5.516   3.211   1.870 -0.6676 -0.6938 -0.1388
 8255TIP3    H146256   5.475   3.231   1.786 -4.1387 -0.6788  1.4080
 8255TIP3    H246257   5.526   3.116   1.870  0.0218 -0.6319 -0.8078
 8256TIP3   OH246258   5.057   6.340   3.189  0.2550 -0.3873 -0.5423
 8256TIP3    H146259   5.147   6.364   3.211  0.2462  0.5820 -1.4536
 8256TIP3    H246260   5.048   6.363   3.096 -0.3744 -2.1910 -0.9700
 8257TIP3   OH246261   3.131   2.925   4.845  0.0158 -0.1107 -0.7781
 8257TIP3    H146262   3.196   2.933   4.914 -2.0011 -0.5910  1.3334
 8257TIP3    H246263   3.151   2.996   4.784  0.4160  2.0079  1.6392
 8258TIP3   OH246264   6.391   5.252   6.541  0.2579 -0.1684 -0.1062
 8258TIP3    H146265   6.425   5.304   6.468  0.8399 -0.5901 -0.1424
 8258TIP3    H246266   6.399   5.162   6.512 -1.5089 -0.2732 -0.3699
 8259TIP3   OH246267   6.331   5.599  17.080  0.7490 -1.0685 -0.5052
 8259TIP3    H146268   6.342   5.536  17.009  0.0007 -1.6207 -0.1573
 8259TIP3    H246269   6.283   5.550  17.147  2.8842 -1.1172  1.1133
 8260TIP3   OH246270   3.849   5.630   1.190  0.3053 -0.1101 -0.3525
 8260TIP3    H146271   3.884   5.675   1.267  0.1368 -1.2764  0.4482
 8260TIP3    H246272   3.822   5.700   1.131 -0.4698  0.8471  1.0625
 8261TIP3   OH246273   3.948   6.419  10.331 -0.2696 -0.4244 -0.0297
 8261TIP3    H146274   3.913   6.506  10.350  0.5993 -0.1730  0.4714
 8261TIP3    H246275   4.043   6.431  10.329 -0.1875 -0.8948 -2.2541
 8262TIP3   OH246276   1.428   0.622  14.548 -0.6403 -0.1633  0.1054
 8262TIP3    H146277   1.424   0.717  14.562 -0.2560 -0.1185 -0.0731
 8262TIP3    H246278   1.508   0.609  14.498 -0.4913 -0.6251  0.4590
 8263TIP3   OH246279   6.237   2.358  14.330  0.4538 -0.9773  0.1232
 8263TIP3    H146280   6.266   2.430  14.274  0.1376 -0.0109  1.1666
 8263TIP3    H246281   6.312   2.298  14.333  1.3310  0.1057  0.5296
 8264TIP3   OH246282   2.642   5.033  12.319 -0.4484  0.6397 -0.3489
 8264TIP3    H146283   2.585   4.970  12.364 -0.8740  0.6811 -0.8188
 8264TIP3    H246284   2.599   5.047  12.234  1.1466 -0.6217 -1.4161
 8265TIP3   OH246285   3.287   3.014  11.198  0.2741  0.1898  0.4213
 8265TIP3    H146286   3.364   2.962  11.221 -0.5557 -0.3557  2.1236
 8265TIP3    H246287   3.301   3.039  11.106  1.6615 -1.3064  0.1906
 8266TIP3   OH246288   0.154   2.423   3.495 -0.0223 -0.1179  0.2522
 8266TIP3    H146289   0.104   2.489   3.447 -0.8261 -0.7899  0.1517
 8266TIP3    H246290   0.090   2.383   3.555  0.0649 -1.8502 -0.7530
 8267TIP3   OH246291   5.031   6.521   4.560  0.0848 -0.1102  0.3904
 8267TIP3    H146292   5.012   6.441   4.607 -0.6555 -0.1127  0.1090
 8267TIP3    H246293   4.990   6.509   4.474 -0.5743  0.8015  0.5572
 8268TIP3   OH246294   2.075   4.365   4.276 -0.4156  0.1157  0.1468
 8268TIP3    H146295   2.097   4.280   4.238  1.6828  0.7213 -0.1376
 8268TIP3    H246296   2.106   4.360   4.366  0.5753  0.8560 -0.1330
 8269TIP3   OH246297   3.537   1.686   2.330  0.1930 -0.0719  0.2123
 8269TIP3    H146298   3.598   1.613   2.338  0.5816  0.3217  0.9629
 8269TIP3    H246299   3.574   1.755   2.386 -1.2492 -0.0553  1.2156
 8270TIP3   OH246300   6.017   4.756  14.811 -0.4978 -0.5583  0.1276
 8270TIP3    H146301   5.928   4.721  14.822 -1.6711  1.4838 -1.7653
 8270TIP3    H246302   6.015   4.840  14.856  0.7454 -0.8223  0.7089
 8271TIP3   OH246303   5.235   2.518  12.889  0.1585  0.2740 -0.0666
 8271TIP3    H146304   5.238   2.577  12.814  1.8047 -0.2575 -0.4511
 8271TIP3    H246305   5.153   2.470  12.879 -1.0045  2.1357  0.0066
 8272TIP3   OH246306   6.241   4.430   2.471 -0.1672 -0.0140 -0.1026
 8272TIP3    H146307   6.319   4.375   2.465  1.1876  1.7848  0.2866
 8272TIP3    H246308   6.248   4.490   2.396 -1.2723  0.0774 -0.1544
 8273TIP3   OH246309   6.294   6.017   1.474  0.2083  0.0278  0.7301
 8273TIP3    H146310   6.216   6.033   1.420  0.7223 -2.0884 -0.7681
 8273TIP3    H246311   6.327   6.105   1.495 -2.5936  0.9944  1.5212
 8274TIP3   OH246312   2.025   1.048  11.263  0.4454  0.2129 -0.1235
 8274TIP3    H146313   1.934   1.018  11.271  0.2603  0.9653  0.8230
 8274TIP3    H246314   2.017   1.141  11.241  0.9972  0.1941 -0.4214
 8275TIP3   OH246315   1.719   1.461   3.639 -0.2326 -0.4609  0.4102
 8275TIP3    H146316   1.748   1.548   3.666  0.6450 -0.5892 -0.0977
 8275TIP3    H246317   1.783   1.401   3.677 -1.4942 -1.0056  1.7755
 8276TIP3   OH246318   1.882   2.807  12.758 -0.3125  0.4618  0.3545
 8276TIP3    H146319   1.834   2.725  12.765  0.8443 -0.0750  3.1485
 8276TIP3    H246320   1.934   2.798  12.678 -0.5847 -1.3002  0.3436
 8277TIP3   OH246321   4.471   4.916   5.307 -0.1046  0.0211  0.0234
 8277TIP3    H146322   4.513   4.988   5.354 -0.5519 -0.3452  1.0285
 8277TIP3    H246323   4.401   4.887   5.366 -1.2445  0.0888 -1.2568
 8278TIP3   OH246324   0.292   6.007   1.407  0.7165 -0.7239  0.1476
 8278TIP3    H146325   0.305   5.912   1.398  0.4767 -0.6700 -0.9465
 8278TIP3    H246326   0.288   6.039   1.317  1.2580  0.4027  0.5034
 8279TIP3   OH246327   3.342   3.393  13.294 -0.4083 -0.1819 -0.6264
 8279TIP3    H146328   3.341   3.327  13.225 -0.3684  0.4322 -1.2136
 8279TIP3    H246329   3.361   3.343  13.374 -0.5658 -0.9066 -1.0344
 8280TIP3   OH246330   0.543   2.982  15.540 -0.1795 -0.0723  0.0836
 8280TIP3    H146331   0.546   3.045  15.612  1.3239  0.2300 -0.2071
 8280TIP3    H246332   0.453   2.986  15.508 -0.2722  1.4919  0.4689
 8281TIP3   OH246333   0.198   5.647   1.134 -0.0435  0.1484  0.0840
 8281TIP3    H146334   0.115   5.670   1.176 -0.5014 -1.9399  0.4302
 8281TIP3    H246335   0.173   5.592   1.059  0.9787  0.5032 -0.5469
 8282TIP3   OH246336   4.406   6.383   0.769 -0.0753  0.6725  0.2157
 8282TIP3    H146337   4.368   6.327   0.837  1.8655  0.5111  1.2254
 8282TIP3    H246338   4.435   6.321   0.702  2.7276  0.2484  1.6516
 8283TIP3   OH246339   0.811   1.240   4.059 -0.1863  0.2364 -0.3350
 8283TIP3    H146340   0.760   1.184   4.002  0.2211 -0.1021 -0.3780
 8283TIP3    H246341   0.889   1.262   4.008 -0.3587  0.8589 -0.3241
 8284TIP3   OH246342   4.886   1.366  16.138  0.3779  0.0841  0.0797
 8284TIP3    H146343   4.901   1.271  16.136  0.9179  0.1309  1.0405
 8284TIP3    H246344   4.967   1.404  16.105  0.0121  0.2077 -0.6862
 8285TIP3   OH246345   2.761   3.265  11.250  0.2140  0.3256  0.1706
 8285TIP3    H146346   2.702   3.260  11.174  0.5485 -0.9149 -0.0309
 8285TIP3    H246347   2.705   3.246  11.325  0.3887 -1.0832 -0.0441
 8286TIP3   OH246348   4.241   6.316  13.885  0.5592 -0.0180 -0.2620
 8286TIP3    H146349   4.205   6.232  13.912  1.5253 -0.0216  1.1329
 8286TIP3    H246350   4.330   6.317  13.921  1.6424  0.3986 -2.7550
 8287TIP3   OH246351   2.587   1.441   5.088 -0.2908 -0.4683  0.1839
 8287TIP3    H146352   2.585   1.386   5.166  0.8423 -1.3048 -0.3577
 8287TIP3    H246353   2.618   1.526   5.119  2.3216 -1.3912  0.3579
 8288TIP3   OH246354   2.617   0.532  12.386  0.0677  0.1813 -0.2102
 8288TIP3    H146355   2.699   0.543  12.338  0.1676 -2.2987 -0.7831
 8288TIP3    H246356   2.641   0.542  12.478  1.0279 -0.4732 -0.3777
 8289TIP3   OH246357   4.532   2.427  13.775  0.0951 -0.1090  0.3340
 8289TIP3    H146358   4.438   2.424  13.791  0.1181  1.6431  0.9972
 8289TIP3    H246359   4.569   2.369  13.842 -0.3680  1.2533  1.8453
 8290TIP3   OH246360   3.532   3.726   6.211 -0.3826 -0.4693  0.1451
 8290TIP3    H146361   3.583   3.703   6.133 -2.2631 -1.7059 -0.7750
 8290TIP3    H246362   3.572   3.808   6.242  0.5436 -0.0463 -1.9785
 8291TIP3   OH246363   3.066   2.887  12.244  0.0101  0.0919 -0.0451
 8291TIP3    H146364   3.152   2.928  12.254  0.1730 -0.2507 -0.0066
 8291TIP3    H246365   3.043   2.901  12.152  1.2445 -1.9601 -0.7372
 8292TIP3   OH246366   3.062   3.620  13.241  0.5670 -0.4550  0.2395
 8292TIP3    H146367   3.018   3.535  13.250 -1.3735  0.5648  1.0190
 8292TIP3    H246368   3.122   3.624  13.315  1.4607 -1.5451 -0.3874
 8293TIP3   OH246369   3.586   4.369  15.272  0.2546 -0.4693  0.4589
 8293TIP3    H146370   3.552   4.351  15.360  0.6807  1.1209  0.9821
 8293TIP3    H246371   3.546   4.453  15.247  2.7748  0.8779  0.6067
 8294TIP3   OH246372   3.184   4.317   4.669 -0.3562  0.4751  0.0417
 8294TIP3    H146373   3.172   4.331   4.575 -0.2931 -1.1667 -0.2327
 8294TIP3    H246374   3.259   4.371   4.692  0.8279 -0.5583 -1.2542
 8295TIP3   OH246375   3.281   3.195  12.698  0.5267  0.1358 -0.3474
 8295TIP3    H146376   3.210   3.131  12.701  1.1161 -0.5379  2.2608
 8295TIP3    H246377   3.239   3.276  12.671 -0.8695 -0.6490 -0.6451
 8296TIP3   OH246378   5.562   6.280   4.252  0.2033 -0.0846 -0.4467
 8296TIP3    H146379   5.491   6.233   4.208 -1.2057  1.4009  0.1387
 8296TIP3    H246380   5.534   6.284   4.344  1.2224  0.2424 -0.1419
 8297TIP3   OH246381   2.038   5.556  11.085  0.2901 -0.2939  0.5375
 8297TIP3    H146382   2.109   5.582  11.025 -0.7201  0.3998 -0.4044
 8297TIP3    H246383   2.004   5.639  11.118  0.4337 -0.6528  1.6367
 8298TIP3   OH246384   1.996   5.178  15.645 -0.0371  0.1138  0.1163
 8298TIP3    H146385   1.995   5.129  15.727  1.7033  1.6561  1.1258
 8298TIP3    H246386   1.941   5.254  15.661 -1.2296 -0.5130 -0.8245
 8299TIP3   OH246387   5.501   4.300  13.253  0.2474  0.5481 -0.2271
 8299TIP3    H146388   5.440   4.252  13.309  2.6445 -2.1563  0.3422
 8299TIP3    H246389   5.475   4.278  13.164  0.5236 -0.7902  0.0108
 8300TIP3   OH246390   5.836   4.524   6.205 -0.8829 -0.3581 -0.1278
 8300TIP3    H146391   5.757   4.570   6.178 -1.6093 -1.8298 -0.6419
 8300TIP3    H246392   5.905   4.591   6.206 -2.2222  1.0708  0.8558
 8301TIP3   OH246393   5.233   0.606  14.201 -1.2436  0.4022  0.0260
 8301TIP3    H146394   5.166   0.541  14.183 -1.2162  0.5922 -0.7647
 8301TIP3    H246395   5.311   0.575  14.154 -1.3524  1.2206 -0.7210
 8302TIP3   OH246396   0.763   5.227  15.196 -0.2781 -0.3931 -0.1905
 8302TIP3    H146397   0.671   5.212  15.176 -0.6189  1.1936  0.0708
 8302TIP3    H246398   0.804   5.141  15.184 -1.7847 -1.1439 -0.2453
 8303TIP3   OH246399   4.334   0.464  11.931 -0.0496 -0.0656  0.0331
 8303TIP3    H146400   4.340   0.559  11.930 -1.1309  0.0485  1.0082
 8303TIP3    H246401   4.380   0.438  12.011 -0.9097 -0.2194  0.5014
 8304TIP3   OH246402   4.535   6.510   2.132 -0.3007  1.3236 -0.0822
 8304TIP3    H146403   4.585   6.543   2.207  0.2736  0.3871 -0.0335
 8304TIP3    H246404   4.444   6.508   2.163 -0.3153  2.6091 -0.0166
 8305TIP3   OH246405   5.347   0.146   5.316 -0.1751 -0.4536 -0.0424
 8305TIP3    H146406   5.410   0.169   5.247 -0.9309 -1.2556 -1.0298
 8305TIP3    H246407   5.391   0.078   5.366 -0.0551 -0.6709 -0.4365
 8306TIP3   OH246408   3.697   1.397  16.373 -0.6814 -0.1017  0.4394
 8306TIP3    H146409   3.661   1.352  16.297  1.2004 -1.6357  0.3597
 8306TIP3    H246410   3.623   1.443  16.412 -1.9362 -0.2712 -1.6068
 8307TIP3   OH246411   2.187   0.124   2.041 -0.9782  0.7174  0.5060
 8307TIP3    H146412   2.230   0.193   1.990 -0.1410  0.0775  0.3302
 8307TIP3    H246413   2.095   0.151   2.045 -1.0126  0.9340 -1.0734
 8308TIP3   OH246414   2.953   3.339   2.229  0.2655  0.0549  0.1692
 8308TIP3    H146415   2.939   3.265   2.289  0.4807 -1.2731 -1.3539
 8308TIP3    H246416   3.039   3.374   2.254  0.9241 -1.2673 -0.1078
 8309TIP3   OH246417   5.005   6.501  15.322  0.2537  0.8966  0.5599
 8309TIP3    H146418   4.935   6.449  15.363 -0.3711  1.3042  0.0359
 8309TIP3    H246419   5.050   6.440  15.264 -0.2010  0.8186  0.2804
 8310TIP3   OH246420   5.781   6.668  15.630  0.0360  0.8656 -0.0909
 8310TIP3    H146421   5.745   6.605  15.692 -1.9777 -2.2997 -4.0469
 8310TIP3    H246422   5.876   6.651  15.631 -0.4216 -2.1383 -0.8058
 8311TIP3   OH246423   4.496   3.159  12.649 -0.1716  0.3381 -0.3985
 8311TIP3    H146424   4.582   3.145  12.611 -0.3496 -0.5350 -0.5085
 8311TIP3    H246425   4.513   3.204  12.732  0.3982  0.0263 -0.3420
 8312TIP3   OH246426   4.843   6.330   3.827  0.1955  0.4174  0.4165
 8312TIP3    H146427   4.881   6.322   3.740 -0.7944 -1.2754  0.0866
 8312TIP3    H246428   4.776   6.397   3.818 -0.4233 -0.2884 -0.3351
 8313TIP3   OH246429   4.931   6.093   4.026 -0.0756 -0.2307 -0.5643
 8313TIP3    H146430   4.963   6.171   3.981  0.2459  0.6004  1.0389
 8313TIP3    H246431   5.010   6.053   4.064 -0.4366 -0.4035  0.0196
 8314TIP3   OH246432   1.467   5.216  16.602 -0.2171 -0.4014  0.2258
 8314TIP3    H146433   1.539   5.273  16.576 -1.0514  0.0847 -1.1379
 8314TIP3    H246434   1.401   5.275  16.638 -0.4259 -0.7009  0.3353
 8315TIP3   OH246435   1.703   2.833   4.756  0.4564  0.1663  0.0469
 8315TIP3    H146436   1.633   2.789   4.709 -0.0096  1.1106 -0.1601
 8315TIP3    H246437   1.744   2.764   4.809  1.1081 -0.9661 -1.8522
 8316TIP3   OH246438   4.616   3.793  14.932  0.2167 -0.1845 -0.2907
 8316TIP3    H146439   4.575   3.879  14.946 -0.2322 -0.2890 -0.9766
 8316TIP3    H246440   4.634   3.790  14.838  0.7325 -0.6258 -0.1824
 8317TIP3   OH246441   3.492   6.317   2.840  0.1893 -0.1262  0.0820
 8317TIP3    H146442   3.576   6.328   2.885  0.3477 -2.6168  0.5426
 8317TIP3    H246443   3.501   6.233   2.793 -2.3454 -0.9538  0.9315
 8318TIP3   OH246444   1.804   1.221   1.510 -0.2242 -0.2057 -0.1024
 8318TIP3    H146445   1.789   1.314   1.525  0.4373 -0.2139  0.6638
 8318TIP3    H246446   1.723   1.179   1.537 -0.3120  0.0941  0.0980
 8319TIP3   OH246447   4.429   0.486   2.383  0.2084  0.1265  0.2583
 8319TIP3    H146448   4.503   0.517   2.435 -0.4520  1.8704  0.2287
 8319TIP3    H246449   4.469   0.444   2.307  1.1821  0.7707  0.3959
 8320TIP3   OH246450   0.290   1.353  14.736  0.6573 -0.1932  0.2393
 8320TIP3    H146451   0.230   1.395  14.797  1.1573  0.5889  0.2046
 8320TIP3    H246452   0.338   1.425  14.695  1.2138 -0.7701 -0.1504
 8321TIP3   OH246453   4.482   2.811   1.390  0.0937 -1.3758  0.0354
 8321TIP3    H146454   4.537   2.734   1.371  1.5578 -0.2548 -0.4958
 8321TIP3    H246455   4.544   2.884   1.395 -1.3071 -0.1269 -0.0362
 8322TIP3   OH246456   3.780   6.150  14.452  0.4993 -0.5420  0.3230
 8322TIP3    H146457   3.845   6.176  14.387  0.8840  0.1099  0.9612
 8322TIP3    H246458   3.810   6.189  14.534 -0.2459 -0.9375  0.7987
 8323TIP3   OH246459   2.758   3.817  12.817 -0.4923 -0.8527 -0.1944
 8323TIP3    H146460   2.775   3.896  12.765  0.2217 -0.9007 -0.0386
 8323TIP3    H246461   2.749   3.848  12.907  1.4273 -1.1006  0.1305
 8324TIP3   OH246462   3.871   0.599   0.103  0.4050  0.5600  0.0558
 8324TIP3    H146463   3.918   0.644   0.173  1.8965  1.3502 -1.3965
 8324TIP3    H246464   3.930   0.603   0.028 -0.3997 -1.7794 -0.7993
 8325TIP3   OH246465   2.212   5.167   3.911 -0.1298 -0.4964 -0.7955
 8325TIP3    H146466   2.168   5.102   3.856 -0.8599 -1.2962  0.6749
 8325TIP3    H246467   2.179   5.251   3.879 -1.9828 -1.0309 -0.4117
 8326TIP3   OH246468   5.214   3.014  12.571 -0.3858 -0.1717  0.2507
 8326TIP3    H146469   5.265   2.947  12.617 -1.2523 -2.3075 -1.6532
 8326TIP3    H246470   5.123   2.995  12.594 -0.6951 -0.1166 -0.8541
 8327TIP3   OH246471   4.966   0.751   5.448 -0.2480 -0.0282  0.0920
 8327TIP3    H146472   4.920   0.667   5.455  0.6211 -0.5763 -0.5163
 8327TIP3    H246473   4.897   0.815   5.433 -0.8902 -0.7012  0.1025
 8328TIP3   OH246474   1.204   0.817   2.080 -0.1491 -0.1866 -0.1450
 8328TIP3    H146475   1.285   0.801   2.128 -1.4956 -0.7853  2.0883
 8328TIP3    H246476   1.164   0.731   2.070 -1.8194  0.3532  1.3334
 8329TIP3   OH246477   4.544   2.606  12.410  0.2959  0.0916 -0.0608
 8329TIP3    H146478   4.509   2.517  12.403 -0.0064  0.2736 -1.1803
 8329TIP3    H246479   4.469   2.663  12.394  0.2233  0.6045  1.8468
 8330TIP3   OH246480   6.807   0.172   2.479  0.1383 -0.0471  0.1024
 8330TIP3    H146481   6.805   0.080   2.455  2.3319  0.2342 -1.4675
 8330TIP3    H246482   6.716   0.195   2.494 -0.5714 -2.1903 -0.5838
 8331TIP3   OH246483   3.696   0.316   4.802  0.0938 -0.3334  0.0757
 8331TIP3    H146484   3.696   0.352   4.891 -0.1430  1.5096 -0.6224
 8331TIP3    H246485   3.724   0.225   4.813  1.3580  0.2147  1.8844
 8332TIP3   OH246486   6.375   4.374  12.048  0.3403 -0.0604  0.1268
 8332TIP3    H146487   6.379   4.279  12.039 -0.5208 -0.0355 -0.5845
 8332TIP3    H246488   6.403   4.408  11.963  1.9211  0.3615  0.7799
 8333TIP3   OH246489   1.252   2.447   4.407 -0.3883 -0.3098  0.5628
 8333TIP3    H146490   1.248   2.539   4.434  0.2014 -0.0651 -0.1477
 8333TIP3    H246491   1.171   2.409   4.440 -0.8357  0.5665  0.4997
 8334TIP3   OH246492   1.653   3.968  12.073 -0.3179  0.1958 -0.1080
 8334TIP3    H146493   1.679   3.929  11.989  0.4726 -1.4552  0.8444
 8334TIP3    H246494   1.647   4.061  12.055  1.3949  0.0813 -1.6387
 8335TIP3   OH246495   3.709   6.497   4.909 -0.3099  0.2556 -0.2408
 8335TIP3    H146496   3.656   6.420   4.931 -2.0641  2.1202  2.8162
 8335TIP3    H246497   3.752   6.474   4.827 -1.8130 -3.4099 -0.1937
 8336TIP3   OH246498   0.805   6.179   5.729 -0.0174 -0.4507 -0.2000
 8336TIP3    H146499   0.855   6.244   5.778 -1.7919  0.2231  0.8172
 8336TIP3    H246500   0.783   6.223   5.647 -0.7663  0.0700  0.2661
 8337TIP3   OH246501   6.477   3.736   6.173 -0.5731  0.0708 -0.6000
 8337TIP3    H146502   6.464   3.679   6.249 -0.3346  1.2527  0.3627
 8337TIP3    H246503   6.428   3.815   6.195 -1.3120  0.0740 -2.1269
 8338TIP3   OH246504   3.975   3.180   3.516 -0.2974 -0.0501 -0.8429
 8338TIP3    H146505   3.884   3.207   3.513  0.2763  2.0276 -0.8196
 8338TIP3    H246506   3.979   3.114   3.585 -1.5458  0.8132  0.0922
 8339TIP3   OH246507   4.137   6.100  14.007  0.3255  0.3594  0.1133
 8339TIP3    H146508   4.186   6.022  14.031 -0.1366 -0.0827 -0.3545
 8339TIP3    H246509   4.045   6.074  14.013  0.1650  0.8989  0.0612
 8340TIP3   OH246510   4.666   5.350   0.798 -0.0720  0.1446 -0.0834
 8340TIP3    H146511   4.603   5.397   0.744 -0.0133  0.7013  0.3288
 8340TIP3    H246512   4.626   5.264   0.812  0.2522 -0.2814 -1.6257
 8341TIP3   OH246513   5.367   0.760  11.369  0.0556  0.2710  0.4303
 8341TIP3    H146514   5.278   0.737  11.393  1.1434 -3.4148  1.5642
 8341TIP3    H246515   5.380   0.722  11.282  0.0112  2.4690 -0.5938
 8342TIP3   OH246516   5.985   3.910  12.305  0.2530 -0.0031  0.7194
 8342TIP3    H146517   6.043   3.912  12.382  0.7071 -0.7365  0.4098
 8342TIP3    H246518   6.007   3.828  12.261 -0.7697 -0.1106  0.3881
 8343TIP3   OH246519   4.864   1.610   2.227 -0.2033  0.5107  0.0932
 8343TIP3    H146520   4.791   1.654   2.270 -0.0170 -0.5864  1.5921
 8343TIP3    H246521   4.868   1.650   2.140 -2.2856  0.9100  0.1349
 8344TIP3   OH246522   4.368   4.070   5.204 -0.2136 -0.1720 -0.0905
 8344TIP3    H146523   4.303   4.048   5.137 -0.7344  1.6317 -0.2112
 8344TIP3    H246524   4.389   3.986   5.245 -1.7514 -0.9544 -0.8242
 8345TIP3   OH246525   5.752   0.943  11.759 -0.3731  0.3385 -0.0812
 8345TIP3    H146526   5.815   0.891  11.710 -0.5518  1.7029 -1.8553
 8345TIP3    H246527   5.674   0.887  11.764  0.1131 -0.3590 -0.0981
 8346TIP3   OH246528   6.474   4.696   1.208  0.0012  0.1611  0.0828
 8346TIP3    H146529   6.471   4.614   1.159  2.1560 -0.3564  0.6939
 8346TIP3    H246530   6.431   4.675   1.291 -2.4084  0.6515 -0.9579
 8347TIP3   OH246531   6.293   0.839   0.363 -0.4765  0.7139  0.7001
 8347TIP3    H146532   6.340   0.920   0.343 -1.6063  1.0879 -0.5714
 8347TIP3    H246533   6.231   0.864   0.432  0.4311  0.4684  1.6282
 8348TIP3   OH246534   0.675   0.761   2.524  0.2549  0.8240 -0.1062
 8348TIP3    H146535   0.659   0.668   2.537  0.2111  1.0792  2.0739
 8348TIP3    H246536   0.591   0.797   2.497 -0.2826  0.5332  1.1249
 8349TIP3   OH246537   5.060   6.180  11.307  0.0265  0.2136  0.5304
 8349TIP3    H146538   5.120   6.181  11.232 -0.5646  1.7470  0.0487
 8349TIP3    H246539   5.009   6.099  11.295  1.4695 -0.7327  0.5523
 8350TIP3   OH246540   4.331   1.781   1.081 -0.1398  0.5497 -0.2306
 8350TIP3    H146541   4.356   1.763   0.990 -0.1300 -0.6583 -0.0018
 8350TIP3    H246542   4.259   1.844   1.074 -1.8144 -1.3833 -1.2095
 8351TIP3   OH246543   6.764   0.137   4.126  0.0599 -0.0306 -0.0279
 8351TIP3    H146544   6.770   0.104   4.036  0.8439 -0.4632  0.1725
 8351TIP3    H246545   6.725   0.065   4.175 -1.9738  0.8008 -0.2987
 8352TIP3   OH246546   6.755   2.316   3.653  0.1942 -0.7941 -0.1563
 8352TIP3    H146547   6.687   2.251   3.672 -0.1070 -0.4500 -0.0322
 8352TIP3    H246548   6.803   2.325   3.735 -0.5002 -0.0140  0.1870
 8353TIP3   OH246549   0.005   0.187  16.480 -0.4759 -0.0603 -0.1435
 8353TIP3    H146550   0.044   0.266  16.516 -1.6209  0.1707  0.6514
 8353TIP3    H246551   0.030   0.117  16.541 -0.6630 -0.0470 -0.0502
 8354TIP3   OH246552   4.828   4.247  11.640  0.5907 -0.2918  0.0206
 8354TIP3    H146553   4.778   4.221  11.562  0.6867  1.4386 -0.6610
 8354TIP3    H246554   4.764   4.290  11.696  0.4440 -1.8595  1.1028
 8355TIP3   OH246555   0.210   5.968  13.615 -0.0090 -0.1153 -0.7603
 8355TIP3    H146556   0.277   6.014  13.565 -1.4730  2.4465 -0.5433
 8355TIP3    H246557   0.153   6.037  13.648 -2.0077 -2.0807  0.1853
 8356TIP3   OH246558   4.726   3.134   4.964  0.1628  0.6383  0.2662
 8356TIP3    H146559   4.747   3.093   5.048  2.8602  1.9211  0.3071
 8356TIP3    H246560   4.800   3.114   4.908 -0.8028  1.2673 -1.3039
 8357TIP3   OH246561   5.735   4.143  13.642  1.0494  0.1005 -0.5954
 8357TIP3    H146562   5.680   4.221  13.650  0.5709 -0.3031  0.0975
 8357TIP3    H246563   5.674   4.074  13.615  1.0170 -0.5593  1.0611
 8358TIP3   OH246564   3.889   2.072  16.938  0.4363  0.2805 -0.4253
 8358TIP3    H146565   3.902   1.994  16.991  2.0378  0.0889 -1.0262
 8358TIP3    H246566   3.900   2.042  16.848  1.7725  1.2657 -0.6316
 8359TIP3   OH246567   5.640   0.792   5.292  0.3928 -0.2635 -0.1128
 8359TIP3    H146568   5.684   0.812   5.375 -1.7113 -0.0429  1.0162
 8359TIP3    H246569   5.658   0.869   5.238  0.1213  0.5394  0.8858
 8360TIP3   OH246570   6.200   4.076   4.651 -0.3520 -0.1800 -0.1716
 8360TIP3    H146571   6.271   4.011   4.652  1.8089  1.9770 -1.6899
 8360TIP3    H246572   6.155   4.060   4.568  1.8589  1.7672 -1.8826
 8361TIP3   OH246573   6.035   0.258  14.866  0.3341  0.3675  0.3892
 8361TIP3    H146574   6.127   0.245  14.845  0.0048 -1.9634  0.2039
 8361TIP3    H246575   6.023   0.216  14.951 -0.4447  1.2085  0.7187
 8362TIP3   OH246576   6.771   3.225   1.615  0.3770 -0.1990  0.6755
 8362TIP3    H146577   6.773   3.275   1.533 -0.3697  0.1787  0.8830
 8362TIP3    H246578   6.780   3.291   1.684 -2.5150 -0.0642  1.0444
 8363TIP3   OH246579   6.556   6.203   3.021  0.4819 -0.5142 -0.2181
 8363TIP3    H146580   6.520   6.277   3.071  1.0263 -0.4157  0.0319
 8363TIP3    H246581   6.538   6.225   2.930 -0.2185 -0.5325 -0.0940
 8364TIP3   OH246582   4.346   5.320   1.341 -0.2949 -0.8650 -0.0548
 8364TIP3    H146583   4.406   5.253   1.374 -0.7141 -0.5362  1.4893
 8364TIP3    H246584   4.403   5.389   1.307  0.1864 -1.0071  0.4454
 8365TIP3   OH246585   4.154   3.066   2.422  0.1559 -0.6337 -0.4886
 8365TIP3    H146586   4.216   3.068   2.349  1.0843 -1.5255  0.2545
 8365TIP3    H246587   4.209   3.062   2.500 -0.8303 -1.5249  0.1895
 8366TIP3   OH246588   0.976   4.587   4.192 -0.0646  0.4941  0.7193
 8366TIP3    H146589   0.989   4.632   4.275 -0.9130 -0.2154  1.2564
 8366TIP3    H246590   0.952   4.657   4.130 -0.4414  0.8991  1.3138
 8367TIP3   OH246591   1.034   5.766   4.032  0.1974 -0.5498 -0.2179
 8367TIP3    H146592   0.947   5.792   4.061  0.3320  1.6558 -1.5349
 8367TIP3    H246593   1.053   5.686   4.081 -1.6033  0.1808  1.8395
 8368TIP3   OH246594   0.222   0.849  12.485  0.5829 -0.6238  0.5666
 8368TIP3    H146595   0.128   0.848  12.500 -0.1299 -0.8162 -3.0348
 8368TIP3    H246596   0.243   0.941  12.469  0.3056 -0.8608 -1.5788
 8369TIP3   OH246597   3.043   0.869  16.772  0.1641  0.0876 -0.4652
 8369TIP3    H146598   3.136   0.865  16.747 -0.0916 -2.6693 -1.4025
 8369TIP3    H246599   2.998   0.897  16.692  0.1040  0.7489 -0.2088
 8370TIP3   OH246600   0.088   6.330   2.171  0.0113  0.0157 -0.4981
 8370TIP3    H146601   0.130   6.244   2.176  1.0441  0.5186 -0.1943
 8370TIP3    H246602  -0.006   6.311   2.176  0.2603 -0.9831  1.1914
 8371TIP3   OH246603   4.907   1.008  15.267  0.1326  0.3902  1.0346
 8371TIP3    H146604   4.856   1.064  15.325 -1.2827 -1.2045  1.4370
 8371TIP3    H246605   4.962   1.068  15.216 -1.1399  2.0830  1.5788
 8372TIP3   OH246606   5.075   3.359   6.169 -0.1124  0.7949  0.6672
 8372TIP3    H146607   5.023   3.422   6.219 -0.2447  1.1548  0.0836
 8372TIP3    H246608   5.039   3.274   6.193 -0.3809  0.9832  0.9412
 8373TIP3   OH246609   6.767   1.806  12.991 -0.2572  0.0214 -0.0891
 8373TIP3    H146610   6.829   1.751  13.039  1.1136  0.7012 -1.0302
 8373TIP3    H246611   6.765   1.769  12.903  0.0921  1.0189 -0.5235
 8374TIP3   OH246612   5.380   0.990  15.776  0.0377  0.5714 -0.2504
 8374TIP3    H146613   5.436   0.932  15.724 -0.5265 -0.8556  0.6912
 8374TIP3    H246614   5.379   0.952  15.863 -2.3693  0.5453 -0.2108
 8375TIP3   OH246615   3.526   2.386   4.057 -0.5097 -0.1509  0.2619
 8375TIP3    H146616   3.445   2.351   4.094 -0.7457 -1.0841 -1.0968
 8375TIP3    H246617   3.539   2.337   3.976  0.3955  1.3162 -0.5190
 8376TIP3   OH246618   1.056   6.053  14.626  0.1415  0.2687  0.4330
 8376TIP3    H146619   0.996   5.985  14.658  0.9721 -0.5123  0.3746
 8376TIP3    H246620   1.095   6.015  14.548  2.1537 -0.0612  1.5291
 8377TIP3   OH246621   0.070   5.543  14.546  0.3180 -0.4022 -0.2862
 8377TIP3    H146622   0.009   5.490  14.493 -1.4811  0.4136  0.8553
 8377TIP3    H246623   0.059   5.510  14.635  0.3648  0.8012  0.1882
 8378TIP3   OH246624   6.048   3.805  16.965  0.0129 -0.1687 -0.1374
 8378TIP3    H146625   6.022   3.896  16.980  0.4392 -0.0183 -0.2899
 8378TIP3    H246626   6.144   3.806  16.974  0.2419 -0.2077 -2.1698
 8379TIP3   OH246627   2.084   1.339   2.662 -0.0943 -0.6822  0.0940
 8379TIP3    H146628   2.130   1.279   2.719 -0.2166  1.3873  2.5441
 8379TIP3    H246629   2.151   1.402   2.634 -0.7113  0.4007  0.9614
 8380TIP3   OH246630   4.727   4.094   4.162  0.3214  0.1846  0.1181
 8380TIP3    H146631   4.648   4.148   4.166  0.0108 -0.1547 -1.0854
 8380TIP3    H246632   4.727   4.058   4.073  0.4093 -1.9720  0.9297
 8381TIP3   OH246633   1.846   2.677  14.892  0.0798  0.1791 -0.2758
 8381TIP3    H146634   1.790   2.753  14.874  2.3551  2.1592  0.4416
 8381TIP3    H246635   1.801   2.631  14.963 -2.4714 -0.4906 -2.1807
 8382TIP3   OH246636   1.156   3.690  13.307  0.0963  0.6173 -0.7193
 8382TIP3    H146637   1.174   3.781  13.329  0.6970  0.5754 -1.0259
 8382TIP3    H246638   1.184   3.681  13.216  1.1564 -0.1747 -0.3357
 8383TIP3   OH246639   5.510   6.284  11.639  0.0121 -0.2811 -0.4929
 8383TIP3    H146640   5.544   6.281  11.550  0.3298 -0.6666 -0.3656
 8383TIP3    H246641   5.461   6.202  11.649  0.1192 -0.3181 -0.2617
 8384TIP3   OH246642   4.169   3.461   0.780 -0.1440  0.1523  0.1270
 8384TIP3    H146643   4.172   3.509   0.863  0.1781 -2.3763  1.6782
 8384TIP3    H246644   4.241   3.497   0.729 -0.9203  2.4111  0.4972
 8385TIP3   OH246645   1.666   5.392  15.586  0.1844  0.0574  0.0437
 8385TIP3    H146646   1.653   5.309  15.538  0.2482  0.8963 -1.4877
 8385TIP3    H246647   1.579   5.414  15.620 -0.2040  0.2187 -1.0187
 8386TIP3   OH246648   1.989   4.731   2.504  0.1829  0.2527 -0.2933
 8386TIP3    H146649   2.076   4.694   2.521  0.3320  0.8349  0.2510
 8386TIP3    H246650   1.986   4.809   2.559 -1.5887 -1.0414  1.5921
 8387TIP3   OH246651   4.624   5.779   3.723  0.8914 -0.0976 -0.4316
 8387TIP3    H146652   4.693   5.831   3.681 -0.0709  0.7602 -1.0120
 8387TIP3    H246653   4.658   5.761   3.810  1.8891  0.2270 -0.7276
 8388TIP3   OH246654   0.173   0.182  11.595  0.5243  0.3531  0.1777
 8388TIP3    H146655   0.216   0.200  11.512  0.6373  1.2872  0.4325
 8388TIP3    H246656   0.081   0.167  11.572  1.0743 -2.7683 -0.5157
 8389TIP3   OH246657   4.448   1.770  13.421  0.1010  0.2381 -0.6549
 8389TIP3    H146658   4.361   1.740  13.447 -1.0465  0.3814 -3.9702
 8389TIP3    H246659   4.508   1.726  13.482 -2.2411  0.7144  2.1962
 8390TIP3   OH246660   1.983   2.084   2.513 -0.2234  0.5497 -0.0977
 8390TIP3    H146661   1.980   2.177   2.536 -1.3021  0.4724  0.1149
 8390TIP3    H246662   1.994   2.039   2.597 -0.6723  0.4374 -0.0982
 8391TIP3   OH246663   4.467   0.815   5.000 -0.4584 -0.3879 -0.1323
 8391TIP3    H146664   4.423   0.900   5.005 -0.2566 -0.2914 -0.0025
 8391TIP3    H246665   4.407   0.760   4.948 -0.4018 -0.0566 -0.5489
 8392TIP3   OH246666   2.139   0.069   4.809  0.0993 -0.2597 -0.1143
 8392TIP3    H146667   2.179   0.119   4.879 -0.1532 -0.8479  0.4566
 8392TIP3    H246668   2.208   0.008   4.781  0.0987 -0.2330 -0.1753
 8393TIP3   OH246669   2.918   6.564  16.749 -0.1281  0.3007  0.3127
 8393TIP3    H146670   2.961   6.508  16.814  1.0884  1.5307  0.6301
 8393TIP3    H246671   2.909   6.508  16.672  0.6979 -0.4610  0.7430
 8394TIP3   OH246672   4.323   6.143   1.590  0.4833  0.2198  0.5697
 8394TIP3    H146673   4.333   6.126   1.684  1.0796  2.0728  0.8926
 8394TIP3    H246674   4.410   6.127   1.554 -0.3486 -3.2502 -0.2481
 8395TIP3   OH246675   2.479   4.365  14.709  0.0612  0.1302  0.1636
 8395TIP3    H146676   2.430   4.311  14.770  0.9725  0.3669  1.1256
 8395TIP3    H246677   2.568   4.368  14.744  0.2241  1.5834 -0.3020
 8396TIP3   OH246678   6.720   5.197   3.893  0.5728 -0.2827 -0.2565
 8396TIP3    H146679   6.641   5.221   3.844  0.0306  0.5816  0.9892
 8396TIP3    H246680   6.760   5.280   3.917  1.2790 -0.7047  0.0512
 8397TIP3   OH246681   6.182   5.278   4.539 -0.2716  0.5193 -0.2258
 8397TIP3    H146682   6.225   5.194   4.557  0.8575  0.7985 -1.4599
 8397TIP3    H246683   6.098   5.254   4.500  0.6496 -0.0851 -1.9546
 8398TIP3   OH246684   5.664   3.094   5.784 -0.5183  0.1171  0.1291
 8398TIP3    H146685   5.639   3.143   5.862 -0.0172  0.2565  0.2066
 8398TIP3    H246686   5.703   3.159   5.725 -1.0138  0.0371 -0.2964
 8399TIP3   OH246687   2.433   4.916  15.237 -0.4130 -0.1513 -0.0137
 8399TIP3    H146688   2.430   5.011  15.242 -0.8668 -0.1453 -0.4244
 8399TIP3    H246689   2.343   4.888  15.252 -0.3166 -0.5083 -0.0963
 8400TIP3   OH246690   1.606   0.684  11.679  0.3649 -0.1520  0.4232
 8400TIP3    H146691   1.701   0.671  11.677  0.5336  0.8931  0.6626
 8400TIP3    H246692   1.583   0.682  11.772  0.6391  2.4477  0.6342
 8401TIP3   OH246693   2.758   0.330  11.457  0.1297 -0.3979 -0.0549
 8401TIP3    H146694   2.717   0.266  11.515 -0.3916  1.0026  1.1821
 8401TIP3    H246695   2.832   0.364  11.507 -1.1842  1.8873  0.4637
 8402TIP3   OH246696   2.894   1.257   3.302  0.3207 -0.0025 -0.3213
 8402TIP3    H146697   2.816   1.308   3.280 -0.1790 -0.2774  0.7122
 8402TIP3    H246698   2.889   1.181   3.245 -0.2820 -0.1075 -0.1425
 8403TIP3   OH246699   4.949   1.442   1.137 -0.2739 -0.2027  0.0240
 8403TIP3    H146700   4.987   1.356   1.120 -0.9033 -0.0721 -2.3940
 8403TIP3    H246701   4.959   1.454   1.231  1.1220 -2.2890  0.2118
 8404TIP3   OH246702   3.733   3.979   3.548  0.0217 -0.3694  0.0243
 8404TIP3    H146703   3.768   3.891   3.560  1.0747  0.3490  3.2849
 8404TIP3    H246704   3.800   4.037   3.584 -0.6762  1.8055 -1.9503
 8405TIP3   OH246705   3.771   1.167   1.095 -0.4091  0.3732  0.6434
 8405TIP3    H146706   3.688   1.215   1.084 -1.1020 -0.7441  0.8198
 8405TIP3    H246707   3.745   1.084   1.134  0.7034 -0.3336 -0.0635
 8406TIP3   OH246708   0.741   2.028   4.237  0.1483 -0.1051  0.6302
 8406TIP3    H146709   0.780   2.105   4.277  0.8143 -0.2922  0.3410
 8406TIP3    H246710   0.783   1.954   4.282 -0.0865 -0.3076  0.5200
 8407TIP3   OH246711   2.692   1.176  11.281  0.6327 -0.0911  0.2822
 8407TIP3    H146712   2.683   1.136  11.368 -0.1483 -1.9591 -0.6091
 8407TIP3    H246713   2.624   1.134  11.228 -0.0566  2.2260 -0.8441
 8408TIP3   OH246714   2.651   2.737   3.069  0.3514 -0.0416  0.0593
 8408TIP3    H146715   2.573   2.793   3.064  0.4123 -0.0437 -1.3839
 8408TIP3    H246716   2.720   2.794   3.103 -0.3167 -0.1076  1.5995
 8409TIP3   OH246717   4.591   6.651   6.249 -0.2457  0.7822  0.0707
 8409TIP3    H146718   4.528   6.713   6.287 -1.1921  0.3411 -0.7503
 8409TIP3    H246719   4.582   6.572   6.303 -0.8972  0.4868 -0.4575
 8410TIP3   OH246720   1.824   2.825   4.495 -0.1158 -0.5494  0.6313
 8410TIP3    H146721   1.796   2.843   4.585  1.6207  0.4393  1.0160
 8410TIP3    H246722   1.863   2.907   4.466  1.2125 -1.4801 -0.2963
 8411TIP3   OH246723   5.600   3.279   2.624  0.6100  0.3333 -0.2763
 8411TIP3    H146724   5.649   3.235   2.694  2.0039 -0.6591 -1.7823
 8411TIP3    H246725   5.525   3.222   2.608 -0.8779  1.6091  1.7142
 8412TIP3   OH246726   5.276   1.359   1.457  0.1696 -0.6578 -0.1902
 8412TIP3    H146727   5.354   1.372   1.510 -0.5319  0.5515  0.6023
 8412TIP3    H246728   5.255   1.447   1.424 -0.8095 -0.9752 -0.4439
 8413TIP3   OH246729   5.000   3.131   5.226  0.0176 -0.0187  0.0725
 8413TIP3    H146730   5.001   3.199   5.293  2.2904 -0.2505  0.3794
 8413TIP3    H246731   5.011   3.177   5.144  0.2365  0.0952  0.1628
 8414TIP3   OH246732   1.477   3.105  16.092 -0.0633 -0.3305 -0.5478
 8414TIP3    H146733   1.473   3.024  16.144  0.7933  1.0219  1.7709
 8414TIP3    H246734   1.427   3.085  16.013 -0.6592 -2.8201  0.3668
 8415TIP3   OH246735   0.408   4.702  11.740 -0.2835 -0.5346 -0.0810
 8415TIP3    H146736   0.394   4.625  11.685 -2.7260  0.3301 -0.7889
 8415TIP3    H246737   0.489   4.740  11.707 -0.9514 -0.8129 -2.2106
 8416TIP3   OH246738   2.746   5.105  14.677  0.2392 -0.2473  0.0699
 8416TIP3    H146739   2.830   5.107  14.630  0.6650 -1.1210  0.7548
 8416TIP3    H246740   2.705   5.188  14.656  0.8987 -0.1671 -0.9754
 8417TIP3   OH246741   5.629   4.658   5.877 -0.6897  0.5299 -0.0914
 8417TIP3    H146742   5.705   4.705   5.843 -0.4793 -0.9706 -1.8663
 8417TIP3    H246743   5.630   4.674   5.971  1.7373  0.6755 -0.0905
 8418TIP3   OH246744   0.547   1.811   4.942 -0.3286  0.0919 -0.1522
 8418TIP3    H146745   0.497   1.854   5.011 -0.0177 -0.9160  0.7414
 8418TIP3    H246746   0.627   1.863   4.935 -0.4645  0.3359  0.0896
 8419TIP3   OH246747   0.248   3.517   4.245 -0.5404  0.0244  0.4544
 8419TIP3    H146748   0.174   3.459   4.227 -1.0629  1.1637 -1.3508
 8419TIP3    H246749   0.210   3.592   4.289 -0.5607  0.7858 -0.8145
 8420TIP3   OH246750   6.618   2.094  15.383  0.2950  0.0974 -0.0268
 8420TIP3    H146751   6.595   2.106  15.291 -0.4672  0.3751  0.1909
 8420TIP3    H246752   6.627   2.182  15.418  0.9446 -0.0073  0.0823
 8421TIP3   OH246753   0.533   3.766   1.138 -0.5045 -0.5358  0.3020
 8421TIP3    H146754   0.593   3.800   1.205  1.5328 -0.6044 -1.3740
 8421TIP3    H246755   0.473   3.838   1.122 -1.1781 -0.5876  2.2964
 8422TIP3   OH246756   2.723   4.388   6.631  0.4710  0.2255  0.4191
 8422TIP3    H146757   2.711   4.483   6.620  0.3511  0.5506  2.8770
 8422TIP3    H246758   2.635   4.352   6.623  0.6700  0.0875 -1.8860
 8423TIP3   OH246759   2.930   1.736  16.926  0.5363  0.3159 -0.2182
 8423TIP3    H146760   2.960   1.813  16.975  1.0714  0.0045 -0.0541
 8423TIP3    H246761   2.927   1.766  16.835  1.6082  0.2850 -0.2799
 8424TIP3   OH246762   4.208   1.161   0.907 -0.0664 -0.3384 -0.4997
 8424TIP3    H146763   4.235   1.234   0.962  0.3698 -1.9425  1.5239
 8424TIP3    H246764   4.116   1.179   0.887  0.2801  1.2063 -0.8492
 8425TIP3   OH246765   6.553   0.427   2.142 -0.1179 -0.0639  0.7158
 8425TIP3    H146766   6.599   0.452   2.222  0.3416 -0.4600  0.5846
 8425TIP3    H246767   6.604   0.353   2.108 -1.5322 -1.2862  1.1753
 8426TIP3   OH246768   6.685   3.610   1.490 -0.2008 -0.4884  0.2500
 8426TIP3    H146769   6.597   3.594   1.525 -1.0422  1.1016 -1.0054
 8426TIP3    H246770   6.739   3.624   1.568 -1.3933  0.0163  1.0218
 8427TIP3   OH246771   4.713   6.673  10.908 -0.1448  0.4374 -0.3185
 8427TIP3    H146772   4.801   6.638  10.919  0.2430  1.7010  0.8648
 8427TIP3    H246773   4.715   6.759  10.951 -1.7471  0.8202 -0.9107
 8428TIP3   OH246774   1.041   5.538   3.061 -0.0931 -0.3881 -0.2174
 8428TIP3    H146775   1.109   5.576   3.116  0.5662 -1.1411 -0.4923
 8428TIP3    H246776   0.970   5.516   3.122  0.1161 -0.0565  0.1452
 8429TIP3   OH246777   5.053   3.874   3.636 -0.3552 -0.3028  0.1981
 8429TIP3    H146778   4.984   3.936   3.611 -0.5199 -0.3134  0.6122
 8429TIP3    H246779   5.048   3.805   3.569 -0.0548  0.2079 -0.3600
 8430TIP3   OH246780   3.166   5.626  13.794  1.0129 -0.4290  0.0493
 8430TIP3    H146781   3.228   5.591  13.731  0.8741 -1.1754  0.3098
 8430TIP3    H246782   3.168   5.563  13.867  0.8929  0.2104  0.6205
 8431TIP3   OH246783   2.040   4.350   0.313  0.5348 -0.3908  0.5421
 8431TIP3    H146784   1.970   4.409   0.342  0.4190  0.1199 -0.7336
 8431TIP3    H246785   2.009   4.263   0.339  0.2835 -0.0007  1.6217
 8432TIP3   OH246786   3.856   4.770  13.055  0.3562  0.2559 -0.2331
 8432TIP3    H146787   3.845   4.853  13.009  0.9482  0.4322 -0.0607
 8432TIP3    H246788   3.927   4.786  13.117  0.4255 -0.3565 -0.1494
 8433TIP3   OH246789   5.074   4.242  11.510  0.2236  0.0850 -0.2893
 8433TIP3    H146790   4.994   4.250  11.562  0.0832 -0.3176 -0.4372
 8433TIP3    H246791   5.043   4.228  11.420  0.4534 -0.6164 -0.2630
 8434TIP3   OH246792   6.775   1.587   3.622 -0.0115 -0.8562 -0.3598
 8434TIP3    H146793   6.761   1.510   3.567 -1.5395 -2.0250  1.5512
 8434TIP3    H246794   6.870   1.596   3.627  0.1808 -1.1301 -2.5396
 8435TIP3   OH246795   6.208   5.057  16.601 -0.0189 -0.0264  0.6443
 8435TIP3    H146796   6.242   5.142  16.630  1.2403 -1.2839  3.1352
 8435TIP3    H246797   6.281   5.018  16.552 -0.5752  0.2586 -0.4445
 8436TIP3   OH246798   0.396   2.085   2.036 -0.2976  0.4764 -0.4939
 8436TIP3    H146799   0.337   2.078   2.111 -1.6478  0.6453 -1.5195
 8436TIP3    H246800   0.402   2.179   2.018  1.3478  0.5865  0.3889
 8437TIP3   OH246801   2.049   4.816   5.337 -0.5845  0.1570  0.4610
 8437TIP3    H146802   1.995   4.895   5.336  0.8135  1.1515  0.4090
 8437TIP3    H246803   1.991   4.746   5.305 -1.0898  1.6733 -2.1548
 8438TIP3   OH246804   5.814   4.603   2.363  0.6277  0.2352 -0.2526
 8438TIP3    H146805   5.741   4.554   2.324  0.9284  0.1871 -0.7701
 8438TIP3    H246806   5.842   4.550   2.437  0.8486 -0.3100 -0.7146
 8439TIP3   OH246807   1.075   1.186  16.236  0.0595 -0.0160 -0.2183
 8439TIP3    H146808   1.136   1.121  16.201  0.5030  0.9701 -1.3190
 8439TIP3    H246809   1.121   1.224  16.311  0.4146  0.0589 -0.4713
 8440TIP3   OH246810   5.963   1.520  11.976  0.4077 -0.0106 -0.6960
 8440TIP3    H146811   6.033   1.519  12.041 -0.4065 -0.9037  0.2009
 8440TIP3    H246812   6.009   1.525  11.892  1.5222  0.0188 -0.1026
 8441TIP3   OH246813   2.326   5.423  16.325  0.4862 -0.1126  0.2593
 8441TIP3    H146814   2.353   5.348  16.377  1.2756  1.1400  1.7519
 8441TIP3    H246815   2.326   5.496  16.387  0.0883  1.1873 -1.2090
 8442TIP3   OH246816   4.834   5.185  12.851  0.1475  0.1729  0.3995
 8442TIP3    H146817   4.767   5.150  12.909  0.4388 -0.8930  0.1130
 8442TIP3    H246818   4.911   5.194  12.906  0.0994  0.2582  0.4519
 8443TIP3   OH246819   6.664   0.863   1.798  0.2093 -0.2364 -0.0998
 8443TIP3    H146820   6.737   0.834   1.743  0.6123  0.0276  0.2947
 8443TIP3    H246821   6.587   0.850   1.743  0.4240 -1.6346 -0.0961
 8444TIP3   OH246822   3.280   4.601  16.371 -0.2345  0.6402  0.4124
 8444TIP3    H146823   3.366   4.558  16.377  0.1510  1.2633 -0.3352
 8444TIP3    H246824   3.217   4.529  16.377  0.3898 -0.0518 -0.8008
 8445TIP3   OH246825   3.236   4.339  15.330  0.0796  0.1748 -0.4707
 8445TIP3    H146826   3.144   4.320  15.348  0.5962  0.0127  2.3953
 8445TIP3    H246827   3.284   4.295  15.400  2.3368  0.6513 -1.6157
 8446TIP3   OH246828   1.102   3.870  12.244  0.1229 -0.6148 -0.6861
 8446TIP3    H146829   1.023   3.888  12.297  0.0571 -2.0880 -0.2558
 8446TIP3    H246830   1.152   3.808  12.296  0.1387 -2.0001 -2.2779
 8447TIP3   OH246831   2.605   6.643   3.826  0.1281  0.1510  0.9542
 8447TIP3    H146832   2.694   6.611   3.811  0.2147  0.8731 -0.1973
 8447TIP3    H246833   2.616   6.737   3.842 -0.5099  0.4246 -0.1739
 8448TIP3   OH246834   4.560   4.938  14.915  0.0592 -0.0373  0.3866
 8448TIP3    H146835   4.479   4.952  14.964 -1.6374 -2.0577 -1.6082
 8448TIP3    H246836   4.591   5.026  14.894 -1.0864  0.7905  2.0145
 8449TIP3   OH246837   6.136   1.340   3.519 -0.0959  0.4926  0.0709
 8449TIP3    H146838   6.186   1.377   3.592 -0.4306  0.3765  0.3593
 8449TIP3    H246839   6.149   1.246   3.526 -0.5893  0.4394  0.3213
 8450TIP3   OH246840   4.042   6.604   1.444 -0.1695 -1.0059  0.1735
 8450TIP3    H146841   3.985   6.646   1.508 -0.9186  0.3430 -1.3103
 8450TIP3    H246842   4.121   6.580   1.493  1.0954  3.6995  0.8918
 8451TIP3   OH246843   4.918   6.046  14.775 -0.1390 -0.4595 -0.3557
 8451TIP3    H146844   4.985   6.030  14.708  0.4169 -0.7032  0.2542
 8451TIP3    H246845   4.879   6.130  14.750  0.4862 -0.2463 -0.6439
 8452TIP3   OH246846   6.046   6.538  12.112  0.2986 -0.1072  0.2889
 8452TIP3    H146847   6.081   6.494  12.189 -1.0722 -0.3964  0.7838
 8452TIP3    H246848   6.038   6.470  12.046 -0.7363 -0.3935  0.6815
 8453TIP3   OH246849   1.904   4.105  16.723 -0.5987 -0.2612 -0.3442
 8453TIP3    H146850   1.894   4.161  16.800  2.3435 -1.4475  1.0549
 8453TIP3    H246851   1.957   4.031  16.753 -1.1917 -1.9390 -3.0087
 8454TIP3   OH246852   0.078   3.338   5.685 -0.1149  0.0673 -0.1054
 8454TIP3    H146853   0.093   3.294   5.769  0.1405  1.9182  0.8533
 8454TIP3    H246854   0.051   3.427   5.708 -0.0525  0.6197 -1.9868
 8455TIP3   OH246855   4.326   0.913  17.185  0.5261  0.3453  0.3758
 8455TIP3    H146856   4.341   0.823  17.215  0.7776 -0.3001 -1.5648
 8455TIP3    H246857   4.279   0.903  17.102 -0.0854  2.0443  0.4867
 8456TIP3   OH246858   6.584   0.369   1.397 -0.3062 -0.3179 -0.3510
 8456TIP3    H146859   6.601   0.463   1.409 -1.3587 -0.2026  0.4332
 8456TIP3    H246860   6.618   0.349   1.310  0.4340  0.6683 -0.3017
 8457TIP3   OH246861   4.029   6.498   5.320 -1.0307  0.9258  0.1168
 8457TIP3    H146862   4.062   6.512   5.409 -0.0607  0.2020 -0.1097
 8457TIP3    H246863   3.993   6.410   5.321 -0.8238  0.8336 -0.2559
 8458TIP3   OH246864   4.312   4.715   5.465 -0.2606  0.2643 -0.0871
 8458TIP3    H146865   4.341   4.686   5.379  2.5316  0.7551  0.5929
 8458TIP3    H246866   4.222   4.683   5.472  0.1885 -1.7664 -2.2585
 8459TIP3   OH246867   4.559   0.642  12.332 -0.7177  0.3666 -0.5450
 8459TIP3    H146868   4.621   0.655  12.403 -1.1102 -1.6837  0.2382
 8459TIP3    H246869   4.612   0.650  12.252 -0.2134  2.3354 -0.0827
 8460TIP3   OH246870   2.890   1.001  16.570  0.1862  0.1800  0.4410
 8460TIP3    H146871   2.870   1.090  16.542 -1.1690  0.2864  1.6230
 8460TIP3    H246872   2.877   0.948  16.491 -1.4328  0.7246  0.3046
 8461TIP3   OH246873   0.516   3.311  14.056  0.3092  0.4580 -0.0169
 8461TIP3    H146874   0.543   3.390  14.103  0.8878  1.7683 -2.4214
 8461TIP3    H246875   0.441   3.278  14.106  0.9664  1.6527  1.8692
 8462TIP3   OH246876   2.089   0.080  13.018 -0.4159 -0.0190  0.5974
 8462TIP3    H146877   2.009   0.131  13.023 -0.8902 -0.6981  0.1667
 8462TIP3    H246878   2.124   0.097  12.930 -0.8038 -0.7418  0.2898
 8463TIP3   OH246879   6.680   2.530  15.998 -0.0798  0.8992  0.2523
 8463TIP3    H146880   6.714   2.557  15.913  0.3320  1.3415  0.5531
 8463TIP3    H246881   6.612   2.594  16.019 -2.2277 -0.8096 -1.0277
 8464TIP3   OH246882   3.061   6.200  15.459 -0.1484 -0.8599  0.0294
 8464TIP3    H146883   3.105   6.124  15.421  2.0447  0.9699 -1.4300
 8464TIP3    H246884   3.119   6.227  15.531 -0.6940 -0.3701  0.2930
 8465TIP3   OH246885   6.600   0.844  16.501 -0.4780  0.6729 -0.5635
 8465TIP3    H146886   6.509   0.814  16.500 -0.4253  0.5108 -0.6009
 8465TIP3    H246887   6.627   0.834  16.592 -0.9918  2.2598 -0.2133
 8466TIP3   OH246888   4.619   6.722   0.110 -0.0344 -0.3903 -0.0788
 8466TIP3    H146889   4.548   6.732   0.173 -1.4397  2.1555 -1.8541
 8466TIP3    H246890   4.603   6.637   0.069 -0.0355 -1.3447  1.7857
 8467TIP3   OH246891   3.302   0.392   4.012  0.6258 -0.1235 -0.4068
 8467TIP3    H146892   3.379   0.354   4.054  1.4540  0.9946 -0.8617
 8467TIP3    H246893   3.294   0.479   4.050 -1.9339 -1.0829  1.4851
 8468TIP3   OH246894   1.822   4.101   3.893  1.2426 -0.0812 -0.6407
 8468TIP3    H146895   1.737   4.059   3.881  0.7127  0.7228  0.1375
 8468TIP3    H246896   1.884   4.029   3.895  0.2391 -0.9890  1.7800
 8469TIP3   OH246897   4.036   6.561  12.737 -0.5436  0.2218  0.3817
 8469TIP3    H146898   4.077   6.498  12.678 -0.1723  0.4672  0.3744
 8469TIP3    H246899   4.049   6.646  12.695 -1.0697  0.2982  0.3755
 8470TIP3   OH246900   6.801   5.966  17.282  0.0771  0.2899  0.1457
 8470TIP3    H146901   6.751   6.034  17.326 -1.3194 -0.3922 -0.3256
 8470TIP3    H246902   6.867   6.014  17.231 -0.3658  1.2367  0.4379
 8471TIP3   OH246903   4.900   5.954   5.338  0.1818 -0.2626  0.2311
 8471TIP3    H146904   4.988   5.971   5.306  0.0288 -1.3730 -0.8696
 8471TIP3    H246905   4.910   5.942   5.432  0.9212  1.3606  0.3896
 8472TIP3   OH246906   6.460   3.105   0.327 -0.3254  0.4211  0.3788
 8472TIP3    H146907   6.448   3.032   0.266  1.7488 -0.5219  0.9943
 8472TIP3    H246908   6.407   3.082   0.403  0.5983 -0.6742  0.7174
 8473TIP3   OH246909   1.005   4.974  11.749  0.5006 -0.1950 -0.2781
 8473TIP3    H146910   0.979   4.898  11.800  0.1522  0.0680 -0.0613
 8473TIP3    H246911   1.011   5.046  11.813 -2.0783  0.6647 -0.8702
 8474TIP3   OH246912   5.852   2.543  10.733  0.1516 -0.0379 -0.4525
 8474TIP3    H146913   5.776   2.561  10.788  0.1431 -0.5612 -0.2907
 8474TIP3    H246914   5.927   2.555  10.792  0.3781  2.7614 -1.1472
 8475TIP3   OH246915   0.817   2.562   5.379  0.3939 -0.0713  0.1470
 8475TIP3    H146916   0.911   2.552   5.388  0.3607 -1.1857 -0.4876
 8475TIP3    H246917   0.789   2.482   5.334 -0.6218  0.9829 -1.1929
 8476TIP3   OH246918   1.486   3.785  16.995 -0.7192 -0.4953 -0.5843
 8476TIP3    H146919   1.502   3.814  16.905  0.1246  0.8020 -0.0352
 8476TIP3    H246920   1.529   3.699  17.001  2.1193  0.8210 -0.5220
 8477TIP3   OH246921   5.908   6.305   6.372  0.3962  0.3282  0.1484
 8477TIP3    H146922   5.921   6.359   6.295 -2.9058  2.7043  1.0606
 8477TIP3    H246923   5.980   6.329   6.430  0.7674  1.3860 -0.7194
 8478TIP3   OH246924   2.220   3.131  10.948  0.0213  0.1724  0.0227
 8478TIP3    H146925   2.241   3.224  10.960  0.3628  0.0272  0.6243
 8478TIP3    H246926   2.305   3.089  10.935 -0.1246 -0.0684 -0.1711
 8479TIP3   OH246927   5.364   4.972   5.603  0.9040  0.2471  0.4535
 8479TIP3    H146928   5.332   4.888   5.572 -0.1800  1.1172 -0.9266
 8479TIP3    H246929   5.456   4.957   5.624  0.5073 -1.4671  1.0786
 8480TIP3   OH246930   6.602   1.483  14.083 -0.2340  0.1362 -0.2574
 8480TIP3    H146931   6.513   1.494  14.048  0.2091  2.8691 -0.7277
 8480TIP3    H246932   6.651   1.446  14.010 -0.4089  1.2155 -0.9454
 8481TIP3   OH246933   6.683   3.195  17.152  0.8282 -0.6017  0.2477
 8481TIP3    H146934   6.637   3.202  17.235 -0.2157 -1.1856 -0.2567
 8481TIP3    H246935   6.773   3.220  17.172  0.1632  1.2621  1.1074
 8482TIP3   OH246936   4.608   0.745   3.113 -0.1452 -0.1530  0.4876
 8482TIP3    H146937   4.617   0.682   3.184  0.5443  1.4548  1.8920
 8482TIP3    H246938   4.596   0.691   3.034  3.2166 -2.1441  1.1368
 8483TIP3   OH246939   6.111   1.673   1.054  0.5934 -0.0100  0.1152
 8483TIP3    H146940   6.144   1.664   1.143 -0.0317 -0.0094  0.3536
 8483TIP3    H246941   6.178   1.631   1.000  1.7296  1.3549  0.4199
 8484TIP3   OH246942   0.543   5.646   4.227 -0.3081  0.0705  0.3252
 8484TIP3    H146943   0.486   5.723   4.229 -0.1166  0.2640 -0.8512
 8484TIP3    H246944   0.597   5.654   4.306 -1.2675  0.3625  0.9791
 8485TIP3   OH246945   5.379   2.187   3.768  0.4251  0.1992  0.0377
 8485TIP3    H146946   5.377   2.126   3.842 -0.8481  0.0039 -0.1434
 8485TIP3    H246947   5.292   2.180   3.728  0.9657  0.5735 -1.2615
 8486TIP3   OH246948   2.810   1.209  15.364  0.3220 -0.0704 -0.2334
 8486TIP3    H146949   2.885   1.190  15.421 -1.0737  0.1966  1.8151
 8486TIP3    H246950   2.735   1.170  15.410 -1.2790  2.5425 -0.4501
 8487TIP3   OH246951   1.657   5.535   0.341  0.4001  0.1978  0.1927
 8487TIP3    H146952   1.575   5.566   0.381  0.6834 -0.2781  1.1514
 8487TIP3    H246953   1.668   5.446   0.375  1.0584  0.0759 -0.3343
 8488TIP3   OH246954   5.241   5.064   0.383  0.0718 -0.1297  0.0290
 8488TIP3    H146955   5.200   4.981   0.405  0.6588 -0.5487 -0.4102
 8488TIP3    H246956   5.315   5.040   0.328 -0.6546  0.7942 -1.4006
 8489TIP3   OH246957   0.207   4.231   2.368 -0.0746 -0.2306  0.0559
 8489TIP3    H146958   0.254   4.305   2.407 -0.6897 -0.6315  1.6045
 8489TIP3    H246959   0.161   4.270   2.293  0.4252  0.7372  0.2282
 8490TIP3   OH246960   4.941   1.744  16.284 -0.0646  0.5000 -0.4273
 8490TIP3    H146961   4.864   1.731  16.339 -0.0427  0.2668 -0.4470
 8490TIP3    H246962   4.928   1.829  16.243  0.0713  0.8145  0.1799
 8491TIP3   OH246963   2.231   6.453  10.891 -0.4205 -0.3166 -0.4091
 8491TIP3    H146964   2.178   6.374  10.886 -2.2276  0.8319 -0.3945
 8491TIP3    H246965   2.320   6.421  10.902 -1.1057 -2.3404 -0.2445
 8492TIP3   OH246966   4.683   6.583   5.620  0.4699 -0.4644  0.0083
 8492TIP3    H146967   4.654   6.502   5.662  0.0235 -0.7026 -0.7486
 8492TIP3    H246968   4.612   6.645   5.636  0.6027 -0.3577  0.1875
 8493TIP3   OH246969   3.269   2.892   3.321  0.0774 -0.1865  0.7397
 8493TIP3    H146970   3.218   2.970   3.342  0.8311  0.1487  1.3483
 8493TIP3    H246971   3.209   2.838   3.269 -0.4240  0.8231  0.2457
 8494TIP3   OH246972   5.524   3.024   0.151  0.0160  0.2206 -0.1182
 8494TIP3    H146973   5.587   3.010   0.222 -0.6802  1.2059  0.7144
 8494TIP3    H246974   5.495   3.115   0.162 -1.7718 -0.2994 -0.3165
 8495TIP3   OH246975   0.495   0.570   0.611  0.1671  0.0887  0.2208
 8495TIP3    H146976   0.564   0.572   0.545 -0.5196  0.3524 -0.5223
 8495TIP3    H246977   0.536   0.601   0.691  0.8152  0.6241 -0.3058
 8496TIP3   OH246978   4.494   6.121  15.013 -0.8042 -0.1318 -0.3611
 8496TIP3    H146979   4.562   6.150  15.073 -0.5470  0.7188 -1.0521
 8496TIP3    H246980   4.518   6.031  14.991 -0.9977 -0.5147  0.9271
 8497TIP3   OH246981   3.625   5.812   1.069 -0.3731  0.4056 -0.7023
 8497TIP3    H146982   3.595   5.807   1.160  1.2793 -0.5112 -0.1693
 8497TIP3    H246983   3.657   5.901   1.059 -1.7379  0.9061 -0.8001
 8498TIP3   OH246984   0.107   4.952  13.675  0.0201  0.4559 -0.3377
 8498TIP3    H146985   0.092   4.946  13.581  0.4973 -0.1143 -0.3854
 8498TIP3    H246986   0.072   5.037  13.699  2.0324  1.6678 -1.4520
 8499TIP3   OH246987   1.251   5.993   5.966 -0.2558  0.2241  0.1859
 8499TIP3    H146988   1.177   5.996   5.906 -0.1109  1.2508  0.0481
 8499TIP3    H246989   1.325   5.964   5.912 -0.4451 -0.3257  0.2153
 8500TIP3   OH246990   4.731   5.553  13.617 -0.6233  0.0464 -0.3953
 8500TIP3    H146991   4.724   5.462  13.645 -1.2433  0.6691  1.6243
 8500TIP3    H246992   4.786   5.550  13.539  1.4897 -1.7717  1.0655
 8501TIP3   OH246993   0.722   6.721   1.658 -0.2792 -0.2384  0.0429
 8501TIP3    H146994   0.763   6.644   1.696 -0.3733 -1.1535 -1.5941
 8501TIP3    H246995   0.748   6.793   1.715  0.7406 -1.3070  0.9811
 8502TIP3   OH246996   2.886   6.811  12.580  0.8470 -0.0453 -0.0383
 8502TIP3    H146997   2.871   6.889  12.632 -0.7184  1.0558 -1.9901
 8502TIP3    H246998   2.977   6.789  12.595  1.3174  2.1392  0.6289
 8503TIP3   OH246999   0.337   5.026   6.251 -0.1244  0.3004 -0.3547
 8503TIP3    H147000   0.263   5.033   6.191 -0.4137 -0.5276 -0.1025
 8503TIP3    H247001   0.331   4.938   6.287  0.7684  0.3532 -0.0463
 8504TIP3   OH247002   2.360   3.034   0.509 -0.3111 -0.3185 -0.7807
 8504TIP3    H147003   2.392   3.113   0.466 -0.7762 -0.0417 -0.6189
 8504TIP3    H247004   2.278   3.014   0.465 -0.8383  0.0198  0.0283
 8505TIP3   OH247005   3.561   2.865  12.747  0.3431 -0.1855 -0.1458
 8505TIP3    H147006   3.593   2.905  12.828 -1.0590  2.8713 -0.9468
 8505TIP3    H247007   3.638   2.864  12.690  0.1261  3.6833 -0.8164
 8506TIP3   OH247008   0.423   5.112  14.839  0.0434 -0.2100 -0.3270
 8506TIP3    H147009   0.475   5.188  14.869 -0.3272 -0.2032  0.3223
 8506TIP3    H247010   0.459   5.038  14.887 -0.8564 -0.1280  0.5089
 8507TIP3   OH247011   2.055   2.484  12.848  0.3152 -0.2930 -0.1449
 8507TIP3    H147012   2.095   2.547  12.789 -0.1124  1.0236  0.9046
 8507TIP3    H247013   2.128   2.442  12.893  0.6985 -2.1758 -2.3951
 8508TIP3   OH247014   5.146   0.635   0.338  0.3879 -0.1311 -0.9892
 8508TIP3    H147015   5.074   0.685   0.376  1.9794  2.7746 -1.5296
 8508TIP3    H247016   5.105   0.584   0.268 -1.4100 -0.1105 -0.0081
 8509TIP3   OH247017   4.471   1.094  11.096  0.0860 -0.1803  0.1883
 8509TIP3    H147018   4.398   1.037  11.121 -1.1102  1.6757  1.1656
 8509TIP3    H247019   4.456   1.113  11.003 -0.0671 -0.6393  0.1148
 8510TIP3   OH247020   5.994   6.644  10.780 -0.4446 -0.2029  0.2040
 8510TIP3    H147021   5.994   6.549  10.795  1.7880 -0.5308 -1.3929
 8510TIP3    H247022   5.958   6.654  10.692  2.9517 -0.0314 -1.3088
 8511TIP3   OH247023   0.394   2.489   2.664  0.4365 -0.4067 -0.2090
 8511TIP3    H147024   0.452   2.562   2.642  0.6287 -0.8999 -1.4729
 8511TIP3    H247025   0.375   2.448   2.579 -1.4487 -0.5020  0.2222
 8512TIP3   OH247026   5.874   4.935   4.109  0.9046  0.2454 -0.3863
 8512TIP3    H147027   5.887   4.916   4.203 -0.3396 -0.0280 -0.2504
 8512TIP3    H247028   5.794   4.987   4.106  0.6009 -0.2586 -1.3517
 8513TIP3   OH247029   3.456   1.542   3.915 -0.2084  0.2122  0.2014
 8513TIP3    H147030   3.368   1.537   3.954 -0.4721 -1.7119 -0.5070
 8513TIP3    H247031   3.441   1.580   3.828 -0.4592 -0.6661 -0.1540
 8514TIP3   OH247032   5.776   5.366   6.077  0.2663  0.3063  0.2860
 8514TIP3    H147033   5.849   5.366   6.138  1.7429 -0.2363 -1.3804
 8514TIP3    H247034   5.769   5.457   6.047 -0.4147  0.5581  1.1715
 8515TIP3   OH247035   0.766   1.628  12.719  1.0079 -0.1846  0.3452
 8515TIP3    H147036   0.684   1.582  12.739  1.9706 -1.6725  1.0155
 8515TIP3    H247037   0.738   1.707  12.672 -0.6787 -2.0500 -2.0570
 8516TIP3   OH247038   0.958   6.530   3.836  0.3235 -0.2584  1.0086
 8516TIP3    H147039   0.957   6.558   3.745  0.8587  2.0832  1.6526
 8516TIP3    H247040   1.033   6.470   3.842  0.8261  0.2563  0.0881
 8517TIP3   OH247041   3.887   0.186   3.929  0.0360  0.9311 -0.0710
 8517TIP3    H147042   3.924   0.129   3.997 -0.9222 -2.1771 -1.9449
 8517TIP3    H247043   3.812   0.228   3.972 -2.0479 -2.7864  0.3639
 8518TIP3   OH247044   3.921   2.706   4.882 -0.0362 -0.7318 -0.0855
 8518TIP3    H147045   3.906   2.672   4.970  0.2529 -2.2902 -0.5946
 8518TIP3    H247046   3.913   2.629   4.826  4.3515 -0.7731 -0.9702
 8519TIP3   OH247047   3.447   2.530  10.513  0.4639 -0.5568 -0.7672
 8519TIP3    H147048   3.389   2.545  10.588  1.5166 -0.3056  0.0276
 8519TIP3    H247049   3.393   2.549  10.436 -0.8706 -1.5520 -0.1208
 8520TIP3   OH247050   5.432   5.519   1.104 -0.4244 -0.2420 -0.3787
 8520TIP3    H147051   5.524   5.527   1.130  0.2239 -0.7044 -2.4054
 8520TIP3    H247052   5.391   5.599   1.138  1.2273  1.1031 -1.3804
 8521TIP3   OH247053   5.252   3.729   5.725 -0.9884 -0.1028 -0.0291
 8521TIP3    H147054   5.218   3.680   5.801  0.0787  0.3248  0.7423
 8521TIP3    H247055   5.325   3.676   5.694  0.0664  0.8976  0.7050
 8522TIP3   OH247056   4.589   3.306   3.312 -0.8025  0.1179  0.3226
 8522TIP3    H147057   4.535   3.383   3.330  3.7284  3.2781  2.6672
 8522TIP3    H247058   4.550   3.236   3.362 -3.4250  1.7147  0.6768
 8523TIP3   OH247059   0.852   2.763  16.504 -0.0385  1.0081 -0.4103
 8523TIP3    H147060   0.860   2.801  16.591 -1.6894  2.5026 -0.8496
 8523TIP3    H247061   0.922   2.697  16.500  1.4059  2.3259  1.2720
 8524TIP3   OH247062   2.612   4.329   0.183 -0.0992  0.4259 -0.1488
 8524TIP3    H147063   2.610   4.298   0.092 -0.2463 -2.4701  0.7266
 8524TIP3    H247064   2.554   4.269   0.230  0.1942  1.6666  1.9335
 8525TIP3   OH247065   5.088   1.432  11.002 -0.3987 -0.4634  0.1437
 8525TIP3    H147066   5.034   1.408  11.077  1.8487 -3.9717  0.8426
 8525TIP3    H247067   5.177   1.415  11.030  0.6670 -0.4057 -2.8360
 8526TIP3   OH247068   5.737   2.839   0.568  0.1884 -0.2232  0.4105
 8526TIP3    H147069   5.693   2.905   0.514 -1.2694 -1.8410 -0.4754
 8526TIP3    H247070   5.682   2.830   0.645  1.4261  0.9443  1.4655
 8527TIP3   OH247071   1.155   6.192  12.257 -0.6661  0.2759 -0.2090
 8527TIP3    H147072   1.080   6.251  12.256 -0.4802  0.5197  0.0659
 8527TIP3    H247073   1.183   6.187  12.166 -2.0689 -1.1807 -0.6060
 8528TIP3   OH247074   0.387   1.672   2.699  0.1556  0.1315  0.3546
 8528TIP3    H147075   0.388   1.766   2.680 -3.3211  0.0822 -0.7231
 8528TIP3    H247076   0.295   1.648   2.695  1.0666 -3.7583 -1.6698
 8529TIP3   OH247077   3.188   4.860  13.113 -0.1364 -0.2011 -0.1971
 8529TIP3    H147078   3.262   4.799  13.116 -0.5306 -0.6785  0.0125
 8529TIP3    H247079   3.178   4.880  13.020 -1.5759 -2.4541 -0.6198
 8530TIP3   OH247080   4.946   2.439  14.002  0.5859 -0.3500 -0.0086
 8530TIP3    H147081   4.926   2.481  14.085  2.3356 -0.3829  0.4612
 8530TIP3    H247082   4.880   2.472  13.941 -1.3295 -1.0550  1.5731
 8531TIP3   OH247083   1.527   5.705  12.334 -0.0782  0.2520 -0.4117
 8531TIP3    H147084   1.440   5.723  12.298 -0.9630 -0.9743  0.9867
 8531TIP3    H247085   1.574   5.787  12.325 -1.2868  0.8683 -1.4574
 8532TIP3   OH247086   1.067   3.603   1.832  0.3658 -0.3644 -0.1000
 8532TIP3    H147087   1.141   3.665   1.828  2.0042 -2.1445  0.8280
 8532TIP3    H247088   1.056   3.574   1.742  2.4150 -1.7926  0.0462
 8533TIP3   OH247089   4.745   1.293  14.697 -0.2654 -0.5183 -0.1925
 8533TIP3    H147090   4.666   1.334  14.734  1.6549  1.0861  2.5089
 8533TIP3    H247091   4.714   1.208  14.664 -3.1055 -0.0121  0.8161
 8534TIP3   OH247092   1.488   4.474   4.388  0.2584  0.0073 -0.0057
 8534TIP3    H147093   1.473   4.568   4.385  1.2950  0.1810 -0.2821
 8534TIP3    H247094   1.540   4.461   4.467  2.8220  0.1253 -1.5664
 8535TIP3   OH247095   1.107   1.123   1.573  0.3086  0.0586 -0.1122
 8535TIP3    H147096   1.012   1.125   1.581  0.2605 -1.1547 -0.2035
 8535TIP3    H247097   1.126   1.037   1.535  1.5798 -0.7155  2.0819
 8536TIP3   OH247098   0.849   0.980  13.423 -0.1650  0.2924 -0.6053
 8536TIP3    H147099   0.837   1.073  13.441 -1.2480  0.1299 -0.4261
 8536TIP3    H247100   0.775   0.957  13.367 -0.2142 -0.5860 -0.1953
 8537TIP3   OH247101   3.174   5.193   2.461  0.6328 -0.0904 -0.8472
 8537TIP3    H147102   3.117   5.236   2.398 -0.4715  0.3815  0.4410
 8537TIP3    H247103   3.230   5.263   2.495 -0.1840  0.0759  0.1931
 8538TIP3   OH247104   3.957   1.311   5.079 -0.0247  0.5981  0.7413
 8538TIP3    H147105   3.905   1.384   5.114 -1.7079 -0.2174  0.0298
 8538TIP3    H247106   3.896   1.238   5.075  1.1542 -0.3676 -0.3027
 8539TIP3   OH247107   3.632   2.730  11.394 -0.7157  0.1259  0.6138
 8539TIP3    H147108   3.724   2.709  11.386 -0.6479  0.6952 -0.3675
 8539TIP3    H247109   3.587   2.646  11.398 -0.3884 -0.2818 -2.2478
 8540TIP3   OH247110   0.070   3.579  10.896 -0.7258 -0.2455 -0.3906
 8540TIP3    H147111   0.141   3.516  10.903 -1.2013 -0.7975 -0.4750
 8540TIP3    H247112   0.110   3.663  10.918  0.3803 -0.2396 -2.2251
 8541TIP3   OH247113   1.044   6.322  14.533 -0.6555 -0.4933 -0.1839
 8541TIP3    H147114   0.962   6.337  14.580  0.0137 -2.1214  1.6323
 8541TIP3    H247115   1.080   6.242  14.572  0.8094 -0.9742 -2.3355
 8542TIP3   OH247116   4.669   0.816   0.013 -0.5015  0.4518  0.5747
 8542TIP3    H147117   4.590   0.763   0.023 -0.5822  0.5131  0.2755
 8542TIP3    H247118   4.647   0.900   0.054 -0.1842  0.0792  1.5549
 8543TIP3   OH247119   3.753   2.906  11.059 -0.3655 -0.1243 -0.0020
 8543TIP3    H147120   3.759   2.812  11.038  0.8712 -0.4348  1.5580
 8543TIP3    H247121   3.706   2.944  10.984 -2.2809 -2.1966  0.0362
 8544TIP3   OH247122   2.571   6.633  14.449  0.2896  0.0312  0.0159
 8544TIP3    H147123   2.621   6.703  14.406  1.2757  0.3693  1.6108
 8544TIP3    H247124   2.638   6.572  14.480 -0.3007  0.2613  1.8317
 8545TIP3   OH247125   0.829   2.882   5.126 -0.5568 -0.1847 -0.4987
 8545TIP3    H147126   0.849   2.948   5.059  0.9810 -0.1511 -0.0400
 8545TIP3    H247127   0.746   2.912   5.164  0.1466  1.5816 -0.2344
 8546TIP3   OH247128   1.197   4.701   6.700 -0.1270  0.0629 -0.4159
 8546TIP3    H147129   1.119   4.756   6.694  0.0653  0.2774 -1.0041
 8546TIP3    H247130   1.260   4.754   6.748  0.2307  0.5673 -1.4221
 8547TIP3   OH247131   3.286   5.686   5.396  0.8604 -0.2077  0.0233
 8547TIP3    H147132   3.270   5.592   5.399  0.0071 -0.1894 -2.1285
 8547TIP3    H247133   3.239   5.721   5.472  0.1025 -1.3810  0.1152
 8548TIP3   OH247134   2.829   1.581   0.884 -0.5074  0.2333  0.0255
 8548TIP3    H147135   2.755   1.533   0.920 -0.8959  2.2544  2.2224
 8548TIP3    H247136   2.798   1.617   0.801 -1.0210 -1.1659 -0.4141
 8549TIP3   OH247137   3.941   1.793   4.793  0.0521 -0.2140 -0.1222
 8549TIP3    H147138   4.014   1.770   4.736  0.9193 -0.2035  0.9666
 8549TIP3    H247139   3.874   1.727   4.774  0.9289 -1.1513 -0.0167
 8550TIP3   OH247140   0.937   3.128  15.380 -0.2293  0.0877 -0.2666
 8550TIP3    H147141   0.879   3.053  15.397  0.6531 -0.5463  0.0162
 8550TIP3    H247142   0.878   3.204  15.379 -1.0750 -0.5487 -0.0732
 8551TIP3   OH247143   3.102   1.611  10.844 -0.0578  0.3581 -0.0316
 8551TIP3    H147144   3.188   1.594  10.804 -0.3723 -3.0918  0.3810
 8551TIP3    H247145   3.040   1.606  10.771 -0.1884 -1.0762  0.1397
 8552TIP3   OH247146   0.427   0.328  16.206  0.4793 -0.5696 -0.5770
 8552TIP3    H147147   0.436   0.348  16.113  0.5889  1.0303 -0.2408
 8552TIP3    H247148   0.484   0.390  16.250 -1.0031 -0.0244  0.6692
 8553TIP3   OH247149   1.305   3.616   4.566  0.2275 -0.1622  0.5638
 8553TIP3    H147150   1.265   3.677   4.629 -0.5077 -1.7394  1.7099
 8553TIP3    H247151   1.235   3.555   4.544  0.7422 -0.1947 -1.1188
 8554TIP3   OH247152   3.278   4.587  15.266 -0.3974  0.1310 -0.6255
 8554TIP3    H147153   3.327   4.582  15.184  1.4608 -1.8399  0.5018
 8554TIP3    H247154   3.242   4.499  15.278 -2.5902  0.9985 -0.3988
 8555TIP3   OH247155   1.800   3.304   2.230  0.3906 -0.0626 -0.1262
 8555TIP3    H147156   1.891   3.332   2.222 -0.3870  2.3149 -1.9356
 8555TIP3    H247157   1.798   3.217   2.189  1.7064  0.2277 -0.8496
 8556TIP3   OH247158   4.206   1.365   4.515  0.1435 -0.3558  0.0968
 8556TIP3    H147159   4.266   1.372   4.589 -0.6440  0.9777  0.6595
 8556TIP3    H247160   4.126   1.328   4.552  0.2365 -1.0584 -0.4024
 8557TIP3   OH247161   3.283   5.376   4.403  0.5438 -0.4923  0.4283
 8557TIP3    H147162   3.289   5.285   4.434 -0.9119 -1.5474 -2.0682
 8557TIP3    H247163   3.356   5.385   4.342 -0.2863 -0.5846 -0.6039
 8558TIP3   OH247164   0.999   5.054   0.177 -0.6961  0.3622  0.0388
 8558TIP3    H147165   1.012   5.129   0.235  3.0252 -0.8605  1.0941
 8558TIP3    H247166   0.914   5.018   0.203 -0.9397  2.1292  1.9963
 8559TIP3   OH247167   6.126   3.691   4.802  0.1603 -0.0181  0.3082
 8559TIP3    H147168   6.221   3.685   4.806  0.1428  0.5090  1.9018
 8559TIP3    H247169   6.109   3.783   4.779  0.0337 -0.6698 -2.6230
 8560TIP3   OH247170   3.798   2.319  16.804 -0.1902 -0.6558 -0.1042
 8560TIP3    H147171   3.795   2.247  16.867 -2.2539 -0.1024  0.5131
 8560TIP3    H247172   3.874   2.300  16.749  1.1238 -1.6484  1.9439
 8561TIP3   OH247173   6.413   5.429  16.901  0.3950 -0.7854 -0.0329
 8561TIP3    H147174   6.394   5.425  16.807 -0.0990 -2.7433  0.1250
 8561TIP3    H247175   6.506   5.407  16.907  0.3928 -0.8007 -0.0518
 8562TIP3   OH247176   4.670   3.692  12.061  0.0862  0.7971  0.2185
 8562TIP3    H147177   4.615   3.733  11.995  1.5442  1.0312 -0.9104
 8562TIP3    H247178   4.687   3.762  12.124  0.2154  1.1161 -0.1652
 8563TIP3   OH247179   5.435   3.554  12.932 -0.6759 -0.2073  0.4458
 8563TIP3    H147180   5.360   3.610  12.911  1.1952  1.3619 -2.8306
 8563TIP3    H247181   5.423   3.476  12.878  0.6903  0.7287 -1.3160
 8564TIP3   OH247182   2.967   5.900   2.759  0.8484  0.0833  0.3481
 8564TIP3    H147183   3.062   5.897   2.755  0.9370  1.3129  1.2771
 8564TIP3    H247184   2.946   5.913   2.851 -0.2294 -0.0946  0.1499
 8565TIP3   OH247185   4.574   4.664  16.946  0.6839 -0.1825 -0.7846
 8565TIP3    H147186   4.479   4.674  16.945  0.8427  1.8276 -2.2329
 8565TIP3    H247187   4.601   4.699  17.030  0.2949  1.7137 -1.4007
 8566TIP3   OH247188   2.787   3.025   6.203  0.4357 -0.2204 -0.3072
 8566TIP3    H147189   2.789   3.113   6.240 -1.8822 -1.5970  3.6969
 8566TIP3    H247190   2.747   3.037   6.117  0.1442  2.6240  0.1153
 8567TIP3   OH247191   5.099   4.799  13.784  0.1149  0.3152 -0.1177
 8567TIP3    H147192   5.144   4.761  13.860  0.0141 -0.3053 -0.3590
 8567TIP3    H247193   5.007   4.804  13.812 -0.2278 -1.5519 -0.8000
 8568TIP3   OH247194   4.617   3.732  15.225 -0.6549  0.3963  0.2306
 8568TIP3    H147195   4.672   3.777  15.161  0.6341  0.0693  1.0818
 8568TIP3    H247196   4.637   3.776  15.308 -3.0605  1.5136  0.3141
 8569TIP3   OH247197   0.843   2.086   2.247 -0.5444  0.3020  0.8355
 8569TIP3    H147198   0.888   2.068   2.330 -0.3207  1.3113  0.9463
 8569TIP3    H247199   0.913   2.101   2.184 -0.6885 -1.5864  0.1621
 8570TIP3   OH247200   2.673   5.419   3.475 -0.1771  0.1076 -0.5909
 8570TIP3    H147201   2.718   5.406   3.559 -1.1034  2.2616  0.3050
 8570TIP3    H247202   2.743   5.419   3.410  0.7090 -0.2202  0.3384
 8571TIP3   OH247203   0.516   1.447  13.835  0.4755  0.0315  0.0250
 8571TIP3    H147204   0.572   1.422  13.908  1.6598  1.6250 -0.2831
 8571TIP3    H247205   0.563   1.418  13.757  0.2013  0.1275 -0.1787
 8572TIP3   OH247206   6.049   4.376   4.825 -0.2340  0.0578  0.0415
 8572TIP3    H147207   6.051   4.451   4.884  3.5883 -0.2365  0.5513
 8572TIP3    H247208   6.001   4.408   4.748 -0.6018  2.3066  1.1185
 8573TIP3   OH247209   3.369   5.259  15.058  0.2939  0.1092 -0.2935
 8573TIP3    H147210   3.325   5.343  15.069  0.2633  0.1824 -0.9868
 8573TIP3    H247211   3.297   5.195  15.053  0.2826  0.1760 -0.9618
 8574TIP3   OH247212   4.871   2.856   3.301 -0.3457 -0.2789 -0.3426
 8574TIP3    H147213   4.853   2.787   3.364 -0.3268  1.0356  1.1581
 8574TIP3    H247214   4.800   2.851   3.237 -1.5721 -0.2806  0.9947
 8575TIP3   OH247215   0.970   3.097  13.962 -0.1224  0.3153  0.9464
 8575TIP3    H147216   0.881   3.112  13.993 -0.5456 -0.8974  0.4042
 8575TIP3    H247217   0.996   3.014  14.003 -0.3207 -0.7924 -1.0327
 8576TIP3   OH247218   2.982   0.218   0.563 -0.3498  0.3417  0.1396
 8576TIP3    H147219   2.978   0.187   0.473 -1.1334  0.1484  0.2400
 8576TIP3    H247220   2.967   0.312   0.557 -3.3792 -0.0545  0.3080
 8577TIP3   OH247221   0.634   5.021  13.839  0.2353 -0.0746  0.0504
 8577TIP3    H147222   0.724   4.996  13.818  0.2827  0.3083 -0.2074
 8577TIP3    H247223   0.643   5.083  13.912  0.2423  0.6218 -0.5283
 8578TIP3   OH247224   3.074   3.163  15.155 -0.6994  0.5746 -0.0176
 8578TIP3    H147225   3.098   3.170  15.247  1.3584  1.8042 -0.5779
 8578TIP3    H247226   2.989   3.205  15.149  0.1751  2.6316  0.9986
 8579TIP3   OH247227   2.661   0.240  13.294 -0.5757 -0.1390  0.1444
 8579TIP3    H147228   2.674   0.146  13.307 -0.8194  0.0450  2.0842
 8579TIP3    H247229   2.578   0.259  13.338 -0.3271  1.0494  0.1332
 8580TIP3   OH247230   3.403   0.220   3.795 -0.8937  0.1333  0.4184
 8580TIP3    H147231   3.411   0.308   3.831  0.0609 -0.2928  1.3311
 8580TIP3    H247232   3.446   0.164   3.860  0.4634 -0.7514 -1.1704
 8581TIP3   OH247233   0.254   0.049   5.608 -0.2794  0.3139 -0.5006
 8581TIP3    H147234   0.345   0.023   5.619  0.4260  2.9398  0.6358
 8581TIP3    H247235   0.220   0.057   5.697 -1.8025 -1.0510 -0.9145
 8582TIP3   OH247236   2.942   1.568   3.354 -0.3788  0.1884  0.3756
 8582TIP3    H147237   2.969   1.476   3.360  1.3763  0.5053 -1.6379
 8582TIP3    H247238   2.909   1.588   3.441  0.5902 -1.9275  1.3177
 8583TIP3   OH247239   2.353   3.793   4.925 -0.2860 -0.2953 -0.0822
 8583TIP3    H147240   2.266   3.753   4.932 -2.3834  3.0660 -3.4323
 8583TIP3    H247241   2.387   3.761   4.841  1.1691 -0.4584  0.5376
 8584TIP3   OH247242   1.202   4.266   1.922  0.5041 -0.2563 -0.1346
 8584TIP3    H147243   1.185   4.173   1.936  0.5652 -0.1844  0.4355
 8584TIP3    H247244   1.116   4.308   1.932  0.6335 -0.1442  0.5861
 8585TIP3   OH247245   1.954   3.870  11.410  0.6428 -0.7327 -0.3981
 8585TIP3    H147246   1.929   3.803  11.474 -0.8589  0.0928 -0.0733
 8585TIP3    H247247   1.929   3.953  11.451 -0.0728 -0.1547 -1.9229
 8586TIP3   OH247248   0.981   1.430  17.006  0.1958 -0.8494  0.6322
 8586TIP3    H147249   0.966   1.337  17.020 -0.3114 -1.0502 -1.0171
 8586TIP3    H247250   0.970   1.443  16.911  0.3438  0.8659  0.8025
 8587TIP3   OH247251   0.979   0.945   2.186 -0.3639  0.2467  0.3383
 8587TIP3    H147252   0.955   1.003   2.114 -0.4162  0.1009  0.2364
 8587TIP3    H247253   1.057   0.899   2.155  0.4418  1.1914  0.9261
 8588TIP3   OH247254   1.497   1.868  13.142 -0.3184  0.6398 -0.2276
 8588TIP3    H147255   1.559   1.817  13.089 -2.7258 -0.7604 -1.9066
 8588TIP3    H247256   1.516   1.843  13.232  0.8743 -0.5305 -0.7651
 8589TIP3   OH247257   0.011   6.571   1.069  0.5769  0.0226  0.2073
 8589TIP3    H147258   0.055   6.552   0.986 -0.8671  0.6303 -0.7221
 8589TIP3    H247259  -0.064   6.511   1.071 -0.7957  1.6682 -0.1104
 8590TIP3   OH247260   3.355   5.982   1.965  0.0601 -0.2551 -0.6072
 8590TIP3    H147261   3.354   6.077   1.967  0.0756 -0.2514 -0.7796
 8590TIP3    H247262   3.424   5.960   1.903  1.5248 -0.3885  0.9886
 8591TIP3   OH247263   3.428   0.935  11.333  0.1880  0.4733  0.2753
 8591TIP3    H147264   3.427   1.028  11.312 -1.9236 -0.1292 -3.0494
 8591TIP3    H247265   3.337   0.906  11.324  1.1273 -2.3693 -1.5494
 8592TIP3   OH247266   4.879   3.647   3.064 -0.3347 -0.4188 -0.2370
 8592TIP3    H147267   4.870   3.557   3.096  1.4123 -0.7879 -0.6898
 8592TIP3    H247268   4.884   3.638   2.969 -0.7348  0.2221 -0.3221
 8593TIP3   OH247269   5.148   1.056  15.639  0.2379 -0.9352  0.4049
 8593TIP3    H147270   5.213   1.010  15.693  0.9368 -0.1116  0.2871
 8593TIP3    H247271   5.195   1.132  15.605 -1.4127  1.0584  2.2426
 8594TIP3   OH247272   4.181   1.849  15.795 -0.6757  0.4244  0.0855
 8594TIP3    H147273   4.169   1.940  15.820  0.2510  1.2483 -2.1607
 8594TIP3    H247274   4.267   1.847  15.752 -0.4477 -1.6235  0.5071
 8595TIP3   OH247275   6.541   5.993   2.389 -0.2944  0.1569 -0.2984
 8595TIP3    H147276   6.467   5.993   2.450  0.3341  0.6818  0.4756
 8595TIP3    H247277   6.507   5.947   2.311 -0.9694 -0.9313  0.6005
 8596TIP3   OH247278   3.274   4.727  14.669  0.3960 -0.5177  0.0050
 8596TIP3    H147279   3.339   4.732  14.598 -0.4598  0.3475 -0.7498
 8596TIP3    H247280   3.189   4.729  14.625 -0.2115  2.1712  1.0921
 8597TIP3   OH247281   3.030   6.774  14.495 -0.2597 -0.0802  0.5847
 8597TIP3    H147282   3.049   6.734  14.580  1.2612  0.8624  0.7127
 8597TIP3    H247283   3.004   6.863  14.516 -0.8161 -0.1260  0.1084
 8598TIP3   OH247284   5.307   2.539   1.713 -0.2636 -0.4797 -0.1341
 8598TIP3    H147285   5.388   2.572   1.673 -0.6167 -1.4874 -1.7878
 8598TIP3    H247286   5.336   2.478   1.780  0.3488  1.1344  1.1505
 8599TIP3   OH247287   3.852   2.697   3.009 -0.7627 -0.2391 -0.5570
 8599TIP3    H147288   3.855   2.792   2.996 -1.7713 -0.1802 -0.4379
 8599TIP3    H247289   3.820   2.687   3.099 -0.0476 -0.6903 -0.3505
 8600TIP3   OH247290   6.669   0.518  13.012 -0.2125 -0.6320 -0.1585
 8600TIP3    H147291   6.668   0.449  12.946  1.3870 -0.1524 -0.7476
 8600TIP3    H247292   6.731   0.583  12.977  1.9785 -1.0809  2.5103
 8601TIP3   OH247293   2.259   0.977   1.646  0.1734 -0.4689 -0.2203
 8601TIP3    H147294   2.280   1.012   1.733 -0.5266 -0.4790 -0.0393
 8601TIP3    H247295   2.175   1.017   1.624 -0.3007 -1.4935 -0.3124
 8602TIP3   OH247296   6.735   4.521  15.875 -0.0255  0.3963 -0.1368
 8602TIP3    H147297   6.711   4.600  15.828  2.6865  1.4730  0.1146
 8602TIP3    H247298   6.825   4.502  15.848  0.2113 -1.2889  1.5294
 8603TIP3   OH247299   4.024   6.775  13.703 -0.2351  0.6237 -0.6523
 8603TIP3    H147300   4.003   6.867  13.686 -1.4106  0.6339  0.6487
 8603TIP3    H247301   4.018   6.767  13.798  3.1438 -0.0564 -0.3699
 8604TIP3   OH247302   1.159   5.784  15.376  0.0875 -0.2822 -0.6058
 8604TIP3    H147303   1.169   5.702  15.329 -0.9013  0.8181 -2.8913
 8604TIP3    H247304   1.090   5.768  15.440  1.3259 -1.7624  0.4250
 8605TIP3   OH247305   5.716   3.040   5.225  0.6690 -0.0867  0.0155
 8605TIP3    H147306   5.673   3.041   5.140 -0.7522  0.3200  0.7137
 8605TIP3    H247307   5.754   2.952   5.232  2.9508  0.6312 -2.0241
 8606TIP3   OH247308   2.773   3.404   1.378 -0.0749  0.0615 -0.5535
 8606TIP3    H147309   2.690   3.436   1.413 -0.1044  1.5032 -1.8469
 8606TIP3    H247310   2.767   3.309   1.386 -0.3133  0.2322  2.6989
 8607TIP3   OH247311   6.230   0.533  17.118 -0.4827 -0.1134 -0.4605
 8607TIP3    H147312   6.309   0.487  17.091 -0.5982  0.3121 -1.5730
 8607TIP3    H247313   6.172   0.529  17.042 -1.8416 -1.0631  0.5836
 8608TIP3   OH247314   0.658   1.865   3.559  0.0745 -0.0159  0.1340
 8608TIP3    H147315   0.707   1.788   3.587  1.4752  0.8561  0.1448
 8608TIP3    H247316   0.658   1.860   3.463 -1.1172 -0.7857  0.1522
 8609TIP3   OH247317   4.405   5.494  13.540 -0.0784 -0.0589  0.4760
 8609TIP3    H147318   4.309   5.500  13.541 -0.1247 -0.7806  1.0284
 8609TIP3    H247319   4.426   5.429  13.607  0.8471  0.6905  0.9349
 8610TIP3   OH247320   6.385   2.167   5.307 -0.2999  0.2777 -0.2416
 8610TIP3    H147321   6.476   2.181   5.280 -0.5242 -0.1771 -1.3059
 8610TIP3    H247322   6.338   2.156   5.224 -1.1859 -0.3210  0.3306
 8611TIP3   OH247323   4.306   5.501  15.247 -0.5555  0.6945  0.4896
 8611TIP3    H147324   4.234   5.534  15.302 -0.2125  0.0432  1.3588
 8611TIP3    H247325   4.330   5.418  15.287 -1.3757 -0.6293 -1.6201
 8612TIP3   OH247326   2.237   3.464  16.825  0.3064 -0.1261 -0.5745
 8612TIP3    H147327   2.290   3.512  16.888 -0.6928 -0.2746  0.3903
 8612TIP3    H247328   2.156   3.513  16.818 -0.0337 -0.7199 -0.9066
 8613TIP3   OH247329   4.124   3.485   4.391 -0.3938 -0.2250  0.3937
 8613TIP3    H147330   4.196   3.425   4.409 -0.8498 -0.6616  0.7886
 8613TIP3    H247331   4.047   3.429   4.384 -0.7806  0.2880  0.4807
 8614TIP3   OH247332   6.215   6.541  14.357 -0.1514 -0.2709 -0.2098
 8614TIP3    H147333   6.237   6.621  14.310  1.8372  0.4821  1.8224
 8614TIP3    H247334   6.132   6.561  14.400  0.3092  0.7197  0.2531
 8615TIP3   OH247335   2.780   0.926   0.999 -0.0316 -0.7267 -0.0488
 8615TIP3    H147336   2.857   0.959   1.045 -0.1166 -0.7593  0.1185
 8615TIP3    H247337   2.722   0.896   1.069 -1.3855  1.7852  0.0299
 8616TIP3   OH247338   5.194   3.241   0.288  0.3120 -0.4269  0.0055
 8616TIP3    H147339   5.233   3.243   0.201  0.3364 -0.4778  0.0154
 8616TIP3    H247340   5.138   3.318   0.291  0.0261 -0.6272 -0.1850
 8617TIP3   OH247341   4.482   6.732  14.446 -0.5296 -0.4128  0.2277
 8617TIP3    H147342   4.499   6.791  14.373  0.2151  0.0991  0.7956
 8617TIP3    H247343   4.534   6.768  14.518 -1.6724 -0.5958  1.1656
 8618TIP3   OH247344   6.093   3.842   2.974 -0.0908  0.1788  0.2365
 8618TIP3    H147345   6.034   3.816   3.045 -1.2651  1.5183 -0.2081
 8618TIP3    H247346   6.157   3.900   3.016 -0.5547  0.6657  0.2694
 8619TIP3   OH247347   0.427   5.629   3.161 -0.6368 -0.2621 -0.1212
 8619TIP3    H147348   0.462   5.717   3.144 -2.7998  1.4503  3.1122
 8619TIP3    H247349   0.404   5.595   3.075 -0.4380  2.7050 -1.4666
 8620TIP3   OH247350   0.785   2.771  12.021 -0.0302  0.0597 -0.8831
 8620TIP3    H147351   0.871   2.813  12.021 -0.5048  1.1227  0.7635
 8620TIP3    H247352   0.738   2.809  11.947  0.1388  1.1890 -0.4209
 8621TIP3   OH247353   3.617   2.644   5.603  0.2936  0.0186  0.1215
 8621TIP3    H147354   3.588   2.565   5.648 -0.4652  0.2348  0.0357
 8621TIP3    H247355   3.542   2.703   5.608  0.6013  0.4678 -0.4286
 8622TIP3   OH247356   1.817   5.562   3.865 -0.2729 -0.3347  0.2072
 8622TIP3    H147357   1.743   5.551   3.805 -0.3669 -0.6196  0.3746
 8622TIP3    H247358   1.895   5.546   3.811 -0.3487 -0.4129  0.1220
 8623TIP3   OH247359   5.264   2.475   2.702 -0.1376  0.0392 -0.1643
 8623TIP3    H147360   5.239   2.466   2.794 -0.9330 -0.8061 -0.4532
 8623TIP3    H247361   5.240   2.565   2.680 -0.3020  0.1257  0.3490
 8624TIP3   OH247362   4.654   5.427   0.459  0.1920 -0.1020  0.1552
 8624TIP3    H147363   4.584   5.448   0.521 -0.2915  0.0116 -0.4204
 8624TIP3    H247364   4.732   5.468   0.496 -0.3742  1.1716 -0.0264
 8625TIP3   OH247365   1.988   0.469  14.887 -0.1440  0.3076 -0.4654
 8625TIP3    H147366   2.066   0.491  14.835 -2.0548  0.5210 -3.4896
 8625TIP3    H247367   1.915   0.489  14.829 -2.5186  0.3889  2.3476
 8626TIP3   OH247368   3.972   0.919  16.947 -0.0351 -0.7147  0.1108
 8626TIP3    H147369   4.067   0.928  16.945 -0.1512  1.0950 -2.3050
 8626TIP3    H247370   3.943   0.970  17.022  0.8467  0.0054 -0.0257
 8627TIP3   OH247371   6.530   0.313  16.699  1.2027 -0.2374 -0.3563
 8627TIP3    H147372   6.547   0.256  16.773  0.3178 -0.8432 -0.6097
 8627TIP3    H247373   6.617   0.335  16.666  1.5758 -0.7272  0.2769
 8628TIP3   OH247374   5.872   3.413   3.661  0.9846 -0.3442 -0.1775
 8628TIP3    H147375   5.826   3.335   3.692  0.4390 -0.3091 -0.8511
 8628TIP3    H247376   5.859   3.411   3.566  0.2454  0.9892 -0.1316
 8629TIP3   OH247377   2.145   3.884   0.744 -0.0218  0.5016  0.0817
 8629TIP3    H147378   2.153   3.806   0.799 -0.0199  0.8545  0.5915
 8629TIP3    H247379   2.226   3.887   0.694  0.7622  1.1261  1.3332
 8630TIP3   OH247380   5.235   4.030  12.714 -0.5329  0.0168 -0.3583
 8630TIP3    H147381   5.230   4.017  12.620 -1.8315 -0.3276 -0.2514
 8630TIP3    H247382   5.202   4.118  12.729 -0.6786 -0.0649 -0.1908
 8631TIP3   OH247383   3.490   5.043  12.068 -0.7867 -0.4101 -0.2181
 8631TIP3    H147384   3.575   5.060  12.027  0.6175 -0.6800  2.3700
 8631TIP3    H247385   3.456   5.129  12.091 -1.9069 -0.2074 -2.4173
 8632TIP3   OH247386   3.153   1.568  12.343  0.5996  0.5374 -0.0946
 8632TIP3    H147387   3.059   1.585  12.339  0.3605 -0.1266  1.7309
 8632TIP3    H247388   3.160   1.482  12.384  2.0249  2.2051  3.6424
 8633TIP3   OH247389   4.367   3.958   5.923 -0.2019 -0.2184 -0.3177
 8633TIP3    H147390   4.396   3.871   5.949 -1.5623 -0.8701 -0.8289
 8633TIP3    H247391   4.337   3.946   5.832  0.4264  0.9951 -0.7048
 8634TIP3   OH247392   4.614   0.765   4.627  0.2324  0.4643  0.3675
 8634TIP3    H147393   4.610   0.682   4.676  1.1266  0.9306  1.2676
 8634TIP3    H247394   4.554   0.752   4.554  0.5824 -1.0957  0.3178
 8635TIP3   OH247395   2.233   1.150  12.841  0.2506  0.3419 -0.1591
 8635TIP3    H147396   2.149   1.182  12.809  0.4704  1.2116  0.1116
 8635TIP3    H247397   2.252   1.205  12.917  0.8010 -0.2172  0.1161
 8636TIP3   OH247398   6.420   6.697   4.186 -0.4550 -0.6144  0.4189
 8636TIP3    H147399   6.388   6.753   4.257 -1.4004 -0.9488  0.2782
 8636TIP3    H247400   6.389   6.740   4.106  0.2888 -0.4361  0.2164
 8637TIP3   OH247401   5.865   0.067  12.998  0.2068  0.3716 -0.1585
 8637TIP3    H147402   5.958   0.043  12.990  0.4176  1.2366 -0.4078
 8637TIP3    H247403   5.818  -0.013  12.973  0.8761 -0.2602  0.5163
 8638TIP3   OH247404   2.961   0.440  17.186 -0.5321  0.0649 -0.2074
 8638TIP3    H147405   3.014   0.511  17.221 -0.6507 -0.7540  1.8091
 8638TIP3    H247406   2.871   0.464  17.207 -0.6902 -0.0425 -0.7451
 8639TIP3   OH247407   6.741   6.050  16.268  0.3204  0.0504 -0.2422
 8639TIP3    H147408   6.732   6.090  16.181  2.6958  1.2554  0.0014
 8639TIP3    H247409   6.680   6.098  16.323  0.4678  0.8523 -0.7559
 8640TIP3   OH247410   4.760   4.323   6.601 -0.1739 -0.0767  0.4769
 8640TIP3    H147411   4.758   4.262   6.675 -1.8132  1.8859  2.1736
 8640TIP3    H247412   4.830   4.385   6.623 -2.0960  1.8136  1.6054
 8641TIP3   OH247413   6.810   4.501  15.529  0.2930  0.1800  0.1977
 8641TIP3    H147414   6.904   4.502  15.510  0.7345  2.2625  2.0842
 8641TIP3    H247415   6.789   4.409  15.545  1.8162 -0.4128 -1.0106
 8642TIP3   OH247416   4.289   4.465  16.565  0.1823 -0.0237 -0.2957
 8642TIP3    H147417   4.249   4.518  16.497  0.6481 -1.4785 -1.7660
 8642TIP3    H247418   4.284   4.375  16.532  1.4752 -0.6404  1.0469
 8643TIP3   OH247419   0.262   4.491  16.707 -0.1103  0.0222  0.4465
 8643TIP3    H147420   0.342   4.497  16.758 -0.5869 -0.4596  1.2712
 8643TIP3    H247421   0.287   4.518  16.619  1.1171 -0.8127  0.5199
 8644TIP3   OH247422   6.712   0.906  16.150 -0.4241 -0.9682 -0.0933
 8644TIP3    H147423   6.743   0.981  16.101 -0.8288 -0.6069  0.1963
 8644TIP3    H247424   6.739   0.830  16.098  2.0893 -0.7553  0.7883
 8645TIP3   OH247425   2.223   2.647  13.779 -0.7604  0.3048 -0.3647
 8645TIP3    H147426   2.151   2.674  13.835 -2.2246  0.8329 -2.3672
 8645TIP3    H247427   2.255   2.729  13.740  0.7705  0.0472  0.2882
 8646TIP3   OH247428   5.319   3.450  13.198 -0.4534 -0.4351  0.1717
 8646TIP3    H147429   5.360   3.477  13.116  0.3381 -0.0827  0.6721
 8646TIP3    H247430   5.322   3.355  13.195 -0.0847 -0.4218 -0.0441
 8647TIP3   OH247431   2.563   2.479   3.695  0.1006  0.7986  0.5537
 8647TIP3    H147432   2.497   2.535   3.655 -0.6686 -0.7409 -0.4511
 8647TIP3    H247433   2.516   2.398   3.716  1.2225  0.4107  1.6922
 8648TIP3   OH247434   1.668   1.541   1.051 -0.5519 -0.4308 -0.1341
 8648TIP3    H147435   1.585   1.506   1.018 -1.9989  0.0786  2.6451
 8648TIP3    H247436   1.669   1.632   1.023 -1.2290 -0.2963  0.2516
 8649TIP3   OH247437   6.744   6.236  14.422  0.1594  0.6930 -0.2961
 8649TIP3    H147438   6.668   6.290  14.399 -0.1767 -0.0024 -0.8414
 8649TIP3    H247439   6.759   6.181  14.345 -0.5825 -1.2214  0.8537
 8650TIP3   OH247440   6.155   2.103   3.216  0.0051  0.2080 -0.0812
 8650TIP3    H147441   6.176   2.196   3.223 -1.9933  0.6162  1.5042
 8650TIP3    H247442   6.232   2.064   3.175  1.4274  2.3490  0.3812
 8651TIP3   OH247443   3.575   0.429   3.936  0.7949  0.3784 -0.8610
 8651TIP3    H147444   3.553   0.500   3.996 -0.7709  0.7160 -1.7977
 8651TIP3    H247445   3.578   0.351   3.992 -0.0190  0.7863 -0.2299
 8652TIP3   OH247446   2.877   4.484  10.832  0.0711  0.0684 -0.0265
 8652TIP3    H147447   2.832   4.420  10.887  1.6766 -3.0243 -2.0602
 8652TIP3    H247448   2.961   4.499  10.876 -0.8298  2.0176  1.1758
 8653TIP3   OH247449   4.185   6.787  12.663  0.4741  0.2014  0.1793
 8653TIP3    H147450   4.194   6.881  12.644  0.7893  0.4026  1.2706
 8653TIP3    H247451   4.265   6.764  12.709 -1.1099  0.2666  3.2524
 8654TIP3   OH247452   6.366   0.462  13.832  0.7033  0.4813  0.0234
 8654TIP3    H147453   6.284   0.418  13.855 -0.3202  2.4613  0.4004
 8654TIP3    H247454   6.429   0.427  13.895  0.2730 -1.3432 -0.5010
 8655TIP3   OH247455   6.764   1.353   4.438  0.3179  0.3544 -0.0584
 8655TIP3    H147456   6.669   1.342   4.435  0.4923 -1.3093 -2.4052
 8655TIP3    H247457   6.787   1.378   4.349  2.1557 -0.1964  0.2303
 8656TIP3   OH247458   6.224   6.690   4.963  0.2228 -0.2884 -0.1798
 8656TIP3    H147459   6.245   6.776   4.925 -1.1385  0.3106  0.3449
 8656TIP3    H247460   6.131   6.677   4.943  0.4861 -1.8002 -0.5263
 8657TIP3   OH247461   2.560   4.695  14.875  0.0283  0.5154 -0.3161
 8657TIP3    H147462   2.653   4.714  14.885 -0.2949  1.9873  0.1086
 8657TIP3    H247463   2.533   4.748  14.800 -0.7604  1.2677  0.4735
 8658TIP3   OH247464   6.681   1.824   3.398  0.0584 -0.4761 -0.6472
 8658TIP3    H147465   6.635   1.906   3.381  2.2191  0.8758 -0.3037
 8658TIP3    H247466   6.689   1.819   3.493 -0.5023 -1.3683 -0.6335
 8659TIP3   OH247467   5.988   4.527   3.171  0.2401  0.1321  0.0115
 8659TIP3    H147468   6.054   4.500   3.107  0.6098 -2.7627  1.4340
 8659TIP3    H247469   5.904   4.504   3.132  0.5536 -4.0582  1.3470
 8660TIP3   OH247470   6.000   2.026  11.736 -0.4976 -0.1307  0.3709
 8660TIP3    H147471   5.987   1.956  11.800 -1.9627  0.5453  0.8554
 8660TIP3    H247472   6.082   2.068  11.762  0.7873 -2.0581 -0.3475
 8661TIP3   OH247473   0.992   1.890   3.074 -0.1570 -0.4111 -0.3359
 8661TIP3    H147474   0.982   1.906   2.980  1.2772 -1.2668 -0.6603
 8661TIP3    H247475   1.012   1.976   3.111 -0.7433 -0.0655 -0.7881
 8662TIP3   OH247476   1.527   0.541   1.090 -0.3592  0.1429 -0.3012
 8662TIP3    H147477   1.492   0.617   1.137 -0.2011  0.1996 -0.2718
 8662TIP3    H247478   1.574   0.492   1.158 -0.1187  0.2322 -0.4036
 8663TIP3   OH247479   0.174   2.291   2.870 -0.3864 -1.1334 -0.4275
 8663TIP3    H147480   0.224   2.260   2.795  1.0084  0.1157 -0.0504
 8663TIP3    H247481   0.239   2.304   2.939 -1.5163 -1.3871  0.7222
 8664TIP3   OH247482   2.887   4.527   5.091  0.4543 -0.1529  0.2090
 8664TIP3    H147483   2.960   4.589   5.090  0.7173 -0.4423  0.8285
 8664TIP3    H247484   2.900   4.473   5.013  1.3343 -0.6873  0.7130
 8665TIP3   OH247485   0.486   1.337   0.667  0.1134  0.1951  0.0342
 8665TIP3    H147486   0.565   1.345   0.721  0.2324  0.1655 -0.1321
 8665TIP3    H247487   0.501   1.397   0.594  0.3366 -0.3967 -0.4166
 8666TIP3   OH247488   2.905   2.021  16.061  0.0061  0.8673  0.3816
 8666TIP3    H147489   2.919   1.964  15.985 -0.5920  1.2454 -0.0145
 8666TIP3    H247490   2.811   2.033  16.065  0.1589  2.4138  0.0215
 8667TIP3   OH247491   5.679   6.804   3.697  0.1556 -0.2966  0.0875
 8667TIP3    H147492   5.656   6.896   3.707  1.5181  0.1181 -0.3034
 8667TIP3    H247493   5.680   6.769   3.786 -1.2951 -0.1888  0.1611
 8668TIP3   OH247494   4.913   6.061   4.354  0.5592 -0.3362  0.1954
 8668TIP3    H147495   4.992   6.114   4.365 -0.0576  0.7769 -0.4898
 8668TIP3    H247496   4.911   6.040   4.261  1.1350 -2.1460  0.5731
 8669TIP3   OH247497   3.914   4.370  17.045  0.1562 -0.0208  1.1623
 8669TIP3    H147498   3.966   4.447  17.021 -0.6715  0.0585 -0.4978
 8669TIP3    H247499   3.961   4.332  17.119  1.7836  0.8431  0.6253
 8670TIP3   OH247500   0.917   3.754  16.595  0.3036 -0.3441  0.2948
 8670TIP3    H147501   0.912   3.769  16.690  0.8819 -3.3931  0.9197
 8670TIP3    H247502   0.884   3.665  16.584 -1.2751  0.4832 -2.6254
 8671TIP3   OH247503   1.451   1.862   0.626 -0.5129  0.5052  0.3438
 8671TIP3    H147504   1.359   1.885   0.627 -0.2888  1.4363  0.1724
 8671TIP3    H247505   1.463   1.815   0.543 -0.9346 -0.1022  0.6173
 8672TIP3   OH247506   0.446   0.143   4.663 -0.4357  0.4620 -0.5678
 8672TIP3    H147507   0.366   0.174   4.706 -0.3668 -1.6475  1.2763
 8672TIP3    H247508   0.500   0.109   4.735  0.9183 -0.6787 -2.0554
 8673TIP3   OH247509   6.247   1.559   2.479  0.0011  0.0938 -0.1869
 8673TIP3    H147510   6.182   1.537   2.412  0.2061  0.2910 -0.4528
 8673TIP3    H247511   6.305   1.483   2.480  0.2589  0.2792 -0.5572
 8674TIP3   OH247512   4.241   0.690  15.236 -0.0957 -0.0511  0.7320
 8674TIP3    H147513   4.325   0.720  15.273 -1.0152  1.7013  1.5257
 8674TIP3    H247514   4.264   0.612  15.186  2.1682  0.8652  0.2018
 8675TIP3   OH247515   3.795   4.741   3.934  0.0725 -0.3066  0.1712
 8675TIP3    H147516   3.799   4.669   3.998  0.1132 -1.6207 -1.2396
 8675TIP3    H247517   3.857   4.715   3.866 -1.1146  0.2659 -1.1669
 8676TIP3   OH247518   1.455   0.335  16.097  0.0936 -0.4247  0.3608
 8676TIP3    H147519   1.540   0.364  16.063 -0.1977  0.7454  0.5605
 8676TIP3    H247520   1.398   0.331  16.020  0.4172 -1.5792  0.1741
 8677TIP3   OH247521   1.276   3.442  11.993 -1.1273  0.0212 -0.3716
 8677TIP3    H147522   1.221   3.516  11.966 -2.1826  0.2174  2.0342
 8677TIP3    H247523   1.365   3.477  11.992 -1.1745  0.2249 -2.6165
 8678TIP3   OH247524   3.997   5.965   5.849  0.1449  0.3646 -1.0131
 8678TIP3    H147525   3.995   6.060   5.853 -1.8138  0.3624 -1.3318
 8678TIP3    H247526   3.948   5.936   5.925  0.8519 -0.4198 -0.8352
 8679TIP3   OH247527   6.113   1.956   1.946 -0.2750  0.0810 -0.5985
 8679TIP3    H147528   6.045   2.011   1.906 -2.5589 -2.0529  0.0872
 8679TIP3    H247529   6.076   1.931   2.031  2.0482 -0.0148  0.4644
 8680TIP3   OH247530   0.434   3.449  11.228 -0.5798  0.0659  0.5723
 8680TIP3    H147531   0.387   3.396  11.164  0.2323  0.7174 -0.6092
 8680TIP3    H247532   0.472   3.521  11.177  0.5903  0.2822  1.6742
 8681TIP3   OH247533   4.419   3.860  11.534  0.2785  0.2422  0.2024
 8681TIP3    H147534   4.343   3.822  11.490 -0.1100  0.7980  0.3968
 8681TIP3    H247535   4.481   3.877  11.463 -0.4122  1.2964 -0.1730
 8682TIP3   OH247536   1.999   6.705   1.253  0.4163  0.0914  0.2756
 8682TIP3    H147537   2.028   6.729   1.165  1.0317 -0.4007  0.3358
 8682TIP3    H247538   2.077   6.666   1.294 -0.0191 -0.1919  0.8448
 8683TIP3   OH247539   2.333   2.068   1.026  0.0628 -0.0975  0.3991
 8683TIP3    H147540   2.283   2.141   0.989  2.4206  0.5903 -1.6856
 8683TIP3    H247541   2.353   2.095   1.116 -1.3634  0.5756  0.5471
 8684TIP3   OH247542   5.066   1.625   5.640  0.1657 -0.2391  0.1731
 8684TIP3    H147543   5.159   1.649   5.646  0.2828 -0.5677 -0.2928
 8684TIP3    H247544   5.060   1.541   5.685  0.0085 -0.0089  0.5891
 8685TIP3   OH247545   4.618   2.073   2.172 -0.4728 -0.5263 -0.4079
 8685TIP3    H147546   4.702   2.093   2.212 -0.8090 -0.7213  0.4148
 8685TIP3    H247547   4.566   2.153   2.184 -0.7632 -0.7782  0.0723
 8686TIP3   OH247548   2.541   0.842   2.400  0.2672 -0.3155 -0.6283
 8686TIP3    H147549   2.476   0.772   2.393  0.5444 -0.5966 -0.4660
 8686TIP3    H247550   2.625   0.796   2.405  0.4693  0.0376 -0.7296
 8687TIP3   OH247551   1.681   4.933   1.799  0.1057 -0.2224 -0.3440
 8687TIP3    H147552   1.618   4.976   1.742 -0.0141 -0.5434 -0.4545
 8687TIP3    H247553   1.749   4.999   1.814 -0.7655  0.4961  0.6109
 8688TIP3   OH247554   0.933   1.078  15.773 -0.2405  0.2403  0.0622
 8688TIP3    H147555   0.974   1.161  15.798 -0.4553  0.9209 -1.6609
 8688TIP3    H247556   0.843   1.084  15.806 -0.2857  0.7684 -0.1406
 8689TIP3   OH247557   0.727   5.672   2.370  0.1827  1.0035  0.9499
 8689TIP3    H147558   0.673   5.614   2.317 -0.0235  0.4040  1.8009
 8689TIP3    H247559   0.690   5.666   2.458  1.7218  0.4278  1.5953
 8690TIP3   OH247560   4.277   3.272   5.133 -0.5219  0.1933  0.1858
 8690TIP3    H147561   4.344   3.338   5.117 -0.1908 -0.1108  0.3030
 8690TIP3    H247562   4.227   3.269   5.052 -1.6358  1.8181  0.7771
 8691TIP3   OH247563   0.409   6.524  12.884 -0.2716 -0.0864 -0.5185
 8691TIP3    H147564   0.406   6.429  12.872 -0.7661 -0.2195  0.5601
 8691TIP3    H247565   0.463   6.555  12.812 -0.9508 -1.0796 -1.4891
 8692TIP3   OH247566   3.777   6.525   0.387 -0.4778  0.2691 -0.2556
 8692TIP3    H147567   3.697   6.494   0.345 -0.6122 -0.4725  0.5135
 8692TIP3    H247568   3.847   6.481   0.340 -0.7286 -3.1221  2.1628
 8693TIP3   OH247569   0.827   2.081  16.773 -0.1817  0.4258 -0.2730
 8693TIP3    H147570   0.811   2.009  16.835  2.3538 -1.4714 -1.6210
 8693TIP3    H247571   0.902   2.128  16.811  1.6964 -1.0328 -1.9740
 8694TIP3   OH247572   0.742   0.822   3.228  0.2978 -0.7507 -0.6515
 8694TIP3    H147573   0.827   0.858   3.255 -1.0262  0.7738  1.7883
 8694TIP3    H247574   0.757   0.728   3.219  2.4051 -0.4210 -1.0998
 8695TIP3   OH247575   6.621   3.868  13.080  0.9867  0.0827 -0.1715
 8695TIP3    H147576   6.702   3.818  13.088  1.4102  0.9504  1.2290
 8695TIP3    H247577   6.619   3.923  13.158 -1.5239 -0.7383  0.4261
 8696TIP3   OH247578   3.636   0.320   1.305  0.5257  0.3716  0.0794
 8696TIP3    H147579   3.705   0.253   1.308 -0.7160 -1.0782 -1.5627
 8696TIP3    H247580   3.648   0.362   1.219  0.1749  1.0313  0.3472
 8697TIP3   OH247581   3.388   2.666  10.983 -0.0776  0.4031  0.4546
 8697TIP3    H147582   3.334   2.725  10.930  2.1846  0.7833 -1.6226
 8697TIP3    H247583   3.417   2.720  11.057  0.8474  1.5415 -0.6890
 8698TIP3   OH247584   1.714   4.492  11.819 -0.5423 -0.0476  0.3429
 8698TIP3    H147585   1.780   4.425  11.839 -0.9617 -1.1627 -1.6601
 8698TIP3    H247586   1.757   4.575  11.837  1.5713 -0.7230 -1.1474
 8699TIP3   OH247587   4.080   5.424  14.771 -0.2339  0.2358  0.6399
 8699TIP3    H147588   4.003   5.400  14.822 -0.2452 -1.1013  0.0403
 8699TIP3    H247589   4.103   5.344  14.723  0.3602  1.1717 -0.6937
 8700TIP3   OH247590   4.927   4.679  12.060 -0.0224  0.4304  0.3807
 8700TIP3    H147591   4.943   4.718  11.974  1.0591  0.0627  0.3967
 8700TIP3    H247592   4.974   4.737  12.121 -1.8535  1.4361  0.9052
 8701TIP3   OH247593   4.642   4.602  15.783 -0.2278 -0.4697 -0.5163
 8701TIP3    H147594   4.634   4.534  15.850  3.1861  0.3082  0.8447
 8701TIP3    H247595   4.622   4.684  15.828  2.7403  0.1391 -0.1166
 8702TIP3   OH247596   6.444   0.605   3.042 -0.7367  0.6858  0.5235
 8702TIP3    H147597   6.461   0.641   3.129 -0.0897  2.7438 -0.3814
 8702TIP3    H247598   6.522   0.553   3.022 -0.5816  0.7697  0.8947
 8703TIP3   OH247599   0.435   6.532  15.608  0.0601 -0.4090 -0.2057
 8703TIP3    H147600   0.463   6.531  15.700  2.7388  1.2499 -0.8967
 8703TIP3    H247601   0.407   6.442  15.591  0.9659 -1.1432  1.8265
 8704TIP3   OH247602   0.463   0.277   5.933  0.5088  0.4544  0.0105
 8704TIP3    H147603   0.374   0.256   5.961  0.5521  0.9987  0.5811
 8704TIP3    H247604   0.506   0.192   5.924 -0.1976  0.1693 -0.7194
 8705TIP3   OH247605   2.045   3.322  13.259  0.2838  0.6825 -0.7078
 8705TIP3    H147606   1.983   3.289  13.324 -0.2029  0.5254 -1.2389
 8705TIP3    H247607   2.077   3.405  13.295  0.2946  0.4267 -0.1097
 8706TIP3   OH247608   3.807   5.319  11.826 -0.1985  1.1718  0.4864
 8706TIP3    H147609   3.842   5.359  11.747  0.5495 -1.4589 -0.6399
 8706TIP3    H247610   3.880   5.317  11.887  0.0371  0.7327  0.1989
 8707TIP3   OH247611   2.028   2.063   2.954 -0.5845 -0.2981  0.1703
 8707TIP3    H147612   2.061   1.995   2.896  0.2593 -0.1365  0.4337
 8707TIP3    H247613   1.949   2.027   2.993  0.4835 -1.6190  1.2046
 8708TIP3   OH247614   0.297   5.862  12.263  0.1347  0.4797 -0.2961
 8708TIP3    H147615   0.264   5.814  12.187 -0.7007  0.6339 -0.0428
 8708TIP3    H247616   0.386   5.887  12.239  1.0283 -2.1287 -0.0126
 8709TIP3   OH247617   6.065   1.345  15.136 -0.4302 -0.4541 -0.6821
 8709TIP3    H147618   6.084   1.431  15.098  0.9128  0.5790  2.0686
 8709TIP3    H247619   5.998   1.308  15.078 -1.2206  2.5094 -1.8646
 8710TIP3   OH247620   6.213   3.813   5.146  0.0349 -0.1817 -0.4687
 8710TIP3    H147621   6.250   3.794   5.232  0.1433 -0.8655 -0.6644
 8710TIP3    H247622   6.158   3.890   5.161 -0.3158 -0.5651  0.3219
 8711TIP3   OH247623   1.547   3.537  12.045 -0.1170 -0.0746  0.5991
 8711TIP3    H147624   1.576   3.610  12.100  0.8831  0.5241 -0.6637
 8711TIP3    H247625   1.601   3.544  11.966 -2.4342 -0.0615 -1.0796
 8712TIP3   OH247626   1.532   3.313   2.733  0.1799 -0.1983 -0.2898
 8712TIP3    H147627   1.611   3.327   2.785  1.1969 -0.0376 -1.8113
 8712TIP3    H247628   1.493   3.400   2.724  1.7644  0.3716 -2.4308
 8713TIP3   OH247629   3.905   1.611  11.908 -0.6718  0.4454 -0.1936
 8713TIP3    H147630   3.838   1.582  11.846  1.0783 -2.1573 -0.9973
 8713TIP3    H247631   3.970   1.541  11.908  1.1978  2.0519  1.8899
 8714TIP3   OH247632   2.686   1.200  17.301 -0.0733 -0.4528  0.1741
 8714TIP3    H147633   2.749   1.180  17.232 -0.3321  0.8883 -0.4699
 8714TIP3    H247634   2.624   1.260  17.261 -1.1324 -0.8655  1.1331
 8715TIP3   OH247635   3.061   4.168   2.848  0.3871 -0.5759 -0.0374
 8715TIP3    H147636   3.005   4.187   2.923 -1.6239 -0.8467 -1.3856
 8715TIP3    H247637   3.122   4.242   2.844 -0.6184  0.3357  0.8246
 8716TIP3   OH247638   4.681   6.775  11.882 -0.8005  0.4004 -0.0542
 8716TIP3    H147639   4.597   6.795  11.840 -1.1100 -1.7066 -0.5190
 8716TIP3    H247640   4.739   6.752  11.809 -0.7360 -1.1951  0.4709
 8717TIP3   OH247641   3.200   6.273   2.221 -0.6640  0.2419  0.0388
 8717TIP3    H147642   3.108   6.298   2.227 -0.6218  0.2494  0.6301
 8717TIP3    H247643   3.246   6.354   2.201 -0.8093  0.1934 -0.5257
 8718TIP3   OH247644   5.676   3.387  15.413 -0.2565 -0.0021  0.1898
 8718TIP3    H147645   5.675   3.347  15.325  0.5009  1.6901 -0.6326
 8718TIP3    H247646   5.720   3.322  15.468 -2.7565 -2.1312 -0.0878
 8719TIP3   OH247647   4.912   2.072  13.042 -0.0986 -0.1616  0.0119
 8719TIP3    H147648   4.993   2.021  13.046 -0.3399 -0.6101 -0.6139
 8719TIP3    H247649   4.888   2.087  13.134  0.4085 -0.4854  0.1978
 8720TIP3   OH247650   6.502   1.995   6.348  0.0972  0.2216 -0.2238
 8720TIP3    H147651   6.556   1.943   6.407 -0.2839 -1.0686 -0.9821
 8720TIP3    H247652   6.414   1.958   6.358 -0.1371  0.5739 -0.9433
 8721TIP3   OH247653   0.638   6.208  12.909 -0.2574 -0.2825  0.1893
 8721TIP3    H147654   0.544   6.206  12.891 -0.5777  0.8067  1.5490
 8721TIP3    H247655   0.658   6.120  12.940 -0.4985 -0.9687 -1.5059
 8722TIP3   OH247656   5.823   2.111   0.053  0.2573  0.0092  0.1527
 8722TIP3    H147657   5.868   2.034   0.087  0.3148  0.3221  0.7842
 8722TIP3    H247658   5.892   2.163   0.011  0.1939 -0.3499 -0.4131
 8723TIP3   OH247659   0.950   0.852  15.195 -0.1905  0.2950 -0.3020
 8723TIP3    H147660   0.984   0.931  15.236 -0.5300  0.9866 -1.3099
 8723TIP3    H247661   0.867   0.836  15.240  0.1047  0.2321  0.2290
 8724TIP3   OH247662   1.556   3.100  13.681 -0.1105  0.0930  0.1185
 8724TIP3    H147663   1.647   3.128  13.673 -0.2244  0.3833 -0.1723
 8724TIP3    H247664   1.552   3.055  13.765  0.6824 -1.3729 -0.5826
 8725TIP3   OH247665   6.191   6.186   2.691  0.2202 -0.0761  0.3934
 8725TIP3    H147666   6.185   6.235   2.609  0.6264 -0.4593  0.1316
 8725TIP3    H247667   6.231   6.103   2.666  1.3614  0.2293  1.1611
 8726TIP3   OH247668   1.374   2.148   5.343 -0.5987 -0.1717 -1.0060
 8726TIP3    H147669   1.405   2.144   5.252 -0.3116 -2.7287 -0.8771
 8726TIP3    H247670   1.451   2.129   5.396 -1.2220 -1.1393 -0.4019
 8727TIP3   OH247671   2.743   0.385   3.505 -0.1936  0.5274 -0.0620
 8727TIP3    H147672   2.743   0.456   3.440 -1.0496 -0.9760 -1.7861
 8727TIP3    H247673   2.651   0.364   3.517  0.0012  0.3252  1.1639
 8728TIP3   OH247674   6.480   5.852  16.733  0.4978  0.4030 -0.0152
 8728TIP3    H147675   6.453   5.867  16.643 -0.8754  0.4174  0.3717
 8728TIP3    H247676   6.476   5.938  16.774  1.7811  0.5194 -0.0817
 8729TIP3   OH247677   5.972   5.398  16.173  0.4727  0.2979 -0.4837
 8729TIP3    H147678   6.026   5.472  16.145  3.6682 -1.6358  0.0323
 8729TIP3    H247679   5.969   5.340  16.097  0.4545 -0.2959 -0.0396
 8730TIP3   OH247680   6.479   4.185  10.655  0.8502 -0.0673  0.5847
 8730TIP3    H147681   6.444   4.254  10.599  0.2153  1.5811  2.9163
 8730TIP3    H247682   6.414   4.115  10.649  1.2402 -0.3359 -1.3765
 8731TIP3   OH247683   0.821   3.311   4.580 -0.1742 -0.1758  0.1374
 8731TIP3    H147684   0.782   3.230   4.547  0.7105 -0.0399 -1.3372
 8731TIP3    H247685   0.813   3.373   4.508  1.0040  0.4235  0.4928
 8732TIP3   OH247686   4.922   3.329  14.202  0.3439 -0.2029 -0.6759
 8732TIP3    H147687   4.915   3.419  14.232  0.1795 -0.2467 -0.5826
 8732TIP3    H247688   4.997   3.293  14.249 -1.1224 -0.8871  1.2496
 8733TIP3   OH247689   6.123   1.252  16.698 -0.0498  0.2184 -0.0321
 8733TIP3    H147690   6.175   1.206  16.632  0.6431  0.0410  0.6320
 8733TIP3    H247691   6.187   1.297  16.752 -0.4506 -1.2813  1.7770
 8734TIP3   OH247692   0.461   2.032  16.838 -0.1898 -0.0890  0.4087
 8734TIP3    H147693   0.506   1.985  16.908 -2.1531 -0.7031  1.3571
 8734TIP3    H247694   0.518   2.105  16.817  1.1676 -0.7493  1.5936
 8735TIP3   OH247695   2.931   4.918  16.416  0.1777 -0.2630  0.2198
 8735TIP3    H147696   2.890   4.939  16.500 -0.5740  0.6628 -0.3698
 8735TIP3    H247697   2.879   4.964  16.351  0.3644 -1.4830 -0.8396
 8736TIP3   OH247698   1.638   6.237  16.866 -0.8557 -0.2652 -0.5196
 8736TIP3    H147699   1.722   6.216  16.825 -0.6881  0.0453 -0.3395
 8736TIP3    H247700   1.661   6.273  16.952 -1.1188  0.8090 -0.8765
 8737TIP3   OH247701   0.775   4.649   1.971  0.4315  0.2434  0.0569
 8737TIP3    H147702   0.825   4.729   1.954  1.3541 -0.5408 -1.1347
 8737TIP3    H247703   0.713   4.645   1.898  0.6635 -0.3189 -0.1117
 8738TIP3   OH247704   2.247   1.545   2.557 -0.0205 -0.3276  0.3393
 8738TIP3    H147705   2.294   1.489   2.495  1.6188  1.0733  0.2300
 8738TIP3    H247706   2.189   1.597   2.503  1.2156  0.7049 -0.0333
 8739TIP3   OH247707   4.027   1.794  10.175  0.0549 -0.3998 -0.2715
 8739TIP3    H147708   3.947   1.747  10.197  0.0286 -0.0307  0.4743
 8739TIP3    H247709   4.093   1.757  10.233  0.1057  0.2337  0.0909
 8740TIP3   OH247710   3.330   2.955  12.135 -0.0685 -0.7164 -0.6968
 8740TIP3    H147711   3.360   2.961  12.045 -0.6886 -0.0098 -0.8562
 8740TIP3    H247712   3.276   3.032  12.149  0.4807 -0.5049  0.4586
 8741TIP3   OH247713   3.759   5.481  16.986 -0.0742 -0.4363  0.4324
 8741TIP3    H147714   3.770   5.575  16.970  1.2168 -0.5933  0.2129
 8741TIP3    H247715   3.799   5.466  17.072  0.6497 -0.9192  0.0297
 8742TIP3   OH247716   6.008   4.377  13.576 -0.1447 -0.6658  1.0423
 8742TIP3    H147717   5.931   4.344  13.530  0.0967  1.4484 -1.1036
 8742TIP3    H247718   6.063   4.412  13.507  0.9420  1.3901  2.8403
 8743TIP3   OH247719   2.867   5.252   3.164  0.2969  0.3027 -0.2160
 8743TIP3    H147720   2.919   5.176   3.190  1.8710  1.1317 -0.8374
 8743TIP3    H247721   2.929   5.324   3.160 -0.4367  0.8983 -3.0827
 8744TIP3   OH247722   3.324   6.798   0.410  0.0772 -0.4848 -0.5782
 8744TIP3    H147723   3.330   6.733   0.480 -0.7110 -0.8829 -0.8648
 8744TIP3    H247724   3.278   6.753   0.339 -0.2796  0.3150 -0.8692
 8745TIP3   OH247725   1.332   2.535  16.683  0.4670 -0.2250 -0.6005
 8745TIP3    H147726   1.316   2.444  16.711 -0.7874 -0.0736 -0.7843
 8745TIP3    H247727   1.426   2.548  16.700 -0.1091 -0.1090  3.7440
 8746TIP3   OH247728   4.537   4.718   3.232  0.2975 -0.1395  0.4418
 8746TIP3    H147729   4.559   4.670   3.152 -0.8133  0.1509 -0.0624
 8746TIP3    H247730   4.591   4.678   3.300  2.4559  0.6734 -0.7209
 8747TIP3   OH247731   1.126   2.646   3.339  0.2229  0.0545 -0.5524
 8747TIP3    H147732   1.196   2.582   3.352  0.1764  0.0575 -0.2825
 8747TIP3    H247733   1.047   2.594   3.324 -1.0264 -0.2292  4.9975
 8748TIP3   OH247734   4.252   1.218  13.286 -0.1105 -0.0954 -0.0128
 8748TIP3    H147735   4.314   1.234  13.357 -0.3893  0.4344  0.1168
 8748TIP3    H247736   4.191   1.292  13.291 -1.1003 -0.9160  0.2332
 8749TIP3   OH247737   3.279   5.880  11.323  0.1051 -0.2485 -0.3322
 8749TIP3    H147738   3.304   5.874  11.230 -0.5650  0.5485 -0.5738
 8749TIP3    H247739   3.361   5.872  11.371  0.4284 -0.9749 -0.9783
 8750TIP3   OH247740   0.821   6.311  16.799  0.1946 -0.1231 -0.1269
 8750TIP3    H147741   0.856   6.302  16.710 -0.1230  1.2727 -0.4122
 8750TIP3    H247742   0.895   6.345  16.850 -0.1153  0.8149 -0.2748
 8751TIP3   OH247743   2.169   4.675  11.577 -0.0017 -0.0864  0.0009
 8751TIP3    H147744   2.086   4.692  11.533 -0.2673 -0.8650  0.1857
 8751TIP3    H247745   2.161   4.586  11.610  0.7854 -0.0550  0.3030
 8752TIP3   OH247746   5.905   1.296  11.832 -0.1953 -0.2111 -0.2429
 8752TIP3    H147747   5.909   1.367  11.896  2.1498 -0.1939 -0.3215
 8752TIP3    H247748   5.834   1.240  11.862 -1.3359  1.5393  0.4675
 8753TIP3   OH247749   4.311   5.114  11.071  0.8195 -0.4972 -0.4760
 8753TIP3    H147750   4.406   5.126  11.073  0.6658  0.8003 -0.5212
 8753TIP3    H247751   4.295   5.065  10.990  1.6788 -3.2427  0.8893
 8754TIP3   OH247752   5.763   3.665  13.922 -0.4218  0.4187  0.7638
 8754TIP3    H147753   5.846   3.692  13.882  0.2921 -1.3707  0.9340
 8754TIP3    H247754   5.699   3.668  13.851 -0.3978  2.4485  0.7736
 8755TIP3   OH247755   5.144   5.621   2.280  0.2471  0.0405 -0.1572
 8755TIP3    H147756   5.149   5.526   2.274  0.2873  0.0986 -1.2809
 8755TIP3    H247757   5.065   5.645   2.231  0.7427  0.6402 -0.6887
 8756TIP3   OH247758   1.818   4.868  16.727 -0.2904  0.0115  0.5077
 8756TIP3    H147759   1.837   4.777  16.702  0.1278 -0.1116  1.2386
 8756TIP3    H247760   1.738   4.862  16.780 -1.3497  0.3063 -0.9844
 8757TIP3   OH247761   3.585   5.721   3.823 -0.3464  0.2293 -0.8162
 8757TIP3    H147762   3.503   5.767   3.839  1.0289  2.0750  1.9609
 8757TIP3    H247763   3.568   5.631   3.850 -1.4026  0.6449 -0.0177
 8758TIP3   OH247764   0.054   2.697  11.160 -0.1547  0.4795  0.2126
 8758TIP3    H147765   0.145   2.720  11.139 -0.2751 -1.8453 -4.1170
 8758TIP3    H247766   0.002   2.742  11.092 -1.9141 -0.4323  0.8849
 8759TIP3   OH247767   3.776   5.091   1.401 -0.2817  0.2552 -0.3428
 8759TIP3    H147768   3.716   5.153   1.441 -0.3650  0.1690 -0.3329
 8759TIP3    H247769   3.725   5.051   1.330 -0.1967  0.2708 -0.4121
 8760TIP3   OH247770   2.746   0.317  14.849  0.2059  0.3047  0.2331
 8760TIP3    H147771   2.732   0.240  14.794  0.4345  1.1908 -1.0943
 8760TIP3    H247772   2.835   0.345  14.829 -0.2209  1.5026 -0.0581
 8761TIP3   OH247773   2.007   1.456   6.294  0.2668  0.2015 -0.0904
 8761TIP3    H147774   2.028   1.519   6.363 -2.4558  1.4016 -0.2241
 8761TIP3    H247775   1.997   1.510   6.215  0.1255 -0.7202 -0.7144
 8762TIP3   OH247776   4.138   2.013   4.258  0.8486  0.2787  0.1620
 8762TIP3    H147777   4.229   2.012   4.287  0.7662  0.0987  0.4234
 8762TIP3    H247778   4.091   1.967   4.328  0.5008  0.7340  0.2358
 8763TIP3   OH247779   5.009   4.146   5.226 -0.2034  0.3497  0.1023
 8763TIP3    H147780   5.098   4.172   5.202 -0.6828  2.5226  0.4657
 8763TIP3    H247781   4.993   4.190   5.309 -1.2374 -0.9418  0.6159
 8764TIP3   OH247782   2.005   3.906   3.909 -0.1490 -0.2511 -0.4407
 8764TIP3    H147783   2.010   3.880   3.818  2.1396  0.9944 -0.7452
 8764TIP3    H247784   2.094   3.935   3.931 -0.3525 -1.4747  2.4889
 8765TIP3   OH247785   0.096   0.473   2.866 -0.5602 -0.6954  0.3489
 8765TIP3    H147786   0.057   0.394   2.830 -3.5425  0.4642  0.7330
 8765TIP3    H247787   0.076   0.541   2.802  1.7027 -0.1237  0.1485
 8766TIP3   OH247788   1.312   1.033   1.775 -0.4134  0.0363 -0.2944
 8766TIP3    H147789   1.332   0.969   1.707 -1.8503 -1.8829  0.9835
 8766TIP3    H247790   1.217   1.042   1.772 -0.5853 -0.5587  1.7947
 8767TIP3   OH247791   4.008   5.458  13.812 -0.0505 -0.0995 -0.9076
 8767TIP3    H147792   3.922   5.502  13.811 -0.2423 -0.1779  2.4087
 8767TIP3    H247793   3.987   5.365  13.805 -0.2568 -0.1180 -0.1145
 8768TIP3   OH247794   1.422   4.189  16.603 -0.2064 -0.2603  0.1140
 8768TIP3    H147795   1.511   4.156  16.594  0.4535  1.6459 -0.9781
 8768TIP3    H247796   1.403   4.183  16.697  1.8848  1.1876  0.6975
 8769TIP3   OH247797   1.509   2.402   5.782  0.6775  0.2584 -0.0415
 8769TIP3    H147798   1.437   2.419   5.842  2.3867  0.4829  2.0336
 8769TIP3    H247799   1.561   2.482   5.782  1.4680 -0.2378 -0.7401
 8770TIP3   OH247800   1.061   5.205   2.524 -0.0461  0.2399  0.1349
 8770TIP3    H147801   1.088   5.165   2.441  1.3324  0.0470  0.6590
 8770TIP3    H247802   1.030   5.292   2.498 -1.2217 -0.4072 -0.7679
 8771TIP3   OH247803   2.087   1.092   6.082  0.1171  0.4764  0.0219
 8771TIP3    H147804   2.061   1.000   6.090  1.6791  0.0549  0.4332
 8771TIP3    H247805   2.172   1.098   6.123 -0.4612  2.3908  1.0911
 8772TIP3   OH247806   1.741   0.234  16.822  0.3224 -0.4787 -0.6411
 8772TIP3    H147807   1.677   0.243  16.751  0.0410 -1.8100 -0.5926
 8772TIP3    H247808   1.725   0.147  16.858  1.7029 -0.5647 -0.1531
 8773TIP3   OH247809   5.637   2.649   6.427 -0.2873  0.1427 -0.0411
 8773TIP3    H147810   5.585   2.727   6.408 -0.1202  0.6391  1.3938
 8773TIP3    H247811   5.623   2.591   6.352 -0.5489  1.4737 -1.0527
 8774TIP3   OH247812   4.644   1.432  16.240 -0.3581 -0.1790 -0.2171
 8774TIP3    H147813   4.723   1.394  16.202 -1.0033 -2.4255  0.5321
 8774TIP3    H247814   4.664   1.439  16.334 -0.7365  0.0971 -0.1543
 8775TIP3   OH247815   0.197   3.427  13.395  0.6799 -0.2768  0.4694
 8775TIP3    H147816   0.260   3.481  13.443 -0.1227  0.0176  1.2187
 8775TIP3    H247817   0.119   3.482  13.386  0.1276 -1.0206  0.5414
 8776TIP3   OH247818   2.724   3.194   3.836  0.1447  0.6218  0.0076
 8776TIP3    H147819   2.684   3.152   3.913  1.2120 -1.0365 -0.2906
 8776TIP3    H247820   2.653   3.245   3.797 -1.0990 -0.5062  0.6984
 8777TIP3   OH247821   2.213   4.528  12.541  0.1026 -0.2951  0.0641
 8777TIP3    H147822   2.230   4.472  12.617 -0.3901 -0.6710 -0.1029
 8777TIP3    H247823   2.293   4.580  12.532 -0.5285  1.1972  2.0541
 8778TIP3   OH247824   1.416   5.748   5.052  0.2438 -0.2294 -0.2340
 8778TIP3    H147825   1.360   5.773   4.978 -0.4569  1.4892  0.8361
 8778TIP3    H247826   1.457   5.667   5.023 -1.0919 -0.3662 -1.9519
 8779TIP3   OH247827   3.920   4.847   0.242 -0.2083  0.2427  1.2395
 8779TIP3    H147828   3.869   4.919   0.205 -1.3231 -1.4693 -0.7554
 8779TIP3    H247829   4.008   4.859   0.208 -0.2153  1.0025  1.4695
 8780TIP3   OH247830   0.205   6.465   3.347 -0.9461 -0.1238 -0.2488
 8780TIP3    H147831   0.131   6.409   3.372 -0.9368 -0.7619 -1.5834
 8780TIP3    H247832   0.281   6.424   3.389 -1.2207  0.0718  0.4568
 8781TIP3   OH247833   2.263   2.574  16.383 -0.2395 -0.5842  0.5954
 8781TIP3    H147834   2.356   2.592  16.366 -0.2864 -0.5472  0.3778
 8781TIP3    H247835   2.216   2.625  16.317 -0.3794 -1.2911  0.1345
 8782TIP3   OH247836   3.129   1.874   1.723  0.1286  0.3681  0.2954
 8782TIP3    H147837   3.077   1.887   1.802  0.2736  0.5522  0.3619
 8782TIP3    H247838   3.197   1.941   1.728  2.4544 -1.9248  1.9177
 8783TIP3   OH247839   2.814   1.350   1.931 -0.4202  0.1199 -0.2000
 8783TIP3    H147840   2.836   1.443   1.932 -2.5349  0.6723 -0.0210
 8783TIP3    H247841   2.865   1.312   2.002 -0.7626  1.4803  0.8084
 8784TIP3   OH247842   6.722   1.071  12.931  0.2943  0.2178 -0.3367
 8784TIP3    H147843   6.709   1.109  12.845  2.2769  1.0126 -0.3372
 8784TIP3    H247844   6.652   1.006  12.940 -0.3425  0.5904 -2.2496
 8785TIP3   OH247845   3.352   2.942   1.457  0.1071 -0.1010  0.6985
 8785TIP3    H147846   3.259   2.965   1.453 -0.1231 -1.0678  0.1980
 8785TIP3    H247847   3.397   3.018   1.419 -0.6025 -0.3153 -0.6479
 8786TIP3   OH247848   6.561   1.870  10.278  0.1929 -0.6244 -0.5354
 8786TIP3    H147849   6.484   1.825  10.244 -0.6534  0.7876 -0.5959
 8786TIP3    H247850   6.527   1.930  10.344  1.1769  0.3145 -0.8305
 8787TIP3   OH247851   5.730   2.061  12.146 -0.3099  0.0189 -0.3804
 8787TIP3    H147852   5.763   2.118  12.078 -0.2472  0.4742  0.0259
 8787TIP3    H247853   5.667   2.114  12.194 -1.0905 -0.6074 -0.6911
 8788TIP3   OH247854   1.332   4.793  13.733 -0.2470 -0.1724  0.2172
 8788TIP3    H147855   1.265   4.744  13.684  1.3695  1.3215 -3.9185
 8788TIP3    H247856   1.297   4.882  13.739  0.7215  0.2801 -0.6931
 8789TIP3   OH247857   1.777   5.071  11.197  0.1727 -0.2165 -0.6513
 8789TIP3    H147858   1.849   5.058  11.135  0.2178  0.5889 -0.7816
 8789TIP3    H247859   1.698   5.064  11.144  0.1769 -0.4642 -0.6256
 8790TIP3   OH247860   5.333   4.610  12.888  0.0917  0.0088 -0.2628
 8790TIP3    H147861   5.408   4.660  12.921  1.1031 -0.5636 -1.5982
 8790TIP3    H247862   5.274   4.602  12.963  0.7435  1.6070  0.4643
 8791TIP3   OH247863   5.317   1.861   4.663 -0.5505  0.4350  0.0498
 8791TIP3    H147864   5.228   1.881   4.693 -0.8461  0.4863 -0.8462
 8791TIP3    H247865   5.374   1.909   4.723 -1.0985 -0.0921  1.0272
 8792TIP3   OH247866   3.719   6.680   4.524  0.1980 -0.2689 -0.1070
 8792TIP3    H147867   3.813   6.678   4.544  0.8177  1.5129 -2.3924
 8792TIP3    H247868   3.682   6.743   4.585  0.8794  0.4895 -0.4670
 8793TIP3   OH247869   3.797   0.667  15.121  0.1773  0.2774 -0.2501
 8793TIP3    H147870   3.728   0.605  15.095  0.8560 -0.3091 -0.6916
 8793TIP3    H247871   3.849   0.679  15.041  1.1261 -0.0108  0.3069
 8794TIP3   OH247872   4.139   4.937  12.422 -0.1387  0.0682  0.1919
 8794TIP3    H147873   4.150   5.032  12.421  1.4307 -0.0823 -0.2520
 8794TIP3    H247874   4.197   4.907  12.492  0.2795 -0.6399 -0.4436
 8795TIP3   OH247875   4.932   5.589   1.576 -0.3146 -0.5720  0.0281
 8795TIP3    H147876   4.991   5.514   1.577 -2.2829 -2.2091 -0.1095
 8795TIP3    H247877   4.948   5.631   1.492  0.3161 -1.2821 -0.2171
 8796TIP3   OH247878   5.996   5.320  14.564  0.8787 -0.6698 -0.0002
 8796TIP3    H147879   6.060   5.391  14.575  1.9232 -1.6154  0.2953
 8796TIP3    H247880   6.029   5.270  14.490  1.7800 -2.4637  1.5342
 8797TIP3   OH247881   3.029   4.416  14.669  0.3977  0.4313 -0.7675
 8797TIP3    H147882   3.108   4.380  14.628 -0.7296 -1.4777 -1.4175
 8797TIP3    H247883   3.039   4.398  14.762 -0.1178 -1.6702 -1.0743
 8798TIP3   OH247884   3.013   5.917  13.267 -0.2848  0.9271  0.2825
 8798TIP3    H147885   2.940   5.885  13.215  0.2357 -1.1426  0.7446
 8798TIP3    H247886   3.039   5.999  13.224 -1.7865  0.8324 -0.8760
 8799TIP3   OH247887   3.205   3.009   5.622 -0.2195  0.1009  0.8013
 8799TIP3    H147888   3.183   3.038   5.533  4.0563 -0.0706 -0.5415
 8799TIP3    H247889   3.142   2.939   5.640 -2.1517  1.1165 -1.4508
 8800TIP3   OH247890   6.609   6.723   0.763  0.0115  0.0793 -0.1227
 8800TIP3    H147891   6.700   6.729   0.792  0.3168 -0.1183 -0.9862
 8800TIP3    H247892   6.557   6.749   0.839  0.6206 -3.0039  1.5046
 8801TIP3   OH247893   2.229   3.001  16.381  0.5874  0.4526 -0.3791
 8801TIP3    H147894   2.150   3.021  16.331  0.9405  0.0277 -1.1162
 8801TIP3    H247895   2.301   3.018  16.321  1.0041 -0.3985 -0.1464
 8802TIP3   OH247896   2.255   6.552   3.237  0.0766 -0.4584 -0.1960
 8802TIP3    H147897   2.205   6.606   3.176  2.5918  3.1852  0.6966
 8802TIP3    H247898   2.346   6.576   3.222  1.1179 -2.3804  2.3231
 8803TIP3   OH247899   4.345   2.011  10.817 -0.1421 -0.5541  0.2174
 8803TIP3    H147900   4.263   2.056  10.798 -0.7204 -1.4285  0.5463
 8803TIP3    H247901   4.320   1.918  10.822  1.1629 -1.0597 -1.4734
 8804TIP3   OH247902   2.770   6.572  11.437 -0.2303 -0.1427 -0.0963
 8804TIP3    H147903   2.832   6.511  11.478 -0.0109 -0.3651 -0.7347
 8804TIP3    H247904   2.753   6.533  11.351 -0.3633  0.5237 -0.3718
 8805TIP3   OH247905   5.409   3.799  11.582 -0.9240  0.4197  0.4868
 8805TIP3    H147906   5.470   3.859  11.539 -0.4367 -0.0197  0.5524
 8805TIP3    H247907   5.322   3.831  11.558 -0.6690  0.9954  0.3089
 8806TIP3   OH247908   3.306   6.115  12.620 -1.0538  0.2287 -0.1463
 8806TIP3    H147909   3.364   6.091  12.547 -1.5087  0.4150 -0.5786
 8806TIP3    H247910   3.348   6.191  12.660  1.2361 -2.1109  2.2106
 8807TIP3   OH247911   2.159   2.458   6.219  0.0786 -0.2578  0.1683
 8807TIP3    H147912   2.218   2.384   6.226 -0.4278 -0.8193 -1.2609
 8807TIP3    H247913   2.091   2.441   6.285 -1.3219 -2.3182 -1.6840
 8808TIP3   OH247914   5.320   2.927   4.838 -0.5094 -0.3087  0.3029
 8808TIP3    H147915   5.227   2.927   4.860 -0.0303 -1.0440  2.5472
 8808TIP3    H247916   5.361   2.876   4.907  1.4730 -0.8268 -1.1584
 8809TIP3   OH247917   5.844   3.224   4.402  0.1830  0.3211 -0.1174
 8809TIP3    H147918   5.859   3.137   4.440 -0.2112  1.3040  2.4982
 8809TIP3    H247919   5.889   3.221   4.317  1.7858 -1.8244  0.7057
 8810TIP3   OH247920   5.023   1.673  12.353  0.1784 -0.0827 -0.6032
 8810TIP3    H147921   5.094   1.725  12.314  1.4291 -0.5041  1.0219
 8810TIP3    H247922   5.026   1.590  12.305  1.1189 -0.2732 -0.2407
 8811TIP3   OH247923   5.617   3.164   1.328  0.2185 -0.3221 -0.4212
 8811TIP3    H147924   5.560   3.122   1.263 -1.2904 -0.3040  0.8284
 8811TIP3    H247925   5.565   3.165   1.408  2.0106 -0.2963  0.7976
 8812TIP3   OH247926   2.402   3.586  17.136  0.3262 -0.2615 -0.4883
 8812TIP3    H147927   2.451   3.573  17.055  1.0199  0.7034 -0.2358
 8812TIP3    H247928   2.458   3.552  17.205  0.5719  0.6477 -0.2229
 8813TIP3   OH247929   1.816   5.929  14.604 -0.0536  0.6660 -0.4060
 8813TIP3    H147930   1.851   5.849  14.643 -1.2125  0.9332  1.2620
 8813TIP3    H247931   1.721   5.920  14.613 -0.2225  1.9417 -0.8182
 8814TIP3   OH247932   6.551   1.188  16.568  0.3743  0.4718  0.1314
 8814TIP3    H147933   6.564   1.137  16.488  0.3666  0.7457 -0.0479
 8814TIP3    H247934   6.510   1.127  16.629  1.2376 -0.0081  0.2410
 8815TIP3   OH247935   0.926   0.493  14.986 -0.0382 -0.0093 -0.3185
 8815TIP3    H147936   0.842   0.528  15.017  0.6581  0.5968  0.9500
 8815TIP3    H247937   0.910   0.473  14.894 -1.5834  0.0600 -0.1054
 8816TIP3   OH247938   5.821   1.140  11.562  0.5504 -0.3208  0.2233
 8816TIP3    H147939   5.735   1.096  11.560  0.7288 -0.6512 -0.4882
 8816TIP3    H247940   5.841   1.148  11.655 -1.9617  3.1755  0.6748
 8817TIP3   OH247941   3.733   1.065  11.270  0.0180 -0.4111  0.1396
 8817TIP3    H147942   3.654   1.116  11.253  1.3725  1.6421 -0.3918
 8817TIP3    H247943   3.755   1.085  11.361  0.3540 -0.3434  0.0455
 8818TIP3   OH247944   1.985   6.129   1.115 -0.4569 -0.2343  0.9320
 8818TIP3    H147945   2.004   6.154   1.025  1.0331  0.5208  1.4251
 8818TIP3    H247946   1.946   6.207   1.154 -0.9720 -0.5158  0.9841
 8819TIP3   OH247947   3.216   4.794   2.043  0.5137 -0.5864 -0.3141
 8819TIP3    H147948   3.138   4.845   2.022  1.3452  0.5061 -0.8743
 8819TIP3    H247949   3.280   4.821   1.977  1.2209 -1.7946 -0.1392
 8820TIP3   OH247950   2.937   4.412   3.445 -0.0038 -0.1203  0.1793
 8820TIP3    H147951   2.983   4.477   3.393  1.0106 -1.2595 -0.4079
 8820TIP3    H247952   2.933   4.448   3.533  0.4072  0.7882 -0.1677
 8821TIP3   OH247953   3.455   4.772   3.200 -0.7966  0.6746 -0.0959
 8821TIP3    H147954   3.540   4.784   3.159 -0.5147  1.1986  0.6211
 8821TIP3    H247955   3.392   4.801   3.134 -0.4705 -0.3022 -0.8663
 8822TIP3   OH247956   1.294   6.347  16.955 -0.6626  0.4571 -0.4335
 8822TIP3    H147957   1.265   6.434  16.926 -0.9236  1.0746  1.5589
 8822TIP3    H247958   1.225   6.318  17.015  0.7026  0.0128  0.9579
 8823TIP3   OH247959   5.593   3.882   1.197  0.3735 -0.1696  0.4411
 8823TIP3    H147960   5.657   3.881   1.126 -1.0262  1.1556 -0.9385
 8823TIP3    H247961   5.627   3.946   1.259  0.5498  0.3139 -0.1423
 8824TIP3   OH247962   6.492   6.248   4.090  0.0361  0.0523 -0.0896
 8824TIP3    H147963   6.433   6.173   4.097  1.3977 -0.9114  2.0805
 8824TIP3    H247964   6.497   6.265   3.996 -2.1762 -1.0220 -0.4803
 8825TIP3   OH247965   4.524   0.610   0.672  0.6997 -0.8414 -0.3750
 8825TIP3    H147966   4.563   0.689   0.709  1.0502 -0.4985 -1.4325
 8825TIP3    H247967   4.476   0.641   0.595  2.6881 -1.8695 -2.1467
 8826TIP3   OH247968   0.399   6.502   1.374 -0.0712  0.4369  1.2304
 8826TIP3    H147969   0.426   6.455   1.296 -0.8145 -1.1459  1.8834
 8826TIP3    H247970   0.461   6.575   1.381  1.3729 -0.6736  0.4106
 8827TIP3   OH247971   2.056   0.967  11.543  0.2424  0.0791 -0.2226
 8827TIP3    H147972   2.005   1.028  11.596 -1.4907 -1.8945  0.5155
 8827TIP3    H247973   2.035   0.991  11.452  0.9265  1.6051 -0.0050
 8828TIP3   OH247974   2.165   1.826   0.483  0.2306  0.0191 -0.2739
 8828TIP3    H147975   2.172   1.919   0.503 -0.1123 -0.2900  1.4028
 8828TIP3    H247976   2.082   1.818   0.436 -0.3966  0.4054  0.7191
 8829TIP3   OH247977   3.578   5.250  15.555 -0.7291  0.4273  0.2199
 8829TIP3    H147978   3.614   5.291  15.476 -0.6145  0.2354  0.1702
 8829TIP3    H247979   3.545   5.165  15.524  0.0359  0.0084  0.5226
 8830TIP3   OH247980   1.993   6.811  14.762  0.0497  0.4423 -0.5094
 8830TIP3    H147981   1.973   6.904  14.751  0.5434  0.4477 -1.4611
 8830TIP3    H247982   2.080   6.801  14.723 -0.5793 -0.6763 -1.6841
 8831TIP3   OH247983   4.441   1.155  13.759  0.6651 -0.2570 -0.2985
 8831TIP3    H147984   4.516   1.124  13.810  0.0114 -2.5631 -0.6366
 8831TIP3    H247985   4.364   1.125  13.808 -0.0068 -0.2260 -1.3065
 8832TIP3   OH247986   2.358   6.730   0.137  0.0146 -0.0086  0.2661
 8832TIP3    H147987   2.310   6.729   0.054 -0.6357  0.9262  0.6202
 8832TIP3    H247988   2.420   6.802   0.128 -1.2358  1.2333  1.2243
 8833TIP3   OH247989   4.505   6.338  17.059 -0.6373 -0.0950  0.1328
 8833TIP3    H147990   4.551   6.281  16.997  2.6945 -0.4372  2.6401
 8833TIP3    H247991   4.417   6.302  17.063  0.5819 -3.5274 -0.3632
 8834TIP3   OH247992   4.661   3.187   0.875 -0.0165 -0.4529 -0.1514
 8834TIP3    H147993   4.703   3.132   0.941  1.8767  0.7733 -0.2789
 8834TIP3    H247994   4.598   3.240   0.924 -0.3460 -1.2116  0.2745
 8835TIP3   OH247995   5.063   1.772  16.547 -0.8661 -0.0485 -0.0932
 8835TIP3    H147996   4.998   1.703  16.531 -2.1266  0.6476  1.5827
 8835TIP3    H247997   5.143   1.740  16.507 -1.4160 -2.4888  0.5773
 8836TIP3   OH247998   2.638   1.272   3.452 -0.6671  0.9626  0.0740
 8836TIP3    H147999   2.733   1.260   3.450 -0.8033 -0.1189 -0.5753
 8836TIP3    H248000   2.612   1.273   3.360 -1.2811  1.3645  0.2467
 8837TIP3   OH248001   4.064   2.092  15.544  0.6941 -0.1977 -0.2695
 8837TIP3    H148002   4.020   2.086  15.459  1.1155 -1.6295 -0.4143
 8837TIP3    H248003   4.157   2.082  15.523  0.7645 -1.0061  0.3921
 8838TIP3   OH248004   1.833   4.078  12.272  0.5439 -0.0044 -0.5492
 8838TIP3    H148005   1.809   3.988  12.251 -1.8550  0.6752 -0.9244
 8838TIP3    H248006   1.776   4.102  12.345  0.7474  1.4163 -0.8403
 8839TIP3   OH248007   5.034   3.824  14.022 -0.4942  0.1485 -0.0243
 8839TIP3    H148008   4.941   3.837  14.037 -0.7090 -0.9445 -0.3037
 8839TIP3    H248009   5.077   3.895  14.069 -1.5088  1.2697 -0.7386
 8840TIP3   OH248010   1.421   0.445  17.071 -0.6824  0.2257 -0.4466
 8840TIP3    H148011   1.416   0.466  16.978 -1.2876  2.5299  0.0265
 8840TIP3    H248012   1.332   0.420  17.095 -1.1278  1.9953 -0.0660
 8841TIP3   OH248013   4.596   3.693   4.089 -0.5156 -0.3508 -0.0556
 8841TIP3    H148014   4.642   3.642   4.021  2.0597 -1.5824  2.4037
 8841TIP3    H248015   4.524   3.637   4.116  0.1816 -1.1580  0.1756
 8842TIP3   OH248016   4.610   6.596   3.937  0.3771  0.0812  0.2217
 8842TIP3    H148017   4.546   6.642   3.882  1.3639  0.2419 -0.8339
 8842TIP3    H248018   4.568   6.513   3.957 -0.1613  0.1688 -0.4839
 8843TIP3   OH248019   2.623   6.248  13.401 -0.0865 -0.3104  0.2607
 8843TIP3    H148020   2.717   6.262  13.387  0.1052  0.4284  2.0252
 8843TIP3    H248021   2.619   6.193  13.480 -1.1342  0.9707  1.1372
 8844TIP3   OH248022   1.253   0.146  16.484 -0.2535  0.1303  0.0572
 8844TIP3    H148023   1.326   0.182  16.434 -0.4314  2.5565  1.3462
 8844TIP3    H248024   1.179   0.149  16.424  0.1804  0.0683 -0.4861
 8845TIP3   OH248025   3.234   6.439  15.250 -0.0729 -0.1379  0.1253
 8845TIP3    H148026   3.251   6.533  15.249  1.4641 -0.3837  0.2704
 8845TIP3    H248027   3.281   6.407  15.327  1.4264 -1.3321 -1.2132
 8846TIP3   OH248028   0.799   4.101  12.542 -0.0092 -0.2268 -0.2710
 8846TIP3    H148029   0.711   4.115  12.577  0.1645 -0.3801  0.2358
 8846TIP3    H248030   0.821   4.184  12.499 -0.7623 -0.4948 -1.2139
 8847TIP3   OH248031   2.019   4.233   5.504  0.0629  0.2817 -0.4204
 8847TIP3    H148032   2.093   4.172   5.494  0.6964  0.8356  0.6814
 8847TIP3    H248033   2.002   4.234   5.598  0.3240  2.0825 -0.3555
 8848TIP3   OH248034   3.344   0.824   1.960  0.2680 -0.5901 -0.1429
 8848TIP3    H148035   3.252   0.809   1.981 -0.5391  1.8340 -1.5547
 8848TIP3    H248036   3.387   0.741   1.979 -1.7983 -1.1869  2.5985
 8849TIP3   OH248037   1.237   5.563  13.660  0.1838  0.4936  0.4128
 8849TIP3    H148038   1.149   5.598  13.643  0.3937  0.9773  0.3337
 8849TIP3    H248039   1.294   5.608  13.598  0.3455 -0.5299 -0.2197
 8850TIP3   OH248040   5.223   6.631   1.620 -0.3504  0.2426 -0.4521
 8850TIP3    H148041   5.170   6.691   1.671 -0.7184 -0.0488 -0.4877
 8850TIP3    H248042   5.313   6.652   1.643 -0.4600  1.0834 -0.7771
 8851TIP3   OH248043   3.494   2.152   1.914  0.1649 -0.0013  0.0334
 8851TIP3    H148044   3.423   2.090   1.933  0.1846 -0.4744 -1.2699
 8851TIP3    H248045   3.452   2.238   1.917 -0.0490 -0.1297  1.0510
 8852TIP3   OH248046   0.514   6.496   6.579 -1.1282 -0.4893 -0.0454
 8852TIP3    H148047   0.499   6.430   6.511  1.1012 -0.2581 -0.8507
 8852TIP3    H248048   0.426   6.528   6.600 -2.2325 -3.1678 -0.1210
 8853TIP3   OH248049   6.146   4.872  14.173 -0.4549  0.0454 -0.6436
 8853TIP3    H148050   6.089   4.947  14.190  0.2593  0.5137 -0.2691
 8853TIP3    H248051   6.092   4.796  14.196 -0.8944  0.4868 -0.1742
 8854TIP3   OH248052   3.751   1.008   3.530 -0.1434 -0.8315 -0.5641
 8854TIP3    H148053   3.732   0.994   3.437 -0.2301 -2.6402 -0.3157
 8854TIP3    H248054   3.843   1.035   3.532 -1.0195  2.6733 -1.3701
 8855TIP3   OH248055   4.703   1.061   5.495 -0.2697  0.0285 -0.2577
 8855TIP3    H148056   4.695   1.071   5.400  0.0659  0.8802 -0.2065
 8855TIP3    H248057   4.710   1.151   5.528  0.4258 -0.2957  0.5017
 8856TIP3   OH248058   5.980   1.484  13.023  0.5967  0.4602 -0.3139
 8856TIP3    H148059   6.030   1.535  12.959 -1.2321  1.7926 -0.7769
 8856TIP3    H248060   5.897   1.465  12.979 -0.3052  0.4844  1.2924
 8857TIP3   OH248061   6.361   4.850  13.517  0.3365 -0.0950 -0.3831
 8857TIP3    H148062   6.410   4.926  13.549  1.0971  0.0493 -1.8450
 8857TIP3    H248063   6.390   4.778  13.573 -1.1398  0.8196  1.7056
 8858TIP3   OH248064   4.346   3.556   0.575 -0.5718 -0.1531 -0.3777
 8858TIP3    H148065   4.374   3.521   0.490 -3.0295 -2.5570 -0.3479
 8858TIP3    H248066   4.273   3.614   0.553 -0.0386  0.6628 -0.0107
 8859TIP3   OH248067   3.742   3.709   4.307 -0.4258  0.0027 -0.2212
 8859TIP3    H148068   3.765   3.622   4.275 -1.1976 -0.0073 -0.7705
 8859TIP3    H248069   3.819   3.738   4.357  0.8850  0.0866 -2.1811
 8860TIP3   OH248070   4.762   4.116   3.043 -0.4758 -0.6033 -0.4138
 8860TIP3    H148071   4.690   4.177   3.029  1.4202  2.2218  1.0811
 8860TIP3    H248072   4.786   4.087   2.955 -1.0661  1.3462 -1.2743
 8861TIP3   OH248073   2.061   2.988   3.839 -0.5150 -0.3598  0.2798
 8861TIP3    H148074   2.096   3.066   3.883  0.1778 -1.2150  1.2919
 8861TIP3    H248075   1.969   2.984   3.866 -0.3647 -0.2842  0.8116
 8862TIP3   OH248076   1.830   1.945  14.936 -0.0018  0.0139 -0.1769
 8862TIP3    H148077   1.795   2.022  14.981 -1.6231 -0.8187  0.0417
 8862TIP3    H248078   1.915   1.974  14.903  0.5730  1.1382  2.0604
 8863TIP3   OH248079   4.337   2.100   3.241  0.2201  0.0406 -0.5856
 8863TIP3    H148080   4.375   2.180   3.204 -0.1927 -0.1187 -1.3661
 8863TIP3    H248081   4.255   2.088   3.194 -0.5225  0.0290  0.6510
 8864TIP3   OH248082   6.269   3.702   3.268  0.0899 -0.0169  0.2917
 8864TIP3    H148083   6.336   3.639   3.241 -1.9490 -1.4897 -1.6245
 8864TIP3    H248084   6.314   3.786   3.266  2.3322 -1.1201  0.8163
 8865TIP3   OH248085   6.238   3.228  13.500  0.2120  0.8391 -0.1279
 8865TIP3    H148086   6.333   3.221  13.514  0.0816 -0.2408  0.2759
 8865TIP3    H248087   6.218   3.161  13.436 -0.3481  0.7788  0.1059
 8866TIP3   OH248088   5.485   4.025   3.491 -0.6332 -0.1013 -0.2354
 8866TIP3    H148089   5.462   3.944   3.446 -2.6198 -0.6000  1.4898
 8866TIP3    H248090   5.435   4.022   3.573 -0.8847  2.9115 -0.1552
 8867TIP3   OH248091   0.619   0.807  16.083 -0.3885 -0.0969 -0.0294
 8867TIP3    H148092   0.603   0.760  16.001  0.1331  0.4915 -0.4650
 8867TIP3    H248093   0.553   0.877  16.084 -0.7243 -0.4098  0.3017
 8868TIP3   OH248094   3.432   4.307   1.952  0.0556  0.1214 -0.1496
 8868TIP3    H148095   3.521   4.274   1.942  0.2310  0.7905 -0.8922
 8868TIP3    H248096   3.393   4.300   1.865 -0.6390 -0.2000  0.1729
 8869TIP3   OH248097   6.114   0.160  15.544 -0.7063  0.1121  0.4893
 8869TIP3    H148098   6.178   0.203  15.600 -1.4647 -0.3846  1.7754
 8869TIP3    H248099   6.132   0.194  15.456  3.1077 -1.9785  0.2326
 8870TIP3   OH248100   5.766   4.545   2.005 -0.3928 -0.3442 -0.1038
 8870TIP3    H148101   5.824   4.611   2.041 -1.1755  0.2470  0.0943
 8870TIP3    H248102   5.821   4.467   1.996  0.0847 -0.2032  1.3585
 8871TIP3   OH248103   5.438   5.588   5.469 -0.6690 -0.0394  0.2081
 8871TIP3    H148104   5.479   5.594   5.555  0.2466 -0.7577 -0.1566
 8871TIP3    H248105   5.495   5.528   5.420 -1.3963  0.0484 -0.7659
 8872TIP3   OH248106   3.979   5.564  16.510  0.1185 -0.1339 -0.3262
 8872TIP3    H148107   3.939   5.640  16.468  0.3735  0.4725  0.4922
 8872TIP3    H248108   4.046   5.601  16.568  1.5134 -1.0977 -1.2671
 8873TIP3   OH248109   6.745   5.649  13.852 -0.0981  0.1118 -0.3285
 8873TIP3    H148110   6.685   5.574  13.848 -0.8961  0.7657 -0.6952
 8873TIP3    H248111   6.784   5.653  13.765 -0.4709  0.4569 -0.4821
 8874TIP3   OH248112   4.094   2.349   1.848 -0.1121 -0.6210  0.0594
 8874TIP3    H148113   4.170   2.291   1.850 -0.0674 -0.5543  0.6884
 8874TIP3    H248114   4.056   2.340   1.936 -0.4666 -0.1780 -0.0480
 8875TIP3   OH248115   1.870   1.606   6.087 -0.5895  0.3022 -0.0771
 8875TIP3    H148116   1.787   1.561   6.099 -0.1899 -0.5095 -0.3018
 8875TIP3    H248117   1.850   1.698   6.103 -0.8827 -0.1896  3.1743
 8876TIP3   OH248118   0.966   5.844  15.861 -0.0809  0.5173 -0.2502
 8876TIP3    H148119   1.031   5.785  15.899  0.1625  1.2359  0.4692
 8876TIP3    H248120   0.901   5.856  15.930 -0.3246  0.7960 -0.5250
 8877TIP3   OH248121   6.266   6.689  16.339 -0.0471  0.2717  0.0590
 8877TIP3    H148122   6.339   6.734  16.296 -0.3000  0.7097  0.0907
 8877TIP3    H248123   6.217   6.649  16.267  1.7390 -2.3645  0.1715
 8878TIP3   OH248124   1.854   2.012  15.666 -0.2619 -0.4036 -0.2662
 8878TIP3    H148125   1.814   2.039  15.749 -1.4945  1.0674 -1.2957
 8878TIP3    H248126   1.786   1.962  15.621  0.3009 -0.9433 -0.5334
 8879TIP3   OH248127   4.977   3.189  17.035 -0.5126 -0.6236  0.1656
 8879TIP3    H148128   5.006   3.281  17.032 -0.9969 -0.3021  2.6295
 8879TIP3    H248129   5.023   3.153  17.111 -0.8413 -2.2377 -0.3780
 8880TIP3   OH248130   3.876   3.303  12.468  0.1668 -0.0294 -0.4261
 8880TIP3    H148131   3.953   3.246  12.477 -0.5116 -1.0298 -0.7416
 8880TIP3    H248132   3.803   3.242  12.457 -0.5693  0.9211 -0.9160
 8881TIP3   OH248133   0.228   3.060  14.962 -0.0203  0.7334 -0.2249
 8881TIP3    H148134   0.169   3.127  14.928 -2.1167 -0.0057  1.7257
 8881TIP3    H248135   0.279   3.033  14.886 -2.2465  1.3380 -2.0627
 8882TIP3   OH248136   0.942   2.142  12.671  0.0713  0.6517  0.2266
 8882TIP3    H148137   1.005   2.209  12.699  0.5601 -0.2299  1.3503
 8882TIP3    H248138   0.921   2.165  12.581  1.3006  1.5084  0.1275
 8883TIP3   OH248139   5.378   2.160   3.450 -0.1561  0.4165 -0.1596
 8883TIP3    H148140   5.408   2.152   3.540 -1.0840 -0.6388  0.0860
 8883TIP3    H248141   5.304   2.100   3.444 -0.8684  1.3510 -1.3032
 8884TIP3   OH248142   6.490   1.225   3.448 -0.2635 -0.5843  0.1897
 8884TIP3    H148143   6.440   1.167   3.505 -0.0644 -0.2698  0.6865
 8884TIP3    H248144   6.449   1.215   3.362 -2.6837  1.4003  1.0147
 8885TIP3   OH248145   0.978   1.307  14.043 -0.1239 -0.5670  0.2301
 8885TIP3    H148146   0.935   1.311  14.128 -1.1940 -1.1336 -0.2602
 8885TIP3    H248147   0.906   1.314  13.980  0.7833  1.6022 -0.6678
 8886TIP3   OH248148   5.868   2.294   4.011 -0.1928  0.2556  0.1244
 8886TIP3    H148149   5.779   2.314   3.984 -0.6697 -1.2000  0.4964
 8886TIP3    H248150   5.914   2.273   3.929 -0.3254  0.5132 -0.0166
 8887TIP3   OH248151   1.837   1.606   1.958  0.0233  0.0731 -0.5429
 8887TIP3    H148152   1.885   1.589   2.040  2.0046  0.3217 -1.5874
 8887TIP3    H248153   1.769   1.539   1.956  0.9818 -0.9855  0.5321
 8888TIP3   OH248154   0.199   4.400  14.321  0.5580 -0.2190  0.1123
 8888TIP3    H148155   0.170   4.329  14.264  0.1291 -0.5608  0.7368
 8888TIP3    H248156   0.290   4.415  14.297 -0.1420  1.0140 -2.0548
 8889TIP3   OH248157   4.659   0.702  13.350 -0.1632 -0.1865 -0.2924
 8889TIP3    H148158   4.668   0.798  13.352 -1.5500 -0.0187 -0.8206
 8889TIP3    H248159   4.633   0.683  13.260 -1.3896 -0.9035  0.1907
 8890TIP3   OH248160   5.913   6.760  12.632 -0.1700  0.1533 -0.1101
 8890TIP3    H148161   5.926   6.665  12.621 -0.5119  0.3103 -2.2848
 8890TIP3    H248162   5.830   6.778  12.589  1.4745  1.8988 -2.8381
 8891TIP3   OH248163   2.782   1.470   2.284 -0.4840  0.1806  0.9287
 8891TIP3    H148164   2.875   1.474   2.262 -0.7760  1.0057 -0.2824
 8891TIP3    H248165   2.776   1.405   2.354  1.1934  1.2209  2.1087
 8892TIP3   OH248166   4.717   3.354  16.509  0.0551  0.7325 -0.6106
 8892TIP3    H148167   4.697   3.371  16.601 -2.8959  0.9917 -1.2033
 8892TIP3    H248168   4.663   3.416  16.460  1.0838  0.1923 -2.5446
 8893TIP3   OH248169   5.680   3.296  11.547  0.2118 -0.1524 -0.4426
 8893TIP3    H148170   5.699   3.301  11.454  0.4694  0.0489 -0.3810
 8893TIP3    H248171   5.766   3.285  11.588  0.3226  1.7123 -0.0887
 8894TIP3   OH248172   2.604   3.136  16.393 -0.3862  0.0518  0.3636
 8894TIP3    H148173   2.630   3.227  16.381  3.8329 -0.6394  2.5019
 8894TIP3    H248174   2.555   3.137  16.476 -2.5239  0.5856 -0.8331
 8895TIP3   OH248175   0.465   0.184  13.095 -0.4789 -0.1332 -0.0508
 8895TIP3    H148176   0.495   0.093  13.090 -1.9735 -0.7451  1.4219
 8895TIP3    H248177   0.383   0.180  13.144 -0.9273  1.9479 -0.5312
 8896TIP3   OH248178   5.889   2.545  10.463  0.1609 -0.1395 -0.8961
 8896TIP3    H148179   5.889   2.640  10.453  0.6370 -0.2111 -1.6257
 8896TIP3    H248180   5.869   2.531  10.556 -1.0112  0.6411 -1.0021
 8897TIP3   OH248181   0.534   4.215  15.414  0.0163 -0.1625 -0.8817
 8897TIP3    H148182   0.608   4.175  15.460 -0.7672 -0.6026  0.0352
 8897TIP3    H248183   0.545   4.309  15.429  1.1243 -0.0948 -1.9161
 8898TIP3   OH248184   0.904   6.160  15.081 -0.7898 -0.0730  0.0750
 8898TIP3    H148185   0.955   6.188  15.157  0.1324 -0.9547 -0.1942
 8898TIP3    H248186   0.850   6.088  15.114 -0.5865 -0.2779 -0.0357
 8899TIP3   OH248187   1.846   4.838  15.257  0.3244  0.2443  0.1703
 8899TIP3    H148188   1.839   4.912  15.196  0.2690  0.1424  0.0530
 8899TIP3    H248189   1.874   4.878  15.339  0.3734  0.3860  0.0858
 8900TIP3   OH248190   1.592   3.755  13.470 -0.2422  0.2472  0.4968
 8900TIP3    H148191   1.562   3.824  13.410 -0.1780 -0.7129 -0.6902
 8900TIP3    H248192   1.681   3.736  13.441 -1.0811 -2.0212 -0.8608
 8901TIP3   OH248193   6.498   3.212   1.119 -0.0380  0.1272  0.3800
 8901TIP3    H148194   6.456   3.142   1.069  0.3401  0.8944 -1.0797
 8901TIP3    H248195   6.573   3.170   1.161  0.2721 -0.3476 -0.6058
 8902TIP3   OH248196   5.898   3.749  15.584  0.5624 -0.1610 -0.1248
 8902TIP3    H148197   5.906   3.781  15.494  3.2780  1.1193  0.4771
 8902TIP3    H248198   5.988   3.734  15.613 -0.3352 -2.7715  1.6690
 8903TIP3   OH248199   4.746   6.205  16.031  0.4360 -0.0096  0.5139
 8903TIP3    H148200   4.699   6.136  16.078  0.4198 -0.5247 -0.2344
 8903TIP3    H248201   4.677   6.254  15.985  0.4578  0.4433  0.9516
 8904TIP3   OH248202   5.201   4.259  14.434  0.9381 -0.3912  1.2718
 8904TIP3    H148203   5.156   4.291  14.356  0.6396 -1.0336  1.1757
 8904TIP3    H248204   5.183   4.165  14.436  0.4861 -0.2951  2.4101
 8905TIP3   OH248205   2.167   4.456   3.947  0.1909  0.3882 -0.3645
 8905TIP3    H148206   2.103   4.394   3.981  0.2721  0.6401  0.2678
 8905TIP3    H248207   2.170   4.439   3.853 -0.5471  0.1406 -0.3485
 8906TIP3   OH248208   4.615   2.381  11.344  0.0490  0.9184 -0.2022
 8906TIP3    H148209   4.646   2.451  11.286 -0.2236  0.9884 -0.2664
 8906TIP3    H248210   4.594   2.309  11.284 -0.3090  1.0185 -0.2015
 8907TIP3   OH248211   0.288   6.548  14.492 -0.1365 -0.3434 -0.0542
 8907TIP3    H148212   0.314   6.456  14.488 -1.2328 -0.7284  1.0882
 8907TIP3    H248213   0.322   6.579  14.576 -0.3230  0.1269 -0.1481
 8908TIP3   OH248214   3.700   3.347   5.764 -0.2813  0.3480  0.4963
 8908TIP3    H148215   3.670   3.381   5.849  0.5089 -0.3527  1.0735
 8908TIP3    H248216   3.623   3.307   5.726 -0.7786  1.1363  0.6373
 8909TIP3   OH248217   6.282   6.074  13.235  0.0840 -0.1695 -0.3986
 8909TIP3    H148218   6.236   6.070  13.151 -0.5932  1.2556 -0.1098
 8909TIP3    H248219   6.231   6.017  13.293  0.3423 -0.8638 -0.8374
 8910TIP3   OH248220   2.240   0.016   3.415 -0.1700 -0.1916  0.0478
 8910TIP3    H148221   2.289  -0.046   3.361  0.3791  0.1646  0.1422
 8910TIP3    H248222   2.246  -0.019   3.504  0.3334  0.1162  0.1373
 8911TIP3   OH248223   0.671   2.414   5.559  0.5115 -0.4932 -0.0537
 8911TIP3    H148224   0.739   2.476   5.534  0.3189 -0.1792  0.1864
 8911TIP3    H248225   0.714   2.329   5.559  0.6995 -0.3974 -0.7004
 8912TIP3   OH248226   6.323   2.012  11.140 -0.3661  0.0195 -0.1753
 8912TIP3    H148227   6.346   1.922  11.162  2.3158  0.6938  0.1540
 8912TIP3    H248228   6.267   2.040  11.212 -0.1968 -0.9941  0.3747
 8913TIP3   OH248229   6.563   2.115  17.160  0.0873  0.2610  0.4720
 8913TIP3    H148230   6.529   2.144  17.244  1.4595  1.1756  0.7432
 8913TIP3    H248231   6.634   2.177  17.140 -0.8338  0.6701 -1.8181
 8914TIP3   OH248232   5.606   0.827   3.341  0.2759  0.0169  0.0328
 8914TIP3    H148233   5.586   0.755   3.401 -2.0443  0.3471 -0.2375
 8914TIP3    H248234   5.524   0.877   3.337  1.6193  2.3175 -0.2838
 8915TIP3   OH248235   0.325   1.009  17.103  0.8729 -0.0415 -0.3026
 8915TIP3    H148236   0.393   0.967  17.050  0.0280 -2.2590  0.2800
 8915TIP3    H248237   0.288   0.939  17.156 -2.6062  0.7959 -1.3423
 8916TIP3   OH248238   5.590   6.386  15.479  0.3725  0.5519 -0.2161
 8916TIP3    H148239   5.526   6.346  15.420  0.5059  1.8665 -1.3238
 8916TIP3    H248240   5.673   6.346  15.455  0.5004  1.4030 -1.2917
 8917TIP3   OH248241   2.169   1.660  13.736 -0.0485  0.1350  0.3528
 8917TIP3    H148242   2.121   1.616  13.666 -0.0270 -0.5968  0.7900
 8917TIP3    H248243   2.175   1.595  13.806  0.7602  0.5309  0.6690
 8918TIP3   OH248244   3.926   3.459   0.483  0.1647 -0.1726 -0.5060
 8918TIP3    H148245   3.971   3.509   0.552  1.7912 -1.3688 -0.6373
 8918TIP3    H248246   3.992   3.449   0.414  0.1404 -2.9655 -0.2285
 8919TIP3   OH248247   6.161   5.308   6.151  0.2234  0.3105  0.0309
 8919TIP3    H148248   6.164   5.307   6.056  1.9134  0.8550  0.0367
 8919TIP3    H248249   6.226   5.243   6.178 -0.6862 -0.2963  0.8273
 8920TIP3   OH248250   6.275   4.646   4.657 -0.0878 -0.6377  0.2993
 8920TIP3    H148251   6.256   4.553   4.671  0.9578 -1.1760 -1.4543
 8920TIP3    H248252   6.366   4.656   4.687  0.3404 -0.5764 -0.9722
 8921TIP3   OH248253   1.220   4.249  14.425  0.3114 -0.5203  0.6249
 8921TIP3    H148254   1.291   4.310  14.404  0.5298 -0.1762  2.2394
 8921TIP3    H248255   1.264   4.173  14.464 -0.2631  0.5012  3.4535
 8922TIP3   OH248256   6.065   2.730   0.602  0.1511 -0.1060 -0.2562
 8922TIP3    H148257   6.123   2.662   0.568  0.9822  0.5598 -0.1734
 8922TIP3    H248258   6.057   2.793   0.531  0.8904  0.6566  0.3294
 8923TIP3   OH248259   1.193   3.518  11.595 -0.4780  0.3916 -0.2577
 8923TIP3    H148260   1.108   3.561  11.598 -1.5661 -1.7139  1.3592
 8923TIP3    H248261   1.174   3.428  11.570  1.5376  0.3188 -1.8617
 8924TIP3   OH248262   0.029   0.628  17.173  0.4014  0.0294 -0.3720
 8924TIP3    H148263  -0.023   0.706  17.154 -0.7400 -0.8270 -0.8236
 8924TIP3    H248264   0.099   0.630  17.107  0.3933  0.6563 -0.3726
 8925TIP3   OH248265   4.160   4.796  16.109  0.3077 -0.1385 -0.1680
 8925TIP3    H148266   4.218   4.776  16.035 -0.9609 -1.3586 -0.8831
 8925TIP3    H248267   4.081   4.745  16.091 -1.1523  1.7579  0.5661
 8926TIP3   OH248268   5.632   2.985  13.736 -0.5646  0.4044 -0.4225
 8926TIP3    H148269   5.686   2.910  13.712  0.7999  1.2117 -0.0155
 8926TIP3    H248270   5.562   2.987  13.671  0.7580  0.1791 -1.9033
 8927TIP3   OH248271   0.583   6.346  14.398  0.0335 -1.0844  0.1455
 8927TIP3    H148272   0.590   6.375  14.307 -0.7437 -0.8616  0.1518
 8927TIP3    H248273   0.499   6.299  14.402 -1.0334  0.8031  1.2428
 8928TIP3   OH248274   4.909   0.111  16.312 -0.3733  0.2887  0.9787
 8928TIP3    H148275   4.981   0.158  16.355 -0.0823 -0.3852  1.2335
 8928TIP3    H248276   4.840   0.177  16.304  0.5722  1.1937 -0.0600
 8929TIP3   OH248277   4.368   1.167   5.642  0.9183  0.2020  0.1667
 8929TIP3    H148278   4.289   1.215   5.617  1.1248  1.7114  2.1645
 8929TIP3    H248279   4.440   1.226   5.619  1.5526 -1.2642 -1.8789
 8930TIP3   OH248280   2.874   4.488   3.692 -0.1893  0.0819  0.3069
 8930TIP3    H148281   2.922   4.500   3.774  2.2296  0.7844 -1.1322
 8930TIP3    H248282   2.811   4.418   3.711  3.3387 -3.0833  1.5694
 8931TIP3   OH248283   6.299   0.167  16.358  0.0315 -0.7944 -0.1456
 8931TIP3    H148284   6.267   0.208  16.438  1.5006  0.9604 -0.4052
 8931TIP3    H248285   6.386   0.134  16.381  1.2248  1.2727 -1.4087
 8932TIP3   OH248286   3.120   5.440   1.525  0.5371 -0.2298  0.3136
 8932TIP3    H148287   3.086   5.428   1.436  1.7764 -0.3197 -0.1754
 8932TIP3    H248288   3.059   5.501   1.566  0.0608 -0.0157 -0.6764
 8933TIP3   OH248289   3.001   3.054   1.817  0.5416  0.0090 -0.0289
 8933TIP3    H148290   3.006   3.120   1.886  0.6942 -1.4296  1.4072
 8933TIP3    H248291   3.067   3.080   1.753 -0.0776  1.7514 -0.0100
 8934TIP3   OH248292   2.586   6.553  14.068 -0.3125 -0.2404  0.3515
 8934TIP3    H148293   2.540   6.485  14.117 -2.0541  0.7739  0.1915
 8934TIP3    H248294   2.632   6.504  13.999 -1.0404 -1.3208  0.5910
 8935TIP3   OH248295   3.841   4.456   4.061 -0.8085 -0.2863 -0.7086
 8935TIP3    H148296   3.887   4.414   4.134 -2.5041 -0.8725  0.0812
 8935TIP3    H248297   3.883   4.423   3.983  0.8265  0.0728 -0.0216
 8936TIP3   OH248298   4.521   5.408  14.666  0.4395 -0.2389 -0.2373
 8936TIP3    H148299   4.594   5.456  14.704 -0.1854  0.8977 -0.4246
 8936TIP3    H248300   4.447   5.427  14.724  0.5740 -2.5893  0.8215
 8937TIP3   OH248301   0.426   1.706   5.713  0.1123  0.0527  0.2564
 8937TIP3    H148302   0.467   1.685   5.797 -0.4256 -1.1202  0.2454
 8937TIP3    H248303   0.374   1.785   5.731  1.8433  1.2144  0.4169
 8938TIP3   OH248304   5.242   3.401   6.462  0.0249 -0.1774  0.3945
 8938TIP3    H148305   5.259   3.315   6.501 -1.2377 -0.8724 -0.5278
 8938TIP3    H248306   5.146   3.408   6.459 -0.0025 -0.3947 -2.9797
 8939TIP3   OH248307   4.565   0.001   5.669  0.6694  0.4187 -0.8504
 8939TIP3    H148308   4.496   0.068   5.669  1.9644  1.8238  0.7053
 8939TIP3    H248309   4.590  -0.009   5.761 -0.2341 -3.1094 -0.8088
 8940TIP3   OH248310   4.395   2.997   2.176 -0.4589 -0.3371 -0.4976
 8940TIP3    H148311   4.379   3.067   2.112  0.5288  0.4869  0.1180
 8940TIP3    H248312   4.428   2.924   2.124  2.2911  0.9811 -0.8040
 8941TIP3   OH248313   0.450   2.873   3.657  0.2567  0.1081  0.1941
 8941TIP3    H148314   0.430   2.823   3.578 -1.0614 -2.6950  2.1262
 8941TIP3    H248315   0.365   2.903   3.688  0.7826  1.3902  0.4462
 8942TIP3   OH248316   5.687   2.187   2.595 -0.1602 -0.5206 -0.6000
 8942TIP3    H148317   5.758   2.182   2.659  0.8456  1.0651 -1.5317
 8942TIP3    H248318   5.634   2.262   2.623  0.0576 -0.0650 -1.3544
 8943TIP3   OH248319   4.151   2.116   6.284 -0.1313  0.6488 -0.0270
 8943TIP3    H148320   4.137   2.210   6.296  0.8265  0.6974  0.8603
 8943TIP3    H248321   4.199   2.108   6.202 -0.1028  0.9440 -0.0367
 8944TIP3   OH248322   0.812   4.059  11.530 -0.6248  0.1406  0.1985
 8944TIP3    H148323   0.841   3.984  11.582 -0.1879  0.7435  0.8295
 8944TIP3    H248324   0.766   4.019  11.456  0.4227 -0.7829  0.0117
 8945TIP3   OH248325   4.037   5.702  10.609  0.3339  0.5791  0.1710
 8945TIP3    H148326   4.092   5.750  10.548  0.3689  0.4548  0.1052
 8945TIP3    H248327   3.993   5.770  10.660  1.7272  0.6936  1.2954
 8946TIP3   OH248328   2.719   0.558  17.238  0.0314 -0.4730 -0.0849
 8946TIP3    H148329   2.713   0.588  17.147 -0.6857 -0.2985  0.0177
 8946TIP3    H248330   2.662   0.482  17.242 -0.0444 -0.3986  0.2537
 8947TIP3   OH248331   1.125   3.862  14.316  0.4044 -0.4047  0.0875
 8947TIP3    H148332   1.164   3.817  14.391 -0.0818  0.3568  0.8133
 8947TIP3    H248333   1.117   3.794  14.249 -0.6060 -1.4887  1.2541
 8948TIP3   OH248334   5.771   6.372   0.884  0.0889 -0.5396 -0.4131
 8948TIP3    H148335   5.818   6.302   0.838  2.0322  0.0668  0.5268
 8948TIP3    H248336   5.769   6.445   0.821 -0.5830 -0.9168 -0.8424
 8949TIP3   OH248337   1.932   1.736   3.621  0.0083  0.0120 -0.6583
 8949TIP3    H148338   2.024   1.746   3.595 -0.4930 -0.1497 -2.6280
 8949TIP3    H248339   1.933   1.666   3.686  1.0564 -1.4597 -2.2001
 8950TIP3   OH248340   0.494   6.368   5.830  0.0766 -0.7052 -0.2037
 8950TIP3    H148341   0.566   6.421   5.863 -0.4498 -0.1330  0.0394
 8950TIP3    H248342   0.449   6.337   5.909 -1.2830  0.7956 -0.3399
 8951TIP3   OH248343   5.229   2.330  12.597  0.1705  0.0620  0.3867
 8951TIP3    H148344   5.263   2.330  12.686  2.4976  1.1438 -0.3987
 8951TIP3    H248345   5.263   2.412  12.559 -2.7266  0.8266 -0.8130
 8952TIP3   OH248346   1.335   4.966   6.993  0.4077 -0.2434  0.4660
 8952TIP3    H148347   1.277   4.968   6.917 -1.7263 -2.9924  1.8268
 8952TIP3    H248348   1.304   5.036   7.050  1.7377  1.5384 -0.9017
 8953TIP3   OH248349   3.525   6.760  12.685  0.4209 -0.4046 -0.0749
 8953TIP3    H148350   3.463   6.725  12.750  0.0741  0.5065  0.1140
 8953TIP3    H248351   3.543   6.849  12.716  0.5242 -0.0774 -1.0396
 8954TIP3   OH248352   6.036   6.608  15.149  0.4055  0.0350  0.0564
 8954TIP3    H148353   5.943   6.628  15.153  0.6605  1.0695  1.5636
 8954TIP3    H248354   6.068   6.623  15.238  1.9850 -0.4580 -0.3934
 8955TIP3   OH248355   2.433   1.191   5.500 -0.3626 -0.5362 -0.0181
 8955TIP3    H148356   2.369   1.248   5.542 -0.0610 -0.0041 -0.2651
 8955TIP3    H248357   2.490   1.162   5.572 -0.1672 -0.0545  0.0277
 8956TIP3   OH248358   0.355   6.621   1.085 -0.3076  0.0995  0.5075
 8956TIP3    H148359   0.418   6.553   1.108 -0.2942 -0.2707 -0.5693
 8956TIP3    H248360   0.285   6.574   1.039  0.5026  0.9814 -1.7821
 8957TIP3   OH248361   6.215   0.578   1.410 -0.1915 -0.1518 -0.6444
 8957TIP3    H148362   6.296   0.609   1.369 -0.7582 -2.8847 -4.3189
 8957TIP3    H248363   6.237   0.491   1.444 -0.6319  0.7462  2.2323
 8958TIP3   OH248364   2.662   2.420  15.783  0.0303 -0.3536  0.3325
 8958TIP3    H148365   2.688   2.476  15.856 -1.1333  0.1905  0.3443
 8958TIP3    H248366   2.743   2.408  15.733  0.8929 -0.8727  1.7761
 8959TIP3   OH248367   3.430   4.135   5.535 -0.1413 -0.2758 -0.1322
 8959TIP3    H148368   3.493   4.085   5.484 -0.5913 -3.7402  2.3663
 8959TIP3    H248369   3.458   4.226   5.524  2.1563 -1.1604 -3.1262
 8960TIP3   OH248370   2.583   6.309   5.164 -0.5201 -0.5181 -0.2985
 8960TIP3    H148371   2.600   6.219   5.136  1.4879 -0.4544  0.5169
 8960TIP3    H248372   2.669   6.352   5.158 -1.5324  1.4801 -1.1256
 8961TIP3   OH248373   5.529   4.155   2.050 -0.2208 -0.3308 -0.5369
 8961TIP3    H148374   5.560   4.192   2.132  0.9303 -1.4776 -0.4295
 8961TIP3    H248375   5.515   4.062   2.069 -1.1620 -0.3693 -1.3175
 8962TIP3   OH248376   3.698   3.180  14.679  0.0839 -0.2793  0.1945
 8962TIP3    H148377   3.725   3.133  14.600 -0.2647 -0.1853  0.0147
 8962TIP3    H248378   3.700   3.114  14.748  1.5931 -0.0830  0.3698
 8963TIP3   OH248379   2.664   4.725  17.184 -0.7217  0.3904  0.5932
 8963TIP3    H148380   2.735   4.689  17.131 -2.3609  1.0205 -2.2259
 8963TIP3    H248381   2.698   4.809  17.214  0.7541 -0.5836  1.8393
 8964TIP3   OH248382   6.486   3.614  13.048 -0.4446  0.1292 -0.2373
 8964TIP3    H148383   6.428   3.675  13.094 -1.5113 -1.1382  0.1926
 8964TIP3    H248384   6.520   3.663  12.974 -1.1951  1.2593  0.1468
 8965TIP3   OH248385   1.972   6.758   0.821  0.2319 -0.4845 -0.2554
 8965TIP3    H148386   1.924   6.681   0.790 -2.0361  0.3908  0.8591
 8965TIP3    H248387   1.918   6.794   0.891  1.8294  1.4471  0.0918
 8966TIP3   OH248388   5.396   2.340  14.224  0.3104 -0.5018  0.2802
 8966TIP3    H148389   5.401   2.392  14.304  0.2690 -0.8491  0.5092
 8966TIP3    H248390   5.329   2.275  14.241 -0.3607  0.0022 -0.3873
 8967TIP3   OH248391   5.474   2.834   6.281  0.3469  0.4358 -0.3270
 8967TIP3    H148392   5.391   2.838   6.234 -0.3647 -1.9065  0.5921
 8967TIP3    H248393   5.529   2.776   6.229  0.4877 -0.0609  0.3566
 8968TIP3   OH248394   3.058   0.944   3.282  0.1482  0.0198  0.3928
 8968TIP3    H148395   2.981   0.966   3.230  0.9455  1.5433 -0.2383
 8968TIP3    H248396   3.023   0.904   3.362 -1.2902  0.6914  0.1385
 8969TIP3   OH248397   4.482   3.563   1.055 -0.3218 -0.5357 -0.0475
 8969TIP3    H148398   4.491   3.470   1.073 -2.0774 -0.5858  0.7690
 8969TIP3    H248399   4.439   3.599   1.133  1.7354  1.2879  0.3654
 8970TIP3   OH248400   2.020   2.982   2.239  0.4123 -0.0234 -0.0067
 8970TIP3    H148401   1.984   3.052   2.184 -1.4663 -1.0760 -0.1952
 8970TIP3    H248402   2.070   2.928   2.178  0.9583  0.5429 -0.0686
 8971TIP3   OH248403   5.894   1.789  11.866  0.2156  0.1385 -0.2298
 8971TIP3    H148404   5.888   1.841  11.946 -1.6516 -0.0067 -0.2419
 8971TIP3    H248405   5.950   1.715  11.890 -1.1380 -0.4555  1.2906
 8972TIP3   OH248406   3.852   2.000   2.285  0.1048  0.0547  0.0250
 8972TIP3    H148407   3.918   2.063   2.314  0.5591  0.2722 -1.4007
 8972TIP3    H248408   3.900   1.941   2.227 -0.8196 -0.2075 -0.4798
 8973TIP3   OH248409   6.250   3.043   4.333 -0.2206 -1.1612 -0.6377
 8973TIP3    H148410   6.171   3.020   4.284 -1.6260 -0.4876  1.1788
 8973TIP3    H248411   6.250   3.139   4.334 -0.6950 -1.1368  1.2843
 8974TIP3   OH248412   2.259   0.709   1.691 -0.6059  0.1665 -0.7731
 8974TIP3    H148413   2.339   0.684   1.737 -2.2564 -1.1667  1.6312
 8974TIP3    H248414   2.267   0.803   1.677  0.3470  0.5284  1.7071
 8975TIP3   OH248415   1.870   5.287  13.507  0.1798  0.2276  0.4668
 8975TIP3    H148416   1.963   5.304  13.524  0.1305 -0.7970  1.8731
 8975TIP3    H248417   1.867   5.197  13.475 -0.4613 -0.3332  2.0061
 8976TIP3   OH248418   2.469   1.835  13.871  0.3307  0.4829  0.5507
 8976TIP3    H148419   2.546   1.789  13.837  0.9724  1.4282  0.6764
 8976TIP3    H248420   2.437   1.780  13.943  1.5150  0.5638  1.1709
 8977TIP3   OH248421   3.701   5.448   2.812  0.3460  0.2231  0.0228
 8977TIP3    H148422   3.719   5.356   2.833 -0.1990 -0.4147 -2.1009
 8977TIP3    H248423   3.762   5.468   2.741  1.3428  1.9411  1.2760
 8978TIP3   OH248424   5.844   4.679  13.075 -0.3171 -0.1005  0.0403
 8978TIP3    H148425   5.826   4.587  13.096  0.2095  0.0835  1.3774
 8978TIP3    H248426   5.922   4.700  13.126 -0.5645  1.1580 -0.0718
 8979TIP3   OH248427   5.432   3.174  13.645  0.3058  0.4929  0.1138
 8979TIP3    H148428   5.489   3.222  13.705 -0.8226  1.6902  0.2506
 8979TIP3    H248429   5.345   3.209  13.661 -0.1303  0.3363 -1.7157
 8980TIP3   OH248430   5.724   5.523  13.234 -0.2183  0.2446 -0.1878
 8980TIP3    H148431   5.802   5.567  13.199  0.4641  0.4410  1.5037
 8980TIP3    H248432   5.736   5.431  13.210  0.2655  0.3649 -0.4178
 8981TIP3   OH248433   6.639   5.725   4.222  0.1851 -0.0208 -0.1339
 8981TIP3    H148434   6.648   5.634   4.249 -0.7045  0.1637  0.8107
 8981TIP3    H248435   6.553   5.752   4.254 -0.1004  0.7829 -1.4907
 8982TIP3   OH248436   5.098   0.293  17.263  0.3723  0.0217 -0.4063
 8982TIP3    H148437   5.041   0.271  17.189 -1.2816  1.4471  0.3646
 8982TIP3    H248438   5.163   0.352  17.226  0.9424 -1.0316 -1.1486
 8983TIP3   OH248439   6.736   4.500   0.801  0.5193  0.0303  0.0441
 8983TIP3    H148440   6.789   4.446   0.742  1.8662  2.0687 -0.7219
 8983TIP3    H248441   6.788   4.507   0.881  1.1822  1.5359 -0.4846
 8984TIP3   OH248442   2.708   6.087   5.989  0.1538 -0.0401 -0.1816
 8984TIP3    H148443   2.683   6.063   6.079  0.8912  0.6614  0.2295
 8984TIP3    H248444   2.789   6.038   5.974 -0.6237 -1.1457 -0.9538
 8985TIP3   OH248445   2.073   0.537  11.637  0.5917  0.0893  0.2766
 8985TIP3    H148446   2.145   0.500  11.688  0.9361  0.6221  0.1775
 8985TIP3    H248447   2.101   0.526  11.546  1.0949  1.3773  0.2606
 8986TIP3   OH248448   1.693   4.791   5.344 -0.0199  0.4700 -0.0588
 8986TIP3    H148449   1.684   4.787   5.439  0.2762  0.9536 -0.0041
 8986TIP3    H248450   1.695   4.884   5.325 -3.7046  0.5131 -0.9121
 8987TIP3   OH248451   1.051   3.420   3.820  0.1101  0.4606 -0.9598
 8987TIP3    H148452   1.076   3.467   3.900  1.6167 -2.8443  0.7031
 8987TIP3    H248453   0.969   3.375   3.843  0.7865 -0.8684 -1.0391
 8988TIP3   OH248454   2.564   2.512   1.251 -0.2002  0.3586 -0.8813
 8988TIP3    H148455   2.584   2.601   1.280 -1.4110  0.7788 -1.2801
 8988TIP3    H248456   2.533   2.468   1.330  2.6732 -0.4761 -0.1182
 8989TIP3   OH248457   6.534   0.291  13.241  0.1387  0.6379 -0.1349
 8989TIP3    H148458   6.464   0.258  13.297 -0.2653  0.2611 -0.8614
 8989TIP3    H248459   6.600   0.221  13.241  0.1246  0.6248 -0.1591
 8990TIP3   OH248460   2.698   5.035  11.921 -0.5173 -0.3111  0.4637
 8990TIP3    H148461   2.698   5.128  11.897  1.4547 -0.2973  0.3369
 8990TIP3    H248462   2.752   5.031  12.000 -0.6999 -1.3333  0.5467
 8991TIP3   OH248463   2.636   5.663   4.806 -0.0716  0.4932 -0.5602
 8991TIP3    H148464   2.672   5.615   4.731  0.3108 -0.3819  0.1735
 8991TIP3    H248465   2.545   5.679   4.782 -0.2730 -0.7896 -0.7334
 8992TIP3   OH248466   3.662   5.713   4.738 -0.6228 -0.7228 -0.4256
 8992TIP3    H148467   3.587   5.764   4.709 -0.3220 -0.2152 -0.3354
 8992TIP3    H248468   3.626   5.627   4.761 -1.0690 -0.6867 -0.9843
 8993TIP3   OH248469   5.554   2.611   1.605  0.4241  0.7112 -0.2666
 8993TIP3    H148470   5.646   2.588   1.616  0.5183  0.1887 -1.9457
 8993TIP3    H248471   5.554   2.706   1.593  0.7897  0.6650 -0.6430
 8994TIP3   OH248472   1.466   2.934  15.191 -0.0413 -0.8634  0.2624
 8994TIP3    H148473   1.371   2.918  15.191 -0.0679 -0.8284  1.6779
 8994TIP3    H248474   1.500   2.875  15.258  0.5812  0.9987  1.6436
 8995TIP3   OH248475   0.627   1.051   3.894 -0.1698 -0.6244 -0.1766
 8995TIP3    H148476   0.561   1.094   3.840 -0.2827 -0.9685 -0.3167
 8995TIP3    H248477   0.591   1.053   3.982  0.4634  0.8427  0.0753
 8996TIP3   OH248478   3.151   4.676  15.523 -0.2904  0.1609  0.4067
 8996TIP3    H148479   3.190   4.650  15.440 -0.7674 -0.6931  0.4341
 8996TIP3    H248480   3.222   4.667  15.587 -0.7189 -2.3802  0.6380
 8997TIP3   OH248481   3.474   1.072   1.941 -0.0090 -0.3510 -0.0659
 8997TIP3    H148482   3.526   1.054   1.862 -0.2108 -0.9082 -0.0734
 8997TIP3    H248483   3.412   1.000   1.946 -0.2329 -0.1306  0.4124
 8998TIP3   OH248484   3.306   6.734   0.747 -0.4398  0.0344 -0.2089
 8998TIP3    H148485   3.386   6.709   0.793 -0.0602  0.3003 -0.7111
 8998TIP3    H248486   3.236   6.688   0.793  0.0074 -0.2352  0.2070
 8999TIP3   OH248487   3.977   4.300   1.645  0.2892 -0.5352 -0.0998
 8999TIP3    H148488   3.941   4.257   1.568  0.7935 -1.1173 -0.0208
 8999TIP3    H248489   4.045   4.241   1.676  1.7955  0.8221 -0.6480
 9000TIP3   OH248490   0.311   5.102  11.467  0.4908 -0.1250 -0.2141
 9000TIP3    H148491   0.364   5.125  11.543 -1.8956  2.3621  0.8610
 9000TIP3    H248492   0.238   5.052  11.503 -0.2904  0.4447 -0.9793
 9001TIP3   OH248493   1.395   3.621  11.401  0.6162  0.3356 -0.5881
 9001TIP3    H148494   1.424   3.709  11.428 -0.3704  0.8134 -1.0388
 9001TIP3    H248495   1.326   3.599  11.462 -1.4126  1.2880 -2.4004
 9002TIP3   OH248496   1.635   1.501  12.464 -0.4981  0.0664 -0.4344
 9002TIP3    H148497   1.624   1.433  12.531  0.8237 -2.0176 -2.1734
 9002TIP3    H248498   1.677   1.574  12.510  0.8755 -1.4932  0.9359
 9003TIP3   OH248499   0.902   1.636   0.072 -0.3054  0.5834 -0.0296
 9003TIP3    H148500   0.939   1.633  -0.016  1.1454 -0.5004  0.5858
 9003TIP3    H248501   0.845   1.559   0.076  0.2352  0.1916  0.2238
 9004TIP3   OH248502   5.494   1.214   3.583 -0.7790  0.2374  0.1379
 9004TIP3    H148503   5.539   1.189   3.502 -0.7791  0.4566  0.0703
 9004TIP3    H248504   5.404   1.231   3.557 -1.3156 -1.7688  0.5338
 9005TIP3   OH248505   3.047   5.156   4.690  0.0625  0.6589  0.2057
 9005TIP3    H148506   2.999   5.073   4.686  0.7976  0.2416 -0.1724
 9005TIP3    H248507   3.130   5.138   4.646  0.4011  1.4856  0.4833
 9006TIP3   OH248508   6.097   6.255  13.401 -0.4263  0.3776 -0.0265
 9006TIP3    H148509   6.144   6.194  13.344  0.4055 -1.4283  2.4172
 9006TIP3    H248510   6.022   6.206  13.433  0.9851 -0.0129  3.0558
 9007TIP3   OH248511   3.466   4.043   0.367  0.0710  0.2284 -0.4721
 9007TIP3    H148512   3.400   3.986   0.407 -0.2270  0.4654 -0.6232
 9007TIP3    H248513   3.426   4.071   0.284  0.3854  0.3286 -0.5918
 9008TIP3   OH248514   4.343   4.794  12.584  0.2086  0.2676 -0.2270
 9008TIP3    H148515   4.389   4.711  12.575 -1.1147 -0.5636  0.3695
 9008TIP3    H248516   4.407   4.854  12.622  0.9771 -0.6674 -0.0280
 9009TIP3   OH248517   3.470   3.350   1.060  0.1296 -0.1983  0.2230
 9009TIP3    H148518   3.510   3.388   0.981  0.6361 -0.4311  0.3622
 9009TIP3    H248519   3.464   3.423   1.121 -1.5889  0.3291 -0.5109
 9010TIP3   OH248520   2.622   1.784   2.223  0.7545 -0.0220 -0.0328
 9010TIP3    H148521   2.713   1.776   2.250  0.8259 -0.7730 -0.4742
 9010TIP3    H248522   2.588   1.694   2.224 -0.0517  0.2683  0.3514
 9011TIP3   OH248523   0.111   1.997  15.302  0.2474 -0.0722  0.1668
 9011TIP3    H148524   0.110   2.066  15.368  0.5744  0.7174 -0.6381
 9011TIP3    H248525   0.053   2.029  15.233 -0.1665 -0.9287  0.1045
 9012TIP3   OH248526   5.677   4.503  10.611 -0.1644  0.4700 -0.4976
 9012TIP3    H148527   5.759   4.465  10.581  0.7322  1.0710  1.0681
 9012TIP3    H248528   5.627   4.429  10.647 -0.2191  0.1464 -1.2272
 9013TIP3   OH248529   0.823   1.213   0.583  0.1598  0.4095  0.1696
 9013TIP3    H148530   0.783   1.172   0.507  0.4400 -0.3831  0.4380
 9013TIP3    H248531   0.872   1.143   0.626  0.1815  0.8873  0.9619
 9014TIP3   OH248532   0.100   0.421   1.932 -0.4889 -0.1709 -0.6886
 9014TIP3    H148533   0.081   0.356   1.865 -0.6648 -0.5781 -0.2456
 9014TIP3    H248534   0.119   0.371   2.011 -0.3058  0.3042 -0.4212
 9015TIP3   OH248535   3.971   1.298   0.903 -0.4425  0.4399 -0.2702
 9015TIP3    H148536   3.932   1.274   0.987  0.7318 -0.2909  0.0870
 9015TIP3    H248537   3.992   1.391   0.912  0.0484  0.2674  0.4054
 9016TIP3   OH248538   5.157   4.569   2.701  0.1732  0.0503  0.2100
 9016TIP3    H148539   5.080   4.530   2.745 -0.5171 -1.2345 -1.9888
 9016TIP3    H248540   5.221   4.498   2.698  1.4434  1.0392  1.7872
 9017TIP3   OH248541   5.707   1.893   2.350 -0.0710 -0.2062  0.1338
 9017TIP3    H148542   5.633   1.842   2.382  0.0887  0.9472  2.5880
 9017TIP3    H248543   5.713   1.967   2.410  1.8529  0.8149 -1.1973
 9018TIP3   OH248544   5.082   1.870   0.935  0.0175 -0.0035 -0.3641
 9018TIP3    H148545   5.175   1.857   0.915  0.2527  1.7494 -0.5757
 9018TIP3    H248546   5.047   1.911   0.855 -0.8220 -0.1849 -0.0916
 9019TIP3   OH248547   6.109   3.441   1.545  0.4835 -0.4797 -0.3852
 9019TIP3    H148548   6.113   3.439   1.640 -0.3221 -0.8852 -0.3466
 9019TIP3    H248549   6.199   3.425   1.516  0.6394 -0.8974  0.3032
 9020TIP3   OH248550   3.320   2.536   2.990  0.0441 -0.5571 -0.1501
 9020TIP3    H148551   3.401   2.547   3.041 -0.0646 -0.0543 -0.0743
 9020TIP3    H248552   3.282   2.454   3.022  0.4298 -0.7006 -0.0538
 9021TIP3   OH248553   5.994   5.504  11.787  0.3999  0.6380 -0.0496
 9021TIP3    H148554   5.967   5.589  11.752 -0.7670 -0.5657 -2.3329
 9021TIP3    H248555   6.089   5.513  11.802  0.0852  2.6962  1.0377
 9022TIP3   OH248556   6.637   1.380   4.001 -0.7196  0.4744  0.1981
 9022TIP3    H148557   6.714   1.325   3.983 -1.3390 -0.0403 -0.9258
 9022TIP3    H248558   6.564   1.333   3.962 -2.0307 -0.2264  3.2481
 9023TIP3   OH248559   6.812   4.489  15.215  0.4690  0.4354  0.2708
 9023TIP3    H148560   6.883   4.547  15.241  1.3058 -0.0192 -0.9316
 9023TIP3    H248561   6.757   4.483  15.293  0.6478  2.3786  0.6054
 9024TIP3   OH248562   6.177   4.216  16.227 -0.1449 -0.1347  0.0370
 9024TIP3    H148563   6.165   4.258  16.142  0.4820  0.2912  0.1511
 9024TIP3    H248564   6.183   4.288  16.289  0.7481 -0.3888  0.2602
 9025TIP3   OH248565   4.920   0.170   3.670 -0.2914  0.2717  0.0876
 9025TIP3    H148566   4.886   0.181   3.759 -0.2026 -0.8142  0.2596
 9025TIP3    H248567   5.003   0.217   3.670 -0.7116  1.0482  0.3051
 9026TIP3   OH248568   5.594   3.661   4.631 -0.3609 -0.5652 -0.1465
 9026TIP3    H148569   5.616   3.702   4.547  0.6302  0.7112  0.6939
 9026TIP3    H248570   5.676   3.664   4.681 -0.7092 -2.0877  0.5782
 9027TIP3   OH248571   3.698   1.859   0.848 -0.1301 -0.3923 -0.0820
 9027TIP3    H148572   3.681   1.765   0.835 -1.5686 -0.4056  1.4594
 9027TIP3    H248573   3.725   1.890   0.762 -0.7342 -2.0121 -0.9197
 9028TIP3   OH248574   1.077   0.265  16.283 -0.3547 -0.3267 -0.1619
 9028TIP3    H148575   1.105   0.323  16.212  0.5601 -0.7073 -0.1207
 9028TIP3    H248576   1.001   0.309  16.321  0.0631  0.6334 -0.4043
 9029TIP3   OH248577   4.182   0.678   5.099  0.3853  0.2006  0.0603
 9029TIP3    H148578   4.190   0.727   5.181 -0.1385  0.5541 -0.0989
 9029TIP3    H248579   4.092   0.646   5.099  0.5412 -0.2391 -0.1342
 9030TIP3   OH248580   3.938   3.193   5.807  0.4786  0.5460  0.0744
 9030TIP3    H148581   3.863   3.249   5.787 -0.2520 -0.7768 -1.0249
 9030TIP3    H248582   3.901   3.107   5.825  1.6421  0.1639  0.7850
 9031TIP3   OH248583   3.545   3.212   5.570  0.0897 -0.4858 -0.3074
 9031TIP3    H148584   3.513   3.122   5.574 -0.2248 -0.4382 -1.5333
 9031TIP3    H248585   3.473   3.264   5.604  0.0875 -0.6424 -0.0622
 9032TIP3   OH248586   0.209   4.139   3.705  0.1900  0.1158  0.4074
 9032TIP3    H148587   0.239   4.171   3.790  0.4770  2.9987 -0.6707
 9032TIP3    H248588   0.243   4.050   3.700  2.4797  0.7809  2.2038
 9033TIP3   OH248589   4.931   0.438  10.306 -0.3779  0.3151  0.4088
 9033TIP3    H148590   4.846   0.451  10.347 -0.7076 -0.1314 -0.1098
 9033TIP3    H248591   4.953   0.523  10.267  0.0644  0.8198  1.6995
 9034TIP3   OH248592   0.209   3.008   5.787  0.3520  0.4777  0.2545
 9034TIP3    H148593   0.251   3.091   5.807  0.2160  0.8415 -0.9251
 9034TIP3    H248594   0.252   2.977   5.707  1.0497 -1.0551  1.1694
 9035TIP3   OH248595   0.226   2.316   1.253  0.2429 -0.7026  0.5570
 9035TIP3    H148596   0.319   2.318   1.277  0.7134  3.4938 -0.8011
 9035TIP3    H248597   0.181   2.357   1.327  0.0944  0.9946 -0.4181
 9036TIP3   OH248598   0.353   6.778  12.706 -0.0217  0.0010 -0.5469
 9036TIP3    H148599   0.410   6.847  12.738  0.6491 -0.4233 -0.7981
 9036TIP3    H248600   0.318   6.812  12.624 -2.4365  1.4590  0.9617
 9037TIP3   OH248601   2.966   0.504  10.673 -0.2422  0.2630  0.4733
 9037TIP3    H148602   2.942   0.596  10.679 -0.5848  0.1847  0.3393
 9037TIP3    H248603   3.052   0.503  10.632 -0.5119  0.4879 -0.0980
 9038TIP3   OH248604   6.435   2.864   0.203 -0.7576 -0.2754  1.0843
 9038TIP3    H148605   6.353   2.834   0.165 -1.0826 -0.5494  1.9939
 9038TIP3    H248606   6.474   2.786   0.242  1.1018 -0.7097 -1.3394
 9039TIP3   OH248607   3.562   4.824   5.425 -0.0069 -0.4856  0.6812
 9039TIP3    H148608   3.501   4.777   5.368  0.2670 -1.9447  1.5194
 9039TIP3    H248609   3.647   4.782   5.410  0.1681 -0.5538  1.7627
 9040TIP3   OH248610   0.617   6.755  13.349  0.5154 -0.1024 -0.3499
 9040TIP3    H148611   0.632   6.661  13.358  0.0938 -0.2041 -0.6831
 9040TIP3    H248612   0.581   6.766  13.261 -0.2761  0.2619  0.0055
 9041TIP3   OH248613   1.082   3.975  13.065  0.3100  0.6751  0.3359
 9041TIP3    H148614   1.165   3.964  13.111  0.8988  0.7596 -0.6951
 9041TIP3    H248615   1.089   4.060  13.023  1.2199 -0.8056 -2.7534
 9042TIP3   OH248616   6.580   0.132  16.911 -0.0869  0.1092 -0.3687
 9042TIP3    H148617   6.664   0.088  16.923  0.8309  1.4146 -1.7498
 9042TIP3    H248618   6.524   0.064  16.873  1.3471  0.0757 -2.6236
 9043TIP3   OH248619   0.046   1.078   5.687  0.4286  0.2927 -0.4993
 9043TIP3    H148620  -0.003   1.148   5.731 -2.8408 -3.1150  1.9368
 9043TIP3    H248621  -0.005   1.060   5.609  0.3477 -0.3609 -0.2968
 9044TIP3   OH248622   6.463   2.701  12.058  0.5540 -0.2039 -0.1449
 9044TIP3    H148623   6.508   2.754  11.992  0.4752  1.9310  1.4198
 9044TIP3    H248624   6.370   2.725  12.049  0.5817  0.3652  0.9296
 9045TIP3   OH248625   3.795   5.830   0.558  0.0126 -0.3188  1.1245
 9045TIP3    H148626   3.856   5.757   0.547 -0.2661 -0.3138 -0.7671
 9045TIP3    H248627   3.832   5.900   0.505  0.0262  0.7859  2.5355
 9046TIP3   OH248628   4.919   2.053   4.377 -0.0488 -0.1221 -0.5727
 9046TIP3    H148629   4.988   1.992   4.404 -0.4347 -0.2893  0.0632
 9046TIP3    H248630   4.951   2.091   4.296  1.3163  0.6651  0.2963
 9047TIP3   OH248631   0.905   3.107  10.769 -0.1542  0.5455  0.5206
 9047TIP3    H148632   0.823   3.087  10.724 -0.3396 -0.4295  1.2501
 9047TIP3    H248633   0.908   3.202  10.773 -0.0991  0.6661 -1.5753
 9048TIP3   OH248634   0.912   5.989   1.026 -0.5180 -0.6058 -0.1541
 9048TIP3    H148635   0.982   6.018   0.967  0.6038  1.4368  2.0070
 9048TIP3    H248636   0.942   5.905   1.059  1.1453  0.3580  0.9351
 9049TIP3   OH248637   1.350   0.329   1.756 -0.0490  0.3000 -0.3899
 9049TIP3    H148638   1.305   0.261   1.806  0.5164  0.9879  1.1305
 9049TIP3    H248639   1.412   0.367   1.819 -0.8595  2.7113 -0.9591
 9050TIP3   OH248640   2.030   2.457  12.513 -0.3475 -0.1944  0.2632
 9050TIP3    H148641   2.090   2.403  12.462 -1.0195 -0.0117 -0.7480
 9050TIP3    H248642   2.079   2.537  12.532  0.5528 -1.0179  1.5273
 9051TIP3   OH248643   4.072   1.365  16.231  0.0415  0.2336  0.1430
 9051TIP3    H148644   4.114   1.295  16.180 -2.3171 -0.8551 -0.4753
 9051TIP3    H248645   4.100   1.350  16.321 -1.0035 -2.0775  0.1491
 9052TIP3   OH248646   2.060   4.948   4.326  0.2658  0.5332 -0.2792
 9052TIP3    H148647   2.086   4.863   4.289  1.7418  0.6082  0.5063
 9052TIP3    H248648   2.094   4.946   4.416  0.6591  2.1059 -0.3678
 9053TIP3   OH248649   6.726   6.167   5.681 -0.6639 -0.5804 -0.2125
 9053TIP3    H148650   6.659   6.151   5.614 -1.5083  0.9587  0.2340
 9053TIP3    H248651   6.804   6.192   5.630 -1.4512  1.1092 -0.6335
 9054TIP3   OH248652   4.239   0.872  16.946 -0.1260 -0.0566 -0.4618
 9054TIP3    H148653   4.263   0.923  16.869  0.5781 -0.3737 -0.4565
 9054TIP3    H248654   4.299   0.798  16.946 -2.4127 -2.0280 -1.5890
 9055TIP3   OH248655   4.134   1.064  16.762  0.3045  0.2320  0.1031
 9055TIP3    H148656   4.145   1.101  16.849 -0.8686 -1.0374  0.8412
 9055TIP3    H248657   4.050   1.098  16.732 -0.8059 -1.6970  0.8003
 9056TIP3   OH248658   3.614   1.004   1.382 -0.6758 -0.6993  0.0603
 9056TIP3    H148659   3.702   0.994   1.418 -0.4594 -0.3601 -0.3600
 9056TIP3    H248660   3.586   0.915   1.359 -0.6682 -0.8714  0.7113
 9057TIP3   OH248661   6.048   1.936  13.035 -0.2296 -0.7304  0.1346
 9057TIP3    H148662   5.957   1.938  13.065 -1.5255 -0.6426 -3.3196
 9057TIP3    H248663   6.060   1.847  13.004 -0.3892  0.0894 -2.5346
 9058TIP3   OH248664   6.247   4.104  14.329 -0.7917  0.5049 -0.2268
 9058TIP3    H148665   6.160   4.129  14.298 -0.7413 -0.3505 -1.1133
 9058TIP3    H248666   6.307   4.141  14.265 -0.2377  3.4415  1.7882
 9059TIP3   OH248667   1.614   3.392   3.151  0.1943 -0.4050  0.5880
 9059TIP3    H148668   1.604   3.454   3.079 -1.6107  0.4703  1.5210
 9059TIP3    H248669   1.691   3.423   3.199  0.0871  0.3355  0.2899
 9060TIP3   OH248670   3.718   3.571   1.046  0.3370 -0.2186  0.3642
 9060TIP3    H148671   3.672   3.651   1.073  0.0478 -0.4198  0.4724
 9060TIP3    H248672   3.733   3.583   0.953 -1.9059 -1.0962 -0.1647
 9061TIP3   OH248673   1.587   2.214  12.071  0.3525 -0.4566 -0.4579
 9061TIP3    H148674   1.631   2.141  12.028 -1.5752 -2.4103  0.7394
 9061TIP3    H248675   1.634   2.225  12.154 -0.7021 -1.8528  0.3544
 9062TIP3   OH248676   0.693   6.432  11.252 -0.5237  0.0450 -0.4733
 9062TIP3    H148677   0.738   6.515  11.265  1.4052 -0.8792 -0.9429
 9062TIP3    H248678   0.638   6.446  11.175 -1.3219  1.2837  0.2844
 9063TIP3   OH248679   5.739   5.760   2.919  0.5033  0.7151 -0.0523
 9063TIP3    H148680   5.733   5.752   3.014 -2.4982 -0.3704 -0.2370
 9063TIP3    H248681   5.649   5.748   2.888  1.4746  0.4754 -3.0728
 9064TIP3   OH248682   1.083   1.056  12.554 -0.4055  0.7301 -0.4805
 9064TIP3    H148683   1.037   1.139  12.538 -0.8860  0.5730  0.0636
 9064TIP3    H248684   1.082   1.047  12.649 -0.6986 -0.0908 -0.5567
 9065TIP3   OH248685   0.534   2.743   0.020  0.6076 -0.5332  0.4009
 9065TIP3    H148686   0.565   2.662   0.060  0.6072 -0.4506  0.5660
 9065TIP3    H248687   0.453   2.763   0.065  0.3328 -0.7220  0.0037
 9066TIP3   OH248688   1.957   4.534  16.389 -0.2009  0.1867 -0.6807
 9066TIP3    H148689   1.945   4.564  16.479  2.4961  0.5762 -0.3574
 9066TIP3    H248690   1.870   4.542  16.349 -1.5291 -0.2657  1.9285
 9067TIP3   OH248691   1.947   2.228   1.627 -0.1866 -0.2684 -0.2419
 9067TIP3    H148692   1.889   2.285   1.577  0.3453 -0.5472 -1.2115
 9067TIP3    H248693   2.021   2.284   1.650 -0.0485 -0.3384 -0.4962
 9068TIP3   OH248694   6.795   3.615  14.935  0.1468  0.1142  0.5209
 9068TIP3    H148695   6.847   3.554  14.988 -1.7495 -0.9210  1.2999
 9068TIP3    H248696   6.860   3.672  14.894  1.8664 -0.9168  1.6500
 9069TIP3   OH248697   1.931   2.990   0.619  0.2695  0.4605  0.5952
 9069TIP3    H148698   1.981   3.068   0.643 -1.6410  2.3417 -1.1008
 9069TIP3    H248699   1.849   2.999   0.666 -0.3379 -0.0218 -0.3377
 9070TIP3   OH248700   5.244   1.621   4.027 -0.2892  0.0645  0.7062
 9070TIP3    H148701   5.281   1.620   3.938  0.4540  2.6829  0.8916
 9070TIP3    H248702   5.173   1.558   4.024  0.9201 -1.3241 -1.1946
 9071TIP3   OH248703   4.472   5.649   3.297  0.1192 -0.6877 -0.1822
 9071TIP3    H148704   4.476   5.728   3.243  2.0403 -0.3312  0.4251
 9071TIP3    H248705   4.416   5.673   3.371 -0.9859 -0.5877 -1.0154
 9072TIP3   OH248706   2.686   2.095  11.119 -0.3143 -0.1098  0.1620
 9072TIP3    H148707   2.764   2.083  11.172  2.6531 -1.0736 -3.9322
 9072TIP3    H248708   2.664   2.188  11.128  0.0267 -0.2158  2.8549
 9073TIP3   OH248709   0.675   1.193  16.936 -0.0928  0.2172  0.0908
 9073TIP3    H148710   0.627   1.121  16.977 -0.7899 -0.8179 -2.3784
 9073TIP3    H248711   0.653   1.270  16.989 -0.9257 -1.0232  1.6132
 9074TIP3   OH248712   4.541   2.267   0.556  0.1566  0.1464 -0.0224
 9074TIP3    H148713   4.462   2.232   0.516  1.2433  0.7405 -2.8979
 9074TIP3    H248714   4.584   2.191   0.596 -0.4075 -0.7353 -1.0382
 9075TIP3   OH248715   4.641   1.687  17.163  0.2864 -0.7920 -0.6712
 9075TIP3    H148716   4.694   1.747  17.110  0.1237 -1.7560 -2.0019
 9075TIP3    H248717   4.557   1.684  17.118 -0.6589  0.1026  0.9683
 9076TIP3   OH248718   2.259   2.008  13.857  0.0917 -0.3188 -0.2352
 9076TIP3    H148719   2.302   2.093  13.851  0.1888 -0.1285  2.2128
 9076TIP3    H248720   2.330   1.945  13.858 -0.0051 -0.5772 -2.9751
 9077TIP3   OH248721   1.133   1.055  11.333 -0.6935 -0.4973 -0.1103
 9077TIP3    H148722   1.116   1.033  11.424 -0.1692  3.4069  1.1128
 9077TIP3    H248723   1.214   1.106  11.335 -0.9747  0.2069 -2.6738
 9078TIP3   OH248724   1.635   3.806  15.788  0.3147 -0.2652  0.2113
 9078TIP3    H148725   1.623   3.875  15.722 -0.2401 -2.3879 -2.0563
 9078TIP3    H248726   1.547   3.774  15.806  0.4804  0.1051  1.9034
 9079TIP3   OH248727   1.965   6.111   4.357  0.0615  0.7805 -0.3114
 9079TIP3    H148728   2.006   6.026   4.345  0.5401  0.9292  0.2365
 9079TIP3    H248729   1.934   6.135   4.270  0.1095  0.1455 -0.5077
 9080TIP3   OH248730   4.936   2.035   0.741 -0.2439 -0.4531  0.0993
 9080TIP3    H148731   4.919   2.127   0.762  0.3110 -0.6012  1.2996
 9080TIP3    H248732   4.850   1.998   0.721 -0.3428  0.5921 -1.6556
 9081TIP3   OH248733   1.984   4.085  12.039  0.3697 -0.5618 -0.0879
 9081TIP3    H148734   1.962   4.118  12.126  1.7116 -1.1055  0.4754
 9081TIP3    H248735   1.928   4.008  12.028 -1.4557  0.7675 -0.6763
 9082TIP3   OH248736   3.871   4.236   1.393  0.7823 -0.5009  0.6895
 9082TIP3    H148737   3.887   4.161   1.336  0.1203 -0.0661 -0.0980
 9082TIP3    H248738   3.913   4.310   1.348  0.7665 -0.2656  1.0610
 9083TIP3   OH248739   0.363   2.947   1.378  0.1768  0.5111 -0.8371
 9083TIP3    H148740   0.290   2.894   1.408  0.7399  0.3286  0.2317
 9083TIP3    H248741   0.342   3.036   1.408  0.5958  0.3801 -0.1294
 9084TIP3   OH248742   5.212   4.659   2.256  0.0103  0.6247 -0.1329
 9084TIP3    H148743   5.128   4.705   2.256 -1.0753 -1.1872 -2.1289
 9084TIP3    H248744   5.189   4.568   2.273  1.5547  0.0973 -0.7265
 9085TIP3   OH248745   3.985   0.174  11.109 -0.0891  0.8080  0.0183
 9085TIP3    H148746   4.061   0.171  11.051 -0.9145  0.5671 -1.0889
 9085TIP3    H248747   3.917   0.127  11.061 -1.1228  1.5574  0.7064
 9086TIP3   OH248748   3.782   4.003   2.160  0.2901 -0.4118  0.1857
 9086TIP3    H148749   3.703   3.965   2.120  0.8583 -1.2525 -0.1502
 9086TIP3    H248750   3.748   4.076   2.212 -0.7301 -0.8226  0.1370
 9087TIP3   OH248751   3.181   5.141   3.951  0.1059 -0.5172 -0.4754
 9087TIP3    H148752   3.097   5.181   3.929 -0.2006  0.5672  2.2544
 9087TIP3    H248753   3.240   5.216   3.966  0.7205 -1.1836  0.5360
 9088TIP3   OH248754   4.648   0.588   4.154 -0.0906  0.1602  0.2358
 9088TIP3    H148755   4.558   0.587   4.122  0.1573 -1.4256 -0.5003
 9088TIP3    H248756   4.641   0.568   4.247 -0.5265  0.6905  0.3244
 9089TIP3   OH248757   5.660   0.714  14.345 -0.6144 -0.3681  0.7632
 9089TIP3    H148758   5.726   0.663  14.298 -1.2500 -2.8476  2.3989
 9089TIP3    H248759   5.672   0.803  14.312  0.4232 -1.5211 -2.4312
 9090TIP3   OH248760   3.103   3.747  15.946  0.1556 -0.1225 -0.2737
 9090TIP3    H148761   3.021   3.742  15.898  0.7731 -0.1269 -1.3484
 9090TIP3    H248762   3.103   3.668  16.001  0.3932 -1.2829 -1.8527
 9091TIP3   OH248763   3.624   1.818   1.209 -0.0218 -0.3196  0.2235
 9091TIP3    H148764   3.583   1.834   1.295  0.6798  1.0157  0.3356
 9091TIP3    H248765   3.613   1.900   1.162  0.0539 -0.8811 -0.7980
 9092TIP3   OH248766   3.154   0.297   5.122  0.5001  0.0201  0.5843
 9092TIP3    H148767   3.124   0.295   5.031  1.1439 -0.9042  0.3786
 9092TIP3    H248768   3.170   0.390   5.139 -1.0513  0.3808  0.2566
 9093TIP3   OH248769   5.772   2.601  15.327  0.4256  0.4997 -0.1378
 9093TIP3    H148770   5.764   2.663  15.399  0.5305  0.1223  0.2036
 9093TIP3    H248771   5.753   2.652  15.248  0.7502  1.0164  0.1178
 9094TIP3   OH248772   5.608   5.336  12.006 -0.4484 -0.1329  0.2286
 9094TIP3    H148773   5.628   5.404  12.070 -1.0006  0.1926  0.0666
 9094TIP3    H248774   5.576   5.384  11.929 -1.3632 -0.5929  0.3064
 9095TIP3   OH248775   1.479   2.983  14.929  0.4334 -0.1476  0.4816
 9095TIP3    H148776   1.446   2.957  15.015  0.7673 -1.7745  0.1602
 9095TIP3    H248777   1.401   3.001  14.877  0.1771 -0.4445  0.7567
 9096TIP3   OH248778   3.270   1.933  16.886  0.0403 -0.4856 -0.1378
 9096TIP3    H148779   3.212   1.873  16.933 -0.0593  0.7152  1.3591
 9096TIP3    H248780   3.353   1.885  16.878 -0.7367 -1.7449 -1.2169
 9097TIP3   OH248781   2.965   3.468   0.324 -0.2045 -0.0044  0.6221
 9097TIP3    H148782   3.027   3.415   0.274 -0.8611  0.0658 -0.2862
 9097TIP3    H248783   2.886   3.470   0.270 -0.2703  1.7359  0.7230
 9098TIP3   OH248784   4.844   6.051   3.236 -0.1281  0.0639 -0.1306
 9098TIP3    H148785   4.854   6.146   3.249  0.5343  0.1764 -1.3201
 9098TIP3    H248786   4.753   6.033   3.261 -0.4717  1.1252 -0.5491
 9099TIP3   OH248787   5.583   5.548   0.711  0.0385 -0.3182  0.1604
 9099TIP3    H148788   5.518   5.479   0.699 -1.2772  0.7197  0.9130
 9099TIP3    H248789   5.647   5.534   0.642 -0.4945 -1.9315 -0.0512
 9100TIP3   OH248790   2.512   6.807   5.249 -0.3225  0.3872  0.0526
 9100TIP3    H148791   2.527   6.855   5.168 -0.6495  0.0659 -0.2047
 9100TIP3    H248792   2.420   6.823   5.270 -0.7018 -0.8605 -0.5445
 9101TIP3   OH248793   3.873   4.427   5.344  0.3425 -0.2268 -0.3074
 9101TIP3    H148794   3.863   4.368   5.269 -1.5521 -1.8748  1.1370
 9101TIP3    H248795   3.826   4.506   5.319  0.6183 -0.3475 -1.2483
 9102TIP3   OH248796   0.100   3.667   5.565 -0.1223 -0.1905  0.6897
 9102TIP3    H148797   0.125   3.589   5.515 -1.2999 -0.4503  0.4636
 9102TIP3    H248798   0.126   3.647   5.655  0.5578 -0.3951  0.4539
 9103TIP3   OH248799   0.856   4.033  15.979 -0.0095 -0.1804 -0.0981
 9103TIP3    H148800   0.760   4.033  15.983  0.0179  0.1949  0.9086
 9103TIP3    H248801   0.882   3.959  16.035  0.2710 -1.6863 -2.0947
 9104TIP3   OH248802   4.066   2.606  15.387 -0.1998 -0.1502  0.1582
 9104TIP3    H148803   4.031   2.618  15.299 -0.6340  1.1988  0.4907
 9104TIP3    H248804   4.159   2.626  15.378 -0.3680  0.6669  0.1202
 9105TIP3   OH248805   2.519   3.760  13.074  0.2926 -0.1643  0.2967
 9105TIP3    H148806   2.609   3.750  13.107 -0.3005 -1.2507  1.6912
 9105TIP3    H248807   2.521   3.719  12.987  0.9188 -1.1180  0.7385
 9106TIP3   OH248808   5.393   0.057  15.036  0.7886 -0.2295 -0.4490
 9106TIP3    H148809   5.423   0.033  14.949  0.0909 -1.9761 -0.2423
 9106TIP3    H248810   5.300   0.076  15.025  0.8930  0.4618 -0.2292
 9107TIP3   OH248811   6.767   5.758   0.564 -0.3951  0.2955  0.5039
 9107TIP3    H148812   6.861   5.742   0.552 -0.7882 -2.6660  0.5022
 9107TIP3    H248813   6.733   5.769   0.476 -0.1560  0.7381  0.4634
 9108TIP3   OH248814   5.125   6.810   5.588 -0.1698  0.4533 -0.0310
 9108TIP3    H148815   5.124   6.714   5.585 -0.2448  0.4398 -3.8008
 9108TIP3    H248816   5.217   6.833   5.596  0.0369  0.0121 -0.9762
 9109TIP3   OH248817   1.093   0.129   2.434 -0.1484 -0.4230 -0.2154
 9109TIP3    H148818   1.102   0.206   2.377  0.3731 -0.7648 -0.6082
 9109TIP3    H248819   1.007   0.139   2.475 -0.6768 -0.3227 -1.3119
 9110TIP3   OH248820   2.191   5.401  13.261  0.1567 -0.2977 -0.7358
 9110TIP3    H148821   2.197   5.349  13.341 -1.1531 -2.0318 -1.6943
 9110TIP3    H248822   2.277   5.443  13.253  0.4316 -0.3762  1.3589
 9111TIP3   OH248823   6.440   2.813  12.658  0.7307 -0.4843  0.1244
 9111TIP3    H148824   6.497   2.846  12.588 -0.0746  0.1572 -0.2352
 9111TIP3    H248825   6.471   2.724  12.673  1.4378 -0.3548 -0.4903
 9112TIP3   OH248826   4.551   0.186  15.519  1.1252  0.6962 -0.0505
 9112TIP3    H148827   4.476   0.242  15.539  0.9738  0.2544  0.6689
 9112TIP3    H248828   4.545   0.170  15.425 -0.1356  0.0241  0.1228
 9113TIP3   OH248829   1.167   6.514  12.140 -0.5307 -0.1750 -0.4630
 9113TIP3    H148830   1.102   6.444  12.137  0.6681 -1.3322 -0.3520
 9113TIP3    H248831   1.133   6.581  12.080 -2.4213 -0.1697  0.5222
 9114TIP3   OH248832   5.420   3.501   5.754  0.2323 -0.3685 -0.3002
 9114TIP3    H148833   5.391   3.412   5.736  2.1322 -1.3693  1.2127
 9114TIP3    H248834   5.388   3.519   5.843  1.6593 -0.3937  0.2415
 9115TIP3   OH248835   4.842   4.879  11.428 -0.6839  0.2402 -0.3005
 9115TIP3    H148836   4.911   4.945  11.419  0.3381 -0.8134 -0.3805
 9115TIP3    H248837   4.852   4.823  11.350 -1.0043 -0.4815  0.1690
 9116TIP3   OH248838   2.420   4.858   1.231  0.2758 -0.2215  0.6825
 9116TIP3    H148839   2.365   4.857   1.309 -2.4031  0.5421 -1.0542
 9116TIP3    H248840   2.454   4.768   1.225  0.7066 -0.2384  2.7795
 9117TIP3   OH248841   2.016   4.601  12.387  0.4782  0.1792 -0.1434
 9117TIP3    H148842   1.986   4.610  12.478  1.7808  1.9239  0.1458
 9117TIP3    H248843   2.098   4.552  12.393  0.5764  0.3138 -0.3801
 9118TIP3   OH248844   1.078   0.052   0.400  0.4063 -0.2524 -0.0801
 9118TIP3    H148845   1.066   0.063   0.494  0.5583  1.2469 -0.2149
 9118TIP3    H248846   1.168   0.081   0.384  0.2598 -0.1538 -0.7409
 9119TIP3   OH248847   5.147   3.249  12.257  0.5041  0.6527 -0.4638
 9119TIP3    H148848   5.083   3.194  12.212 -0.2996  1.4937 -0.3855
 9119TIP3    H248849   5.216   3.264  12.191  0.3135  0.2608 -0.7558
 9120TIP3   OH248850   2.500   0.046   1.135 -0.0885  0.2846  0.2590
 9120TIP3    H148851   2.417   0.064   1.177  0.5057  0.0508  1.5757
 9120TIP3    H248852   2.490   0.080   1.046 -1.0317  1.6823  0.8748
 9121TIP3   OH248853   1.640   6.070   6.684  0.4575 -0.2786 -0.1478
 9121TIP3    H148854   1.563   6.126   6.695 -0.0427  0.2415 -4.4766
 9121TIP3    H248855   1.610   5.982   6.707 -1.1448  0.0912 -0.7082
 9122TIP3   OH248856   0.634   1.394   4.196  0.2152  0.0096 -0.7917
 9122TIP3    H148857   0.710   1.347   4.162  0.4833 -0.3072  0.2269
 9122TIP3    H248858   0.571   1.326   4.219  1.2123 -0.0505  2.1917
 9123TIP3   OH248859   2.569   1.851  14.824 -0.2758  0.2393 -0.9536
 9123TIP3    H148860   2.614   1.767  14.826 -1.8215 -0.6016 -0.5898
 9123TIP3    H248861   2.609   1.898  14.751  1.7779 -0.1072 -0.1389
 9124TIP3   OH248862   2.892   2.464  14.341  0.4880 -0.3731  0.0353
 9124TIP3    H148863   2.803   2.469  14.376  1.0776  1.3592  1.4321
 9124TIP3    H248864   2.945   2.437  14.416  1.1745 -1.3051 -0.7659
 9125TIP3   OH248865   2.675   4.670   3.391  0.0597 -0.3054 -0.3739
 9125TIP3    H148866   2.757   4.701   3.428 -0.8371  0.5501  0.9637
 9125TIP3    H248867   2.627   4.749   3.367  0.1228 -0.8215 -2.3236
 9126TIP3   OH248868   2.273   3.779   2.303 -0.2619 -0.4180 -0.1581
 9126TIP3    H148869   2.284   3.836   2.226 -0.6978 -0.3917 -0.1996
 9126TIP3    H248870   2.282   3.690   2.267  0.3372 -0.3824 -0.1061
 9127TIP3   OH248871   6.812   1.954   3.957  0.3307  0.1634 -0.2146
 9127TIP3    H148872   6.727   1.912   3.945 -0.5950  2.1097 -1.0599
 9127TIP3    H248873   6.829   1.947   4.050 -0.0795 -1.4407 -0.2214
 9128TIP3   OH248874   5.876   1.507   4.455 -0.4536 -0.0797  0.2667
 9128TIP3    H148875   5.880   1.471   4.544 -1.9627 -0.1350  0.3439
 9128TIP3    H248876   5.793   1.474   4.420 -0.0685  0.2803 -1.0158
 9129TIP3   OH248877   6.728   3.680  16.258  0.2765 -0.1504  0.0268
 9129TIP3    H148878   6.792   3.627  16.306  1.9395 -0.8434 -2.6837
 9129TIP3    H248879   6.666   3.616  16.223  0.4947  0.0263 -0.7015
 9130TIP3   OH248880   4.125   6.811  11.861  0.0279  0.4276  0.5061
 9130TIP3    H148881   4.050   6.869  11.846 -0.4319 -0.1786  0.4249
 9130TIP3    H248882   4.144   6.774  11.775  0.1271  0.2216  0.6176
 9131TIP3   OH248883   4.979   3.222  12.595 -0.1205  0.8234  0.1312
 9131TIP3    H148884   5.022   3.228  12.681 -1.7907  3.6611  0.9111
 9131TIP3    H248885   4.991   3.309  12.557 -1.6094  0.3932 -1.4147
 9132TIP3   OH248886   3.022   4.315  10.216  0.2648 -0.6666  0.2910
 9132TIP3    H148887   2.954   4.252  10.243  1.5721 -2.6677 -0.8342
 9132TIP3    H248888   3.010   4.323  10.121  0.5795  0.2522  0.3252
 9133TIP3   OH248889   4.445   5.832   4.389  0.7058  0.0619  0.2543
 9133TIP3    H148890   4.446   5.844   4.484 -2.1179 -0.4851  0.4466
 9133TIP3    H248891   4.488   5.747   4.376  1.2257  0.1944  1.0078
 9134TIP3   OH248892   3.447   5.512   5.080  1.1418  0.1692  0.5558
 9134TIP3    H148893   3.531   5.531   5.039  0.3072  0.5509 -1.0757
 9134TIP3    H248894   3.422   5.595   5.121 -0.1234  1.2437 -2.1809
 9135TIP3   OH248895   1.734   2.218  12.913  0.1435  0.5602 -0.0510
 9135TIP3    H148896   1.645   2.201  12.946  0.4008  1.6457  1.3058
 9135TIP3    H248897   1.721   2.247  12.823 -0.9627  1.4845  0.3880
 9136TIP3   OH248898   0.612   6.065  17.138  0.6338  0.2318  0.3641
 9136TIP3    H148899   0.672   6.000  17.099  0.4583  0.3083 -0.0374
 9136TIP3    H248900   0.622   6.142  17.082 -0.9511 -0.2347 -0.6384
 9137TIP3   OH248901   2.000   2.549   0.931 -0.1205 -0.2458 -0.4456
 9137TIP3    H148902   2.094   2.565   0.939  0.1613 -1.6616 -0.6715
 9137TIP3    H248903   1.980   2.574   0.841 -0.0095  0.2509 -0.3367
 9138TIP3   OH248904   4.008   3.292   3.138  0.0789  0.6198  0.3476
 9138TIP3    H148905   3.929   3.281   3.190 -0.2381 -0.0728 -0.2751
 9138TIP3    H248906   3.977   3.315   3.051  0.5176 -0.7651 -0.1920
 9139TIP3   OH248907   1.352   3.783   3.906 -0.3692  0.0994 -0.4706
 9139TIP3    H148908   1.345   3.861   3.961  0.9964 -0.9407  1.2705
 9139TIP3    H248909   1.300   3.804   3.828 -1.8602  1.8840  0.9154
 9140TIP3   OH248910   5.291   0.280  13.114 -0.0384  0.1429  0.0438
 9140TIP3    H148911   5.337   0.273  13.030  0.3969 -1.4043  0.3794
 9140TIP3    H248912   5.226   0.349  13.099 -0.5103 -0.6359 -1.8233
 9141TIP3   OH248913   1.598   3.268  11.829  0.0535 -0.5712 -0.1384
 9141TIP3    H148914   1.597   3.363  11.821 -0.6452 -0.5642 -0.0226
 9141TIP3    H248915   1.508   3.241  11.813 -0.4418 -0.9452  2.7433
 9142TIP3   OH248916   6.375   1.730   5.032  0.2145 -0.1301  0.5179
 9142TIP3    H148917   6.403   1.777   5.111 -0.8852 -0.1193  0.9164
 9142TIP3    H248918   6.294   1.774   5.006  0.2535 -0.5208 -0.2773
 9143TIP3   OH248919   5.120   3.518  13.465 -0.2957 -0.1421 -0.0818
 9143TIP3    H148920   5.102   3.482  13.551  2.0096  0.0216  0.5357
 9143TIP3    H248921   5.134   3.442  13.409 -0.0428 -0.2267  0.1001
 9144TIP3   OH248922   5.401   5.823  12.008  0.3598 -0.1094  0.1503
 9144TIP3    H148923   5.359   5.892  11.957 -1.4053 -0.5226  0.9647
 9144TIP3    H248924   5.478   5.798  11.957 -0.0882  1.0648 -1.1416
 9145TIP3   OH248925   4.246   2.339  15.881 -0.1149  0.1521 -0.6476
 9145TIP3    H148926   4.195   2.351  15.801  0.2171  2.9737 -0.5399
 9145TIP3    H248927   4.334   2.367  15.858 -0.1942  1.7862  0.8507
 9146TIP3   OH248928   3.150   4.746  16.549 -0.2447 -0.0218 -0.0947
 9146TIP3    H148929   3.084   4.796  16.501  1.1604  0.6067 -1.4832
 9146TIP3    H248930   3.206   4.709  16.480 -0.0806 -1.8788  0.9756
 9147TIP3   OH248931   1.681   1.595  13.542  0.0756 -0.1056  0.2891
 9147TIP3    H148932   1.714   1.507  13.556 -2.5374 -1.1700  0.2164
 9147TIP3    H248933   1.701   1.642  13.623  0.7445 -0.9940  0.6442
 9148TIP3   OH248934   4.192   5.266   2.452  0.3233  0.3558  0.9789
 9148TIP3    H148935   4.235   5.269   2.537 -0.5906  0.7705  1.4307
 9148TIP3    H248936   4.178   5.172   2.435  0.5506  0.2726  1.2551
 9149TIP3   OH248937   4.282   0.552  17.085  0.2995 -0.1237 -0.0954
 9149TIP3    H148938   4.307   0.489  17.152 -0.9755  0.4978  1.0103
 9149TIP3    H248939   4.250   0.499  17.012 -1.1733 -0.8122  0.9856
 9150TIP3   OH248940   2.922   2.143   2.549 -0.2134  0.1343 -0.0939
 9150TIP3    H148941   2.918   2.233   2.581  0.2969  0.8730 -1.9822
 9150TIP3    H248942   3.014   2.130   2.525  0.2665 -1.7420  2.3117
 9151TIP3   OH248943   2.246   2.505   3.426  0.2473  0.1778 -0.0245
 9151TIP3    H148944   2.279   2.449   3.356  1.7305  2.3521 -1.1652
 9151TIP3    H248945   2.207   2.580   3.381 -0.8864  0.5369  1.4608
 9152TIP3   OH248946   1.325   4.645  12.387 -0.8830  0.1289 -0.7078
 9152TIP3    H148947   1.332   4.635  12.292 -0.0644 -2.6251 -0.4234
 9152TIP3    H248948   1.366   4.730  12.404  0.6490 -0.1350 -2.6434
 9153TIP3   OH248949   0.049   2.640  12.884  0.4820  0.2960 -0.3696
 9153TIP3    H148950   0.040   2.554  12.844  0.7097  0.0577  0.0856
 9153TIP3    H248951   0.099   2.691  12.821 -0.3091  0.3297 -0.9823
 9154TIP3   OH248952   2.192   2.884   5.277 -0.6901  0.3433  0.4538
 9154TIP3    H148953   2.281   2.858   5.254 -0.9706  0.0534 -0.3374
 9154TIP3    H248954   2.203   2.943   5.352  0.2420  1.0855 -0.2313
 9155TIP3   OH248955   4.378   4.731   6.059 -0.0845  0.4619  0.2064
 9155TIP3    H148956   4.437   4.657   6.075  1.1131  1.1576 -0.7847
 9155TIP3    H248957   4.424   4.806   6.099  1.0917  1.5161 -2.8184
 9156TIP3   OH248958   1.705   3.150  14.173 -0.1121 -0.0257  0.1569
 9156TIP3    H148959   1.670   3.202  14.101  0.1860 -0.6351 -0.4406
 9156TIP3    H248960   1.714   3.212  14.245  0.3659  0.7874 -0.5806
 9157TIP3   OH248961   0.807   5.544   4.010  0.0479  0.1337 -0.0197
 9157TIP3    H148962   0.832   5.490   4.086  2.6550  1.2641  0.0402
 9157TIP3    H248963   0.771   5.623   4.048 -0.9526 -0.2926 -0.0492
 9158TIP3   OH248964   1.471   4.503   2.807  0.0659 -0.4643 -0.0415
 9158TIP3    H148965   1.451   4.435   2.871  1.4112  0.4109  1.3868
 9158TIP3    H248966   1.540   4.466   2.753 -0.0979 -0.6935 -0.0967
 9159TIP3   OH248967   5.941   6.157  16.847  0.2400  0.1623 -0.1129
 9159TIP3    H148968   5.889   6.237  16.835 -1.1447 -0.7212 -0.1797
 9159TIP3    H248969   5.888   6.103  16.906  0.7771 -1.0385 -0.6977
 9160TIP3   OH248970   4.365   5.813  13.221 -0.1981 -0.7718 -0.0308
 9160TIP3    H148971   4.345   5.897  13.263  0.6556 -1.0983  1.0907
 9160TIP3    H248972   4.329   5.821  13.133  0.2841  0.9578 -0.1145
 9161TIP3   OH248973   5.097   1.878   2.160  0.0112  0.4728  0.1957
 9161TIP3    H148974   5.190   1.889   2.182  0.1863  0.5453 -0.5652
 9161TIP3    H248975   5.086   1.923   2.077 -1.1899  2.3008  1.2788
 9162TIP3   OH248976   1.898   3.128  11.567  0.3559  0.0349 -0.2121
 9162TIP3    H148977   1.940   3.045  11.546  0.1372 -0.0148 -0.4584
 9162TIP3    H248978   1.831   3.139  11.499 -0.1618  0.0126  0.2860
 9163TIP3   OH248979   5.060   4.692  15.568  0.3856  0.1353 -0.5640
 9163TIP3    H148980   5.152   4.719  15.567  0.1585  0.9874 -0.0587
 9163TIP3    H248981   5.024   4.727  15.486  0.4147  0.1513 -0.5697
 9164TIP3   OH248982   5.459   1.921   3.623  0.2980  0.3202  0.0232
 9164TIP3    H148983   5.460   1.991   3.688 -3.0585  0.1952  0.3635
 9164TIP3    H248984   5.547   1.883   3.628  1.1757  2.3582  2.1611
 9165TIP3   OH248985   1.576   6.309   5.341  0.0226 -0.0603 -0.0347
 9165TIP3    H148986   1.578   6.220   5.304  1.2185  0.0353 -0.2339
 9165TIP3    H248987   1.665   6.341   5.331 -0.4394  1.2480 -0.1267
 9166TIP3   OH248988   6.715   3.133   3.757 -0.3706  0.3551 -0.0140
 9166TIP3    H148989   6.648   3.185   3.713  0.1703  0.0508 -1.2297
 9166TIP3    H248990   6.797   3.179   3.740 -0.1864  0.4182  0.9827
 9167TIP3   OH248991   2.865   6.426  17.252  0.3700 -0.0591  0.9031
 9167TIP3    H148992   2.899   6.379  17.328 -0.8979  1.5275  2.5416
 9167TIP3    H248993   2.777   6.391  17.240  0.5177 -0.2091  0.2305
 9168TIP3   OH248994   6.507   1.932  12.242 -0.7761 -0.0751  0.5269
 9168TIP3    H148995   6.546   1.991  12.307  0.0296 -0.1283  0.1029
 9168TIP3    H248996   6.518   1.844  12.280 -0.0147 -0.1348  0.1844
 9169TIP3   OH248997   4.389   4.463  15.447  0.1068  0.4092 -0.6645
 9169TIP3    H148998   4.304   4.444  15.408  0.3711 -1.5468 -0.4023
 9169TIP3    H248999   4.401   4.395  15.514  1.0559  1.7749  0.6420
 9170TIP3   OH249000   3.651   1.640  15.497  0.3249 -0.0521 -0.1839
 9170TIP3    H149001   3.663   1.735  15.505  2.4187 -0.2364 -0.5433
 9170TIP3    H249002   3.710   1.603  15.563 -1.1204 -1.1226  0.5539
 9171TIP3   OH249003   4.940   6.550   2.156  0.1857  0.1948 -0.4557
 9171TIP3    H149004   4.873   6.602   2.112  0.6242  0.5675 -0.6927
 9171TIP3    H249005   4.994   6.614   2.202 -0.8666 -0.2382  1.5194
 9172TIP3   OH249006   2.502   3.402  12.888  0.3509 -0.3002  0.4911
 9172TIP3    H149007   2.567   3.370  12.825 -0.3707  0.5218 -0.7064
 9172TIP3    H249008   2.492   3.495  12.868 -0.6439 -0.2472  1.1505
 9173TIP3   OH249009   0.067   3.769  17.185  0.5373  0.2699  1.0343
 9173TIP3    H149010   0.005   3.697  17.172  0.5385  0.2255  1.2684
 9173TIP3    H249011   0.041   3.835  17.121 -0.5701  0.8041  2.0245
 9174TIP3   OH249012   5.168   3.944   0.199  0.1566  0.4015  1.0301
 9174TIP3    H149013   5.168   3.871   0.261 -1.0469 -0.6634 -0.1691
 9174TIP3    H249014   5.088   3.992   0.219  0.6555  1.0845  1.4324
 9175TIP3   OH249015   2.376   4.542  14.046  0.1650  0.0808  0.4300
 9175TIP3    H149016   2.318   4.485  13.996 -0.5409  0.8597  0.3386
 9175TIP3    H249017   2.464   4.520  14.016  0.0545 -1.9778  1.4253
 9176TIP3   OH249018   6.388   5.182   5.414  0.3504 -0.5022 -0.2853
 9176TIP3    H149019   6.473   5.197   5.373  0.1363 -0.4183 -0.7035
 9176TIP3    H249020   6.327   5.236   5.364  0.3727  1.0927  1.3225
 9177TIP3   OH249021   1.715   2.345  13.238 -0.5585  0.4277 -0.2352
 9177TIP3    H149022   1.655   2.273  13.215  0.8951 -0.7606 -0.4608
 9177TIP3    H249023   1.784   2.341  13.172  0.8084  0.4885  1.1352
 9178TIP3   OH249024   4.834   3.885  11.550 -0.3068  0.0587 -0.1295
 9178TIP3    H149025   4.907   3.910  11.495 -1.1163  0.8202 -0.8803
 9178TIP3    H249026   4.797   3.808  11.507 -0.4480  0.1681 -0.2026
 9179TIP3   OH249027   0.564   3.651  17.099  0.2849 -0.1330 -0.6753
 9179TIP3    H149028   0.582   3.739  17.067 -0.9413  0.1223 -0.7340
 9179TIP3    H249029   0.493   3.663  17.163 -0.0981 -1.1045 -0.9007
 9180TIP3   OH249030   5.422   3.926  12.872 -0.0924  0.5174  0.9012
 9180TIP3    H149031   5.354   3.969  12.820  0.1161  1.4088  1.3401
 9180TIP3    H249032   5.483   3.890  12.808 -1.0367 -0.4161  0.4974
 9181TIP3   OH249033   2.329   0.555   3.719 -0.0205  0.3467  0.2699
 9181TIP3    H149034   2.357   0.488   3.656 -2.8124  0.4234 -1.1687
 9181TIP3    H249035   2.377   0.633   3.693  0.3515 -0.1209 -0.5063
 9182TIP3   OH249036   6.713   4.745  16.253  0.5032  0.1149 -0.1421
 9182TIP3    H149037   6.656   4.684  16.206  0.3465 -0.4238  0.7239
 9182TIP3    H249038   6.678   4.831  16.232 -1.1952 -0.2356  1.0406
 9183TIP3   OH249039   3.627   2.310  13.492 -0.8983 -0.1114  0.3883
 9183TIP3    H149040   3.703   2.325  13.549 -0.9250 -0.3508  0.4916
 9183TIP3    H249041   3.554   2.299  13.553 -1.0202  0.1503  0.2885
 9184TIP3   OH249042   3.033   6.634   1.145 -0.3573 -0.4732 -0.0043
 9184TIP3    H149043   3.093   6.679   1.205  1.4828  0.6921 -2.5137
 9184TIP3    H249044   2.950   6.682   1.153  0.1000  0.1684  1.0024
 9185TIP3   OH249045   2.275   3.173  13.217  0.5632 -0.3903  0.2603
 9185TIP3    H149046   2.261   3.083  13.246  1.1538  0.1731  2.4689
 9185TIP3    H249047   2.188   3.213  13.219  0.3835 -0.7537 -0.1865
 9186TIP3   OH249048   2.309   3.416  16.182 -0.0352 -0.4723  0.5001
 9186TIP3    H149049   2.390   3.376  16.149  0.5052  0.8277  0.1985
 9186TIP3    H249050   2.239   3.363  16.144  0.6239 -0.2367 -1.1358
 9187TIP3   OH249051   6.212   0.640  15.208 -0.2336 -0.5745  0.0499
 9187TIP3    H149052   6.278   0.582  15.246 -0.0292 -0.4940 -0.1811
 9187TIP3    H249053   6.131   0.588  15.210 -0.0802 -0.8217 -0.0318
 9188TIP3   OH249054   2.497   6.159  15.538 -0.3288 -0.2226 -0.2399
 9188TIP3    H149055   2.478   6.253  15.536  1.1338  0.1038 -0.6017
 9188TIP3    H249056   2.412   6.116  15.545 -1.0729  1.1087 -0.8677
 9189TIP3   OH249057   0.843   2.907   5.842  0.4487  0.5666 -0.1132
 9189TIP3    H149058   0.906   2.977   5.826  1.1454  0.2360  1.0854
 9189TIP3    H249059   0.846   2.892   5.936 -1.7937  0.8498  0.0673
 9190TIP3   OH249060   1.710   5.779   3.386  0.5307 -0.6969 -0.0205
 9190TIP3    H149061   1.677   5.813   3.303 -0.1185 -0.4860  0.3223
 9190TIP3    H249062   1.799   5.815   3.393 -0.7061  2.5289  1.1771
 9191TIP3   OH249063   6.504   3.360   1.585  0.3334  0.1544  0.1198
 9191TIP3    H149064   6.445   3.391   1.516  0.7799  0.2341 -0.2317
 9191TIP3    H249065   6.548   3.285   1.546 -1.9621 -2.0819  1.5243
 9192TIP3   OH249066   4.367   4.065  13.592  0.2121 -0.0407 -0.5090
 9192TIP3    H149067   4.362   4.141  13.534  0.8223  0.2601 -0.1868
 9192TIP3    H249068   4.427   4.093  13.662 -1.9351  0.3165  1.3142
 9193TIP3   OH249069   1.637   1.530  16.426 -0.3991 -0.2591 -0.0952
 9193TIP3    H149070   1.716   1.551  16.375 -0.3963  0.6074  0.2500
 9193TIP3    H249071   1.598   1.615  16.446  0.8918 -0.2990  3.4095
 9194TIP3   OH249072   6.597   0.897   3.597  0.0405  0.5186 -0.2340
 9194TIP3    H149073   6.556   0.979   3.569  1.2527  0.1065 -3.7183
 9194TIP3    H249074   6.691   0.911   3.583  0.3411 -1.1650 -0.0896
 9195TIP3   OH249075   4.631   1.772  11.664 -0.2183 -0.4978  0.4576
 9195TIP3    H149076   4.667   1.853  11.701 -0.9132 -0.4772  1.1277
 9195TIP3    H249077   4.577   1.737  11.734  0.7645 -2.0157  0.4917
 9196TIP3   OH249078   6.391   3.962  14.051  0.1275 -0.2332 -0.1979
 9196TIP3    H149079   6.302   3.929  14.036 -0.2222 -0.3636  1.8247
 9196TIP3    H249080   6.432   3.896  14.107  0.8209  0.7561  0.5003
 9197TIP3   OH249081   4.763   2.563  13.809 -0.2115  0.5451 -0.2553
 9197TIP3    H149082   4.671   2.537  13.805 -0.4445  1.4633 -1.0354
 9197TIP3    H249083   4.806   2.511  13.741 -0.0390 -0.2406  0.4260
 9198TIP3   OH249084   0.878   2.232   3.454  0.2491 -0.5118 -0.8361
 9198TIP3    H149085   0.967   2.257   3.478  0.2195 -0.5451 -0.6903
 9198TIP3    H249086   0.840   2.199   3.535 -0.0348 -0.1007 -0.8017
 9199TIP3   OH249087   0.996   4.612  16.194 -0.3644  0.2757 -0.2088
 9199TIP3    H149088   0.924   4.668  16.223 -1.4286  0.6401 -3.1865
 9199TIP3    H249089   0.954   4.529  16.172  0.6616 -0.5735  0.8935
 9200TIP3   OH249090   6.388   0.232  14.424  0.1913  0.5861  0.6189
 9200TIP3    H149091   6.473   0.268  14.450  1.1553 -1.2728  0.1846
 9200TIP3    H249092   6.382   0.149  14.471 -1.0230  0.3120  0.0054
 9201TIP3   OH249093   0.483   3.190   3.889 -0.3152 -0.5653 -0.0437
 9201TIP3    H149094   0.428   3.163   3.815  0.0986 -3.0967  0.4876
 9201TIP3    H249095   0.434   3.263   3.929 -2.0485 -1.1150 -1.0419
 9202TIP3   OH249096   2.912   2.647   4.755 -0.3628  0.1376  0.1053
 9202TIP3    H149097   2.877   2.734   4.774 -0.5329  0.1870 -0.4190
 9202TIP3    H249098   2.971   2.628   4.829 -0.3880  0.6586  0.2640
 9203TIP3   OH249099   1.839   4.385   5.378 -0.3410 -0.0547  0.1637
 9203TIP3    H149100   1.879   4.472   5.372 -0.3502 -0.0588  0.0482
 9203TIP3    H249101   1.903   4.332   5.425 -0.3138  0.0015  0.1899
 9204TIP3   OH249102   2.912   2.646   4.132  0.1573 -0.2800 -0.3763
 9204TIP3    H149103   2.864   2.626   4.212  0.0981  0.2798 -0.2681
 9204TIP3    H249104   2.908   2.566   4.080 -0.7058 -0.3118 -0.2723
 9205TIP3   OH249105   4.831   2.804   0.618  0.0769 -0.6886 -0.1075
 9205TIP3    H149106   4.828   2.710   0.639 -0.2160 -0.4998  0.7172
 9205TIP3    H249107   4.792   2.810   0.530 -0.7258 -1.2348  0.1994
 9206TIP3   OH249108   4.826   2.986   4.207 -0.0056  0.0609 -0.1526
 9206TIP3    H149109   4.846   3.034   4.127 -0.5734 -0.6508 -0.7367
 9206TIP3    H249110   4.901   3.001   4.264  1.1021 -0.6469 -1.3888
 9207TIP3   OH249111   1.909   2.606   2.367  0.2048  0.0818  0.1718
 9207TIP3    H149112   1.938   2.569   2.284 -0.7741  3.1152 -1.7030
 9207TIP3    H249113   1.830   2.558   2.389 -0.3913  0.2421 -1.5216
 9208TIP3   OH249114   3.267   3.085   3.621 -0.3460 -0.2448  0.1339
 9208TIP3    H149115   3.313   3.169   3.622  1.9025 -1.3838 -0.4940
 9208TIP3    H249116   3.243   3.072   3.530 -1.0697 -0.1155  0.2999
 9209TIP3   OH249117   3.442   3.530   5.025 -0.0189 -0.1164 -0.2731
 9209TIP3    H149118   3.517   3.506   5.080  0.3134  0.1585 -0.6020
 9209TIP3    H249119   3.479   3.542   4.938 -0.7135 -1.6569 -0.8151
 9210TIP3   OH249120   2.244   5.789   3.434  0.1062  0.1601  0.1802
 9210TIP3    H149121   2.331   5.758   3.456 -0.6988 -1.9611  0.6512
 9210TIP3    H249122   2.247   5.883   3.448  1.6279 -0.1686  2.5415
 9211TIP3   OH249123   2.859   5.315   5.184  0.5187  0.2603  0.0784
 9211TIP3    H149124   2.855   5.358   5.269 -0.6568  0.9754 -0.3103
 9211TIP3    H249125   2.890   5.384   5.124  2.2343 -0.4794  0.0500
 9212TIP3   OH249126   4.667   6.011  14.364 -0.4591  0.7376  0.3601
 9212TIP3    H149127   4.642   6.050  14.281 -1.7317 -1.0704 -0.1644
 9212TIP3    H249128   4.644   6.077  14.430  0.2336  2.0356 -0.6530
 9213TIP3   OH249129   0.479   1.578  14.886  0.4111 -0.5274 -0.1384
 9213TIP3    H149130   0.448   1.584  14.795  0.6796 -1.2562 -0.2849
 9213TIP3    H249131   0.534   1.500  14.887  2.1480  0.6531  0.1436
 9214TIP3   OH249132   4.598   3.389  11.742 -0.0098  0.1460 -0.3683
 9214TIP3    H149133   4.684   3.390  11.699 -0.0556 -1.7638 -0.5652
 9214TIP3    H249134   4.568   3.480  11.736  2.8880  1.3970  1.5554
 9215TIP3   OH249135   2.576   1.971  11.440 -0.4232  0.0595  0.1731
 9215TIP3    H149136   2.499   1.924  11.471 -0.3667 -0.0773  0.1056
 9215TIP3    H249137   2.620   1.910  11.380  0.6393 -0.4996  1.4748
 9216TIP3   OH249138   2.141   6.423  15.243  0.1338  0.4054  0.2450
 9216TIP3    H149139   2.162   6.501  15.192  1.4782  0.7658  1.2851
 9216TIP3    H249140   2.223   6.375  15.247 -0.6834 -1.0949 -0.3925
 9217TIP3   OH249141   3.486   3.874  16.696 -0.0537  0.2563 -0.9161
 9217TIP3    H149142   3.397   3.838  16.693  0.4087 -1.4441  2.0832
 9217TIP3    H249143   3.539   3.812  16.646  0.0632 -1.1576  0.8604
 9218TIP3   OH249144   2.797   4.037  16.033  0.7312  0.1059  0.3676
 9218TIP3    H149145   2.840   4.121  16.016  1.2130 -0.1772  0.1862
 9218TIP3    H249146   2.704   4.059  16.036  0.6948  0.3653 -1.4605
 9219TIP3   OH249147   5.243   4.260   1.531  0.6550 -0.4331 -0.3532
 9219TIP3    H149148   5.195   4.342   1.546  0.7824  0.1002 -2.4505
 9219TIP3    H249149   5.324   4.288   1.487  0.2696 -1.7414 -1.9668
 9220TIP3   OH249150   3.092   3.493  15.751 -0.0327 -0.2240 -0.0219
 9220TIP3    H149151   3.185   3.510  15.771  0.0099  0.6386 -0.8942
 9220TIP3    H249152   3.084   3.398  15.754  0.9918 -0.3342 -0.4124
 9221TIP3   OH249153   6.413   3.162   3.356  0.2675  0.1243 -0.7887
 9221TIP3    H149154   6.435   3.179   3.448 -0.0439 -0.6710 -0.5625
 9221TIP3    H249155   6.483   3.104   3.325  0.7014  0.8667 -1.2326
 9222TIP3   OH249156   0.738   2.697  16.961  0.1604 -0.7184  0.2856
 9222TIP3    H149157   0.766   2.643  16.888  0.2761 -1.4877  0.8885
 9222TIP3    H249158   0.668   2.647  17.003 -0.3284 -0.0097  0.3512
 9223TIP3   OH249159   2.095   3.119  12.391  0.1956  0.1716  0.4849
 9223TIP3    H149160   2.096   3.162  12.477  4.8108  1.4756  0.0583
 9223TIP3    H249161   2.118   3.188  12.329  1.9849 -1.6640 -1.0521
 9224TIP3   OH249162   0.291   4.407  11.395 -0.1789  0.4463 -0.1897
 9224TIP3    H149163   0.264   4.416  11.303 -0.7057 -0.9114 -0.1881
 9224TIP3    H249164   0.269   4.317  11.418  0.0623  0.7271  1.2452
 9225TIP3   OH249165   2.174   3.472  14.316  0.2510  0.3419  0.2870
 9225TIP3    H149166   2.131   3.427  14.243 -2.2685  0.2471  1.6995
 9225TIP3    H249167   2.206   3.401  14.372  3.9083  0.3818 -1.5001
 9226TIP3   OH249168   0.204   3.702   2.752  0.3499 -0.2839 -0.8105
 9226TIP3    H149169   0.226   3.790   2.721 -0.4103  0.4025  0.5094
 9226TIP3    H249170   0.288   3.664   2.776  0.4812  1.5134  2.1433
 9227TIP3   OH249171   1.992   6.029  15.280  0.5129  0.0937 -0.3184
 9227TIP3    H149172   1.987   6.104  15.222  0.3856  0.9989  0.8327
 9227TIP3    H249173   1.925   6.045  15.347 -1.5208 -2.3883 -1.5359
 9228TIP3   OH249174   1.152   1.402   4.598  0.4441 -0.4013  0.1537
 9228TIP3    H149175   1.074   1.369   4.642 -0.6061  2.6580  0.8013
 9228TIP3    H249176   1.138   1.496   4.590  4.3377  0.4461  0.9404
 9229TIP3   OH249177   4.618   3.451   3.648 -0.0587  0.0405 -0.0525
 9229TIP3    H149178   4.655   3.490   3.569 -0.7977 -1.0216 -0.9558
 9229TIP3    H249179   4.527   3.430   3.624 -0.0550 -1.0311  0.8146
 9230TIP3   OH249180   2.184   1.747   3.458 -0.5833 -0.6719 -0.0537
 9230TIP3    H149181   2.250   1.786   3.402 -1.8024  1.9569  0.2103
 9230TIP3    H249182   2.221   1.751   3.547 -0.2970 -1.1216 -0.1465
 9231TIP3   OH249183   1.937   1.141  15.472 -0.0063  0.4303 -0.0487
 9231TIP3    H149184   1.886   1.208  15.519  1.2504 -0.5432  2.9719
 9231TIP3    H249185   1.871   1.083  15.434 -1.2324  0.3007  2.0828
 9232TIP3   OH249186   3.297   1.115   3.229  0.0880 -0.0787 -0.4124
 9232TIP3    H149187   3.280   1.176   3.158 -0.4823  1.4103  0.9483
 9232TIP3    H249188   3.229   1.049   3.221  0.7932 -0.6615 -1.9804
 9233TIP3   OH249189   5.997   0.352   5.427  0.0181 -0.7656 -0.1520
 9233TIP3    H149190   5.983   0.304   5.508  0.3719 -1.3442 -0.4264
 9233TIP3    H249191   6.084   0.326   5.398  1.0280  1.4545  0.6329
 9234TIP3   OH249192   6.466   0.594   3.549  0.0435  0.0532 -0.9715
 9234TIP3    H149193   6.433   0.521   3.496 -0.7241 -0.6634  0.4275
 9234TIP3    H249194   6.558   0.574   3.563 -0.1116 -0.5488 -0.7803
 9235TIP3   OH249195   3.345   0.888  16.747  0.0588 -0.8191  0.5851
 9235TIP3    H149196   3.343   0.810  16.802  1.4405 -0.1894  1.5956
 9235TIP3    H249197   3.438   0.908  16.738 -0.2475  0.3444 -0.2014
 9236TIP3   OH249198   3.593   4.947   5.096  0.5880  0.0024  0.1044
 9236TIP3    H149199   3.688   4.943   5.088  0.5926 -0.9873  0.4770
 9236TIP3    H249200   3.568   4.860   5.127 -0.5018  0.0465 -0.5993
 9237TIP3   OH249201   3.853   5.321  16.252 -0.3608  0.2890 -0.6846
 9237TIP3    H149202   3.788   5.255  16.227  1.9346 -1.8010 -1.6177
 9237TIP3    H249203   3.883   5.358  16.169 -0.5496  1.4758 -0.2500
 9238TIP3   OH249204   0.918   4.879  12.001 -0.4466 -0.2013 -0.2732
 9238TIP3    H149205   0.985   4.895  12.068  0.4889  2.4048 -1.6692
 9238TIP3    H249206   0.842   4.930  12.030 -0.7622 -0.7061 -0.2018
 9239TIP3   OH249207   3.639   5.988  16.172  0.3474  0.0285  0.4730
 9239TIP3    H149208   3.563   6.044  16.153  0.4247  0.3206  1.0209
 9239TIP3    H249209   3.602   5.912  16.216  0.1728 -0.6320 -0.7568
 9240TIP3   OH249210   0.315   6.150  11.621  0.0350  0.2812  0.0514
 9240TIP3    H149211   0.270   6.222  11.578  0.5682  0.1689 -0.7155
 9240TIP3    H249212   0.375   6.192  11.683  0.8182  0.5343 -0.8593
 9241TIP3   OH249213   0.496   5.209  15.626 -0.1977  0.0061 -0.1757
 9241TIP3    H149214   0.584   5.226  15.660 -0.5562  1.3999  0.0969
 9241TIP3    H249215   0.484   5.115  15.641  1.2654 -0.2367 -0.3061
 9242TIP3   OH249216   3.385   1.520   1.395  0.3306 -0.3258 -0.1965
 9242TIP3    H149217   3.370   1.610   1.425  1.0237  0.5828 -2.4021
 9242TIP3    H249218   3.346   1.517   1.308 -2.0299 -3.0029  0.8348
 9243TIP3   OH249219   1.627   1.104  14.917 -0.0532 -0.0943 -0.1600
 9243TIP3    H149220   1.537   1.075  14.904 -0.3572  1.0525 -0.7634
 9243TIP3    H249221   1.676   1.063  14.847  0.2801 -2.2069  1.2273
 9244TIP3   OH249222   0.723   3.498   1.615 -0.3492 -0.1365 -0.3125
 9244TIP3    H149223   0.652   3.489   1.551 -0.0018  0.6302 -0.8132
 9244TIP3    H249224   0.737   3.409   1.647 -3.0218 -0.0518  1.4148
 9245TIP3   OH249225   0.166   4.612   0.435  0.2778 -0.5150  0.2194
 9245TIP3    H149226   0.071   4.612   0.435  0.2111  1.1409 -1.6646
 9245TIP3    H249227   0.191   4.664   0.512 -0.4233  1.0475 -0.5765
 9246TIP3   OH249228   1.609   5.880   3.167  0.7665  0.1643  0.3073
 9246TIP3    H149229   1.646   5.898   3.081 -1.1525  1.3423 -0.3544
 9246TIP3    H249230   1.576   5.966   3.197 -0.0819 -0.5257  1.4493
 9247TIP3   OH249231   1.976   3.431   1.778 -0.4472 -0.8147  0.2958
 9247TIP3    H149232   2.010   3.356   1.826 -0.2131 -0.6411  0.4089
 9247TIP3    H249233   1.949   3.493   1.846  0.7513 -0.1794  0.2285
 9248TIP3   OH249234   1.972   0.050   3.458 -0.1853  0.4383 -0.5057
 9248TIP3    H149235   1.972   0.114   3.530 -0.7768 -0.2500  0.1228
 9248TIP3    H249236   2.061   0.054   3.422  0.0631  0.9225  0.1472
 9249TIP3   OH249237   1.544   0.351   1.935 -0.3927  0.3300 -0.5274
 9249TIP3    H149238   1.619   0.343   1.994 -0.4823  0.2320 -0.4280
 9249TIP3    H249239   1.537   0.266   1.892 -0.6919  0.2078 -0.2434
 9250TIP3   OH249240   2.632   5.582   0.982  0.0855  0.3859  0.5147
 9250TIP3    H149241   2.553   5.554   0.935  1.2768 -1.7385 -0.3608
 9250TIP3    H249242   2.601   5.647   1.045 -2.2750 -0.0178 -0.1432
 9251TIP3   OH249243   5.850   6.156   0.381 -1.4318  0.7191 -0.0163
 9251TIP3    H149244   5.880   6.085   0.324 -0.0649  2.3319 -1.4193
 9251TIP3    H249245   5.755   6.155   0.372 -1.4314 -0.8477 -0.0788
 9252TIP3   OH249246   1.346   6.170   4.839 -0.9588 -0.0627 -0.0661
 9252TIP3    H149247   1.313   6.255   4.810  0.9003  0.0801 -1.9980
 9252TIP3    H249248   1.353   6.119   4.758 -1.5522 -1.9115  0.9958
 9253TIP3   OH249249   5.587   0.821   2.997 -0.2046 -0.1124 -0.2538
 9253TIP3    H149250   5.522   0.757   2.966 -0.2451 -0.4267  0.4511
 9253TIP3    H249251   5.570   0.827   3.091  2.0057 -1.6460  0.3199
 9254TIP3   OH249252   1.621   3.269   6.107 -0.2219 -0.0828  0.4846
 9254TIP3    H149253   1.550   3.314   6.062 -0.3150 -0.5771  0.1300
 9254TIP3    H249254   1.701   3.303   6.067 -0.2538  0.5009  0.9098
 9255TIP3   OH249255   2.292   3.829  15.547 -0.2520  0.3679  0.3119
 9255TIP3    H149256   2.291   3.736  15.524  1.3540  0.3050  0.3563
 9255TIP3    H249257   2.209   3.863  15.514 -1.6687 -1.4128  1.8170
 9256TIP3   OH249258   4.697   2.500  16.960  0.1673  1.1272 -0.4113
 9256TIP3    H149259   4.752   2.574  16.931 -0.3512  0.8093 -2.3449
 9256TIP3    H249260   4.748   2.422  16.937 -0.3985  0.8515 -0.7353
 9257TIP3   OH249261   2.713   1.371  14.629  0.3704 -0.5682 -0.2888
 9257TIP3    H149262   2.733   1.282  14.659  2.2683  0.0988  0.6419
 9257TIP3    H249263   2.797   1.417  14.635 -0.3769  1.0593 -1.6034
 9258TIP3   OH249264   2.219   4.668  14.243 -0.0214  0.5655 -0.5426
 9258TIP3    H149265   2.276   4.599  14.209  0.7489 -0.3745  2.3622
 9258TIP3    H249266   2.266   4.749  14.225  1.0324  0.0032 -0.4241
 9259TIP3   OH249267   0.737   5.057  12.108  0.1199 -0.0620  0.3531
 9259TIP3    H149268   0.677   5.109  12.054  0.2570  1.4870  1.6142
 9259TIP3    H249269   0.770   5.119  12.173  1.3586 -1.4343  1.0839
 9260TIP3   OH249270   1.861   2.783  16.187 -0.2687 -0.0302  0.3366
 9260TIP3    H149271   1.906   2.713  16.235  0.7976  0.8899  0.7180
 9260TIP3    H249272   1.818   2.739  16.114  1.5896 -0.9081 -0.2747
 9261TIP3   OH249273   4.862   3.542  11.185 -0.3434 -0.1261  0.1094
 9261TIP3    H149274   4.785   3.495  11.153 -0.2528  0.3624 -0.8754
 9261TIP3    H249275   4.918   3.551  11.108  0.6491 -0.3613  0.7855
 9262TIP3   OH249276   4.316   2.202  16.837  0.3145  0.5306 -0.3461
 9262TIP3    H149277   4.398   2.207  16.789  0.4119  0.0740 -0.2349
 9262TIP3    H249278   4.342   2.179  16.926 -0.0313 -1.3585 -0.6915
 9263TIP3   OH249279   5.963   2.043  12.760 -0.4260  0.0928  0.4730
 9263TIP3    H149280   6.040   2.097  12.774 -0.1824 -0.0417 -0.3162
 9263TIP3    H249281   5.958   1.988  12.838 -0.0124  0.4494  0.7516
 9264TIP3   OH249282   0.743   0.167  13.286  0.5788 -0.0602 -0.5041
 9264TIP3    H149283   0.708   0.095  13.339 -0.4708  1.0220  0.3023
 9264TIP3    H249284   0.823   0.131  13.248 -0.1153 -1.7788 -0.4170
 9265TIP3   OH249285   2.218   1.040  14.411  0.1116 -0.1001  0.1070
 9265TIP3    H149286   2.245   1.045  14.502  1.5013  0.5380 -0.3197
 9265TIP3    H249287   2.296   1.013  14.363 -0.1162  1.1937 -1.0919
 9266TIP3   OH249288   4.818   2.087  14.207  0.3955 -0.7882 -0.3639
 9266TIP3    H149289   4.845   2.033  14.133 -0.0524  1.8168 -2.5839
 9266TIP3    H249290   4.728   2.059  14.225  0.8932 -2.2332  0.0209
 9267TIP3   OH249291   1.189   6.323  17.258 -0.0879 -0.0095 -0.5044
 9267TIP3    H149292   1.113   6.271  17.231  0.0883 -0.8622  0.5974
 9267TIP3    H249293   1.214   6.288  17.343  1.6600  0.1419 -0.9164
 9268TIP3   OH249294   1.803   2.719   5.028  0.1762  0.1838  0.3702
 9268TIP3    H149295   1.878   2.660   5.020 -0.0323  0.0945 -1.4546
 9268TIP3    H249296   1.755   2.687   5.104  1.0978 -0.7935  0.5667
 9269TIP3   OH249297   5.161   1.099   1.828 -0.1255  0.2736 -0.0747
 9269TIP3    H149298   5.072   1.082   1.799  0.4258 -1.2827 -0.9890
 9269TIP3    H249299   5.216   1.075   1.753  1.1056  0.2673  0.7899
 9270TIP3   OH249300   3.663   5.106   2.627 -0.2106 -1.5612 -0.2253
 9270TIP3    H149301   3.575   5.106   2.588 -0.7847  1.0198  0.8331
 9270TIP3    H249302   3.721   5.133   2.556 -0.7967  0.0393 -0.1285
 9271TIP3   OH249303   0.452   5.211  11.658  0.2600  0.3458 -0.0033
 9271TIP3    H149304   0.511   5.145  11.696 -2.3587 -2.0323  0.3041
 9271TIP3    H249305   0.413   5.254  11.734 -1.2455 -0.8638 -0.0593
 9272TIP3   OH249306   3.311   0.399  17.062 -0.0819  0.0610  0.1592
 9272TIP3    H149307   3.237   0.402  17.001 -1.4095  0.7690  1.7197
 9272TIP3    H249308   3.272   0.373  17.146  1.6362 -0.6361  0.7820
 9273TIP3   OH249309   3.257   5.560   2.957 -0.3069 -0.0255 -0.1314
 9273TIP3    H149310   3.266   5.547   2.863 -0.6522 -0.9305 -0.0482
 9273TIP3    H249311   3.197   5.491   2.985  0.6811 -0.4837  0.9345
 9274TIP3   OH249312   4.841   5.077   1.605  0.0965  0.7944  0.5026
 9274TIP3    H149313   4.873   5.092   1.516  1.1123 -2.5771  0.1597
 9274TIP3    H249314   4.750   5.052   1.594  0.3660 -0.1377  0.3253
 9275TIP3   OH249315   4.483   6.011   0.403  0.1425  0.0063  0.2083
 9275TIP3    H149316   4.411   5.979   0.349  0.0716  0.9855 -0.2928
 9275TIP3    H249317   4.524   5.932   0.438 -0.5860 -0.5902 -0.2632
 9276TIP3   OH249318   1.020   2.661   2.171 -0.3442 -0.0225 -0.1469
 9276TIP3    H149319   1.086   2.652   2.102 -0.5205 -1.2602 -0.1807
 9276TIP3    H249320   0.936   2.656   2.125 -0.4767  1.1402 -0.0573
 9277TIP3   OH249321   1.672   2.815  14.727 -0.3691 -0.5069  0.3381
 9277TIP3    H149322   1.622   2.873  14.785 -3.1654 -0.7323 -1.6397
 9277TIP3    H249323   1.739   2.871  14.689  1.2575 -0.2354  3.2485
 9278TIP3   OH249324   5.819   1.781  11.045  0.1723  0.3841  0.1788
 9278TIP3    H149325   5.830   1.686  11.037  1.6005  0.5354 -0.0331
 9278TIP3    H249326   5.726   1.794  11.064  0.0162 -1.0704  0.4867
 9279TIP3   OH249327   0.916   0.283  14.388  0.0399  0.3076 -0.3742
 9279TIP3    H149328   0.987   0.277  14.325  1.5942  0.1637  1.3134
 9279TIP3    H249329   0.866   0.360  14.361  1.6198  1.2125 -0.8531
 9280TIP3   OH249330   2.032   4.581   4.866 -0.3005  0.2265  0.4270
 9280TIP3    H149331   2.092   4.645   4.904  1.0050 -0.6122 -0.1277
 9280TIP3    H249332   1.982   4.630   4.800 -0.9770  1.1646  1.6000
 9281TIP3   OH249333   0.221   3.834  13.888  0.4505  0.1928 -0.2058
 9281TIP3    H149334   0.166   3.758  13.871  0.4452  0.1911 -0.1808
 9281TIP3    H249335   0.186   3.872  13.968 -1.0312  1.5250 -1.4012
 9282TIP3   OH249336   3.800   1.181  13.242  0.1893  0.1671  0.0625
 9282TIP3    H149337   3.736   1.122  13.281  1.2985 -1.4466 -0.4611
 9282TIP3    H249338   3.764   1.204  13.157  0.0183 -0.2173  0.0311
 9283TIP3   OH249339   4.154   0.592  12.957 -0.0081 -0.0998  0.2551
 9283TIP3    H149340   4.195   0.607  13.042 -2.3059 -2.4723  1.9182
 9283TIP3    H249341   4.194   0.511  12.925 -1.3534 -0.9318  0.6106
 9284TIP3   OH249342   6.185   4.272   0.583  0.2972 -0.1191 -0.3536
 9284TIP3    H149343   6.214   4.212   0.515  0.9841  1.2761 -1.3386
 9284TIP3    H249344   6.265   4.301   0.626 -0.0351 -0.0253  0.2137
 9285TIP3   OH249345   6.478   2.028  10.514  0.0052 -0.2632 -0.3376
 9285TIP3    H149346   6.392   2.071  10.520 -0.3108 -0.5018 -2.2796
 9285TIP3    H249347   6.516   2.037  10.601 -0.3418  3.3350 -0.4058
 9286TIP3   OH249348   2.874   5.902  11.532 -0.4651  0.0089 -0.0958
 9286TIP3    H149349   2.898   5.820  11.489 -1.4561  0.8368 -2.3436
 9286TIP3    H249350   2.953   5.956  11.527 -0.9352  0.6152 -2.3107
 9287TIP3   OH249351   3.203   2.383   1.016  0.2621  0.2284 -0.1333
 9287TIP3    H149352   3.242   2.443   1.080  1.0556  0.3294 -0.6878
 9287TIP3    H249353   3.129   2.432   0.980  0.4219  0.5663 -0.0081
 9288TIP3   OH249354   6.800   0.140  13.961 -0.0615 -0.7687 -0.2504
 9288TIP3    H149355   6.821   0.053  13.993  0.0238  0.1746  2.5478
 9288TIP3    H249356   6.885   0.183  13.951 -0.0990 -0.9916 -1.6803
 9289TIP3   OH249357   0.170   5.447   0.281  0.1473 -0.7631 -0.0612
 9289TIP3    H149358   0.093   5.427   0.228  0.4218 -0.5012 -0.5601
 9289TIP3    H249359   0.194   5.536   0.257  1.5980 -1.4011 -1.1541
 9290TIP3   OH249360   1.279   5.007  12.907  0.1308 -0.7940  1.0750
 9290TIP3    H149361   1.373   4.997  12.920  0.2810  0.4063  1.0055
 9290TIP3    H249362   1.242   4.922  12.933  1.3875 -1.9392 -0.6877
 9291TIP3   OH249363   0.660   6.304   0.758  0.4154  0.1880 -0.5968
 9291TIP3    H149364   0.706   6.229   0.797 -0.0704  0.4972  0.6207
 9291TIP3    H249365   0.724   6.375   0.761 -0.1750  0.7243  1.4541
 9292TIP3   OH249366   0.261   1.705  12.876  0.0282 -0.0660 -0.3768
 9292TIP3    H149367   0.216   1.733  12.955  0.4492  0.2873 -0.2572
 9292TIP3    H249368   0.349   1.742  12.884  0.1580 -0.2549 -0.8807
 9293TIP3   OH249369   4.244   1.418   1.403  0.1189 -0.2782  0.2760
 9293TIP3    H149370   4.229   1.423   1.498 -0.1072 -1.9622  0.3615
 9293TIP3    H249371   4.205   1.498   1.369 -0.1816  0.1528  1.5621
 9294TIP3   OH249372   0.498   1.645   4.232  0.2533  0.6872  0.0644
 9294TIP3    H149373   0.525   1.564   4.189  0.2251  0.7382 -0.0485
 9294TIP3    H249374   0.491   1.621   4.325  1.3755  0.8514  0.2030
 9295TIP3   OH249375   4.744   5.808   5.805  0.0563  0.0179  0.2142
 9295TIP3    H149376   4.677   5.758   5.852 -1.0198  1.6682  0.5349
 9295TIP3    H249377   4.694   5.875   5.758  1.5071  1.5032  0.7119
 9296TIP3   OH249378   3.213   2.049   2.014 -0.3030 -0.2662 -0.4897
 9296TIP3    H149379   3.246   1.959   2.019  0.3127  0.0048  0.6731
 9296TIP3    H249380   3.121   2.039   1.988  0.0574 -1.1555 -1.4788
 9297TIP3   OH249381   5.324   3.401  12.732  0.4565 -0.4476 -0.1244
 9297TIP3    H149382   5.369   3.366  12.655  2.0910  1.4310 -0.0933
 9297TIP3    H249383   5.258   3.460  12.696  2.2788  1.6778 -0.1519
 9298TIP3   OH249384   2.448   0.635  13.369  0.4584  0.5206 -0.6187
 9298TIP3    H149385   2.539   0.664  13.370  0.4009  0.7012 -0.4931
 9298TIP3    H249386   2.436   0.589  13.452  0.9737 -1.2221 -1.4555
 9299TIP3   OH249387   5.156   5.475   4.193 -0.4158  0.3056  0.1910
 9299TIP3    H149388   5.106   5.534   4.249 -2.5063 -2.0697  0.9678
 9299TIP3    H249389   5.099   5.457   4.119  0.0821 -0.8973  0.0697
 9300TIP3   OH249390   2.551   2.650  16.390 -0.0871 -0.9444 -0.1678
 9300TIP3    H149391   2.541   2.583  16.458 -1.9184  0.1844  0.7562
 9300TIP3    H249392   2.559   2.732  16.438  1.2507 -0.3834 -1.3047
 9301TIP3   OH249393   2.621   6.047  16.583  0.0850 -0.5413 -0.1998
 9301TIP3    H149394   2.712   6.077  16.587  0.1305 -0.6070 -0.6482
 9301TIP3    H249395   2.569   6.128  16.582  0.1945 -0.4693 -1.1040
 9302TIP3   OH249396   0.157   0.456   6.527 -0.0932 -0.3990 -0.0535
 9302TIP3    H149397   0.096   0.397   6.572  0.7342 -0.1119  1.5097
 9302TIP3    H249398   0.187   0.406   6.451  0.0862 -1.7602  0.8728
 9303TIP3   OH249399   1.721   5.489   5.977 -0.0128  0.1542 -0.7739
 9303TIP3    H149400   1.784   5.459   5.911 -0.1094 -1.1870 -0.3013
 9303TIP3    H249401   1.671   5.410   5.998 -2.3073  1.3182 -1.5917
 9304TIP3   OH249402   3.489   3.097  16.162 -0.2923 -0.0200  0.2838
 9304TIP3    H149403   3.433   3.037  16.210 -0.3731 -0.4949 -0.3953
 9304TIP3    H249404   3.518   3.047  16.085  1.1876  0.1501  0.6971
 9305TIP3   OH249405   1.342   5.857   2.979 -0.3742  0.3520  0.0869
 9305TIP3    H149406   1.435   5.870   3.001 -0.6012  1.4289  0.4301
 9305TIP3    H249407   1.344   5.813   2.894  0.4554 -0.2491  0.3939
 9306TIP3   OH249408   1.889   1.874  16.940 -0.0385 -0.1978  0.3476
 9306TIP3    H149409   1.956   1.939  16.962  0.7354 -0.6057 -0.6710
 9306TIP3    H249410   1.919   1.793  16.982  1.1674 -0.8489 -1.6361
 9307TIP3   OH249411   0.161   4.823  16.349  0.2126 -0.0668  0.0310
 9307TIP3    H149412   0.088   4.770  16.317  0.0857  1.6324 -2.7621
 9307TIP3    H249413   0.239   4.775  16.324  0.1045  0.9846 -2.6803
 9308TIP3   OH249414   1.688   1.072   2.542  0.1099  0.0899 -0.2006
 9308TIP3    H149415   1.680   1.137   2.612  0.2424  1.5219 -1.4540
 9308TIP3    H249416   1.763   1.102   2.490 -0.2844 -0.6548 -1.2318
 9309TIP3   OH249417   5.554   1.724  14.825  0.8710 -0.4445  0.1650
 9309TIP3    H149418   5.583   1.673  14.901  0.9401 -0.2839  0.2470
 9309TIP3    H249419   5.470   1.685  14.801  0.8567 -0.5077  0.3140
 9310TIP3   OH249420   3.962   4.187   3.535 -0.3958  0.1800 -0.1497
 9310TIP3    H149421   4.027   4.161   3.470  0.4458 -0.8262  1.0413
 9310TIP3    H249422   3.992   4.273   3.565 -0.3663  0.3135 -0.5599
 9311TIP3   OH249423   0.931   6.149  12.591  0.0502  0.0001 -0.5287
 9311TIP3    H149424   0.870   6.215  12.624 -0.7447 -1.0629  0.2229
 9311TIP3    H249425   0.936   6.165  12.497 -0.5989  0.7499 -0.4436
 9312TIP3   OH249426   4.338   0.400  13.920  0.0179 -0.4819 -0.0897
 9312TIP3    H149427   4.286   0.326  13.891 -1.3463  0.3360  0.1456
 9312TIP3    H249428   4.338   0.460  13.846 -0.3998  0.0360  0.3165
 9313TIP3   OH249429   2.656   1.577  14.808  0.0116  0.6604 -0.0153
 9313TIP3    H149430   2.689   1.517  14.742  0.1250  1.9508 -1.1723
 9313TIP3    H249431   2.561   1.576  14.797 -0.1196 -0.4208  0.9906
 9314TIP3   OH249432   6.075   3.613  13.412  0.5247 -0.0109  0.2012
 9314TIP3    H149433   5.982   3.602  13.394  0.4487 -1.0394  1.0879
 9314TIP3    H249434   6.116   3.537  13.371  0.9151  0.1954  0.2057
 9315TIP3   OH249435   0.566   3.403  15.761  0.8853  0.0971 -0.8726
 9315TIP3    H149436   0.526   3.462  15.824  0.6597  1.0287 -1.8647
 9315TIP3    H249437   0.570   3.453  15.679  2.8685 -0.4102 -1.1541
 9316TIP3   OH249438   6.184   4.952   5.761 -0.0930 -0.4098  0.0008
 9316TIP3    H149439   6.246   4.903   5.815 -0.1638  0.5613  1.0218
 9316TIP3    H249440   6.238   4.998   5.698  0.3612  1.0471  1.3773
 9317TIP3   OH249441   0.622   4.646  14.956  0.4492 -0.1436 -0.3028
 9317TIP3    H149442   0.583   4.559  14.948 -0.9340  0.5570 -1.6828
 9317TIP3    H249443   0.599   4.674  15.045 -1.2181 -0.2443 -0.6723
 9318TIP3   OH249444   5.250   0.281   2.155  0.0139 -0.1961  0.1762
 9318TIP3    H149445   5.239   0.276   2.250  0.8472  0.0410  0.2907
 9318TIP3    H249446   5.200   0.359   2.129 -1.9148 -1.3832  0.1285
 9319TIP3   OH249447   0.579   3.284  16.122  0.2468 -0.0992  0.4029
 9319TIP3    H149448   0.501   3.300  16.069  0.9569  0.5304 -0.4922
 9319TIP3    H249449   0.547   3.283  16.212 -0.6256  1.4703  0.1523
 9320TIP3   OH249450   4.408   3.923  15.081  0.0271 -0.1526 -0.4055
 9320TIP3    H149451   4.325   3.900  15.122  0.4649 -0.8059  0.1289
 9320TIP3    H249452   4.398   4.016  15.057 -0.7844 -0.1820 -0.1945
 9321TIP3   OH249453   3.953   4.649   0.895 -0.4512  0.3015  0.3002
 9321TIP3    H149454   3.998   4.630   0.977  0.3440 -0.6870 -0.3447
 9321TIP3    H249455   4.015   4.624   0.827 -1.0291  1.2832 -0.6110
 9322TIP3   OH249456   6.059   4.969  13.701 -0.0982 -0.1529 -0.3088
 9322TIP3    H149457   6.112   4.939  13.627 -0.2738  1.0288 -0.9434
 9322TIP3    H249458   6.118   4.966  13.776  0.5868  0.1805 -0.8174
 9323TIP3   OH249459   3.765   4.032   3.259  0.2611  0.2447  0.5692
 9323TIP3    H149460   3.730   4.011   3.345 -0.6090 -1.2864 -0.1125
 9323TIP3    H249461   3.690   4.026   3.200  1.3666 -1.8844 -0.7521
 9324TIP3   OH249462   0.560   6.604  16.485  0.2898  0.0923  0.0238
 9324TIP3    H149463   0.649   6.569  16.480  0.3675  0.2353  0.3853
 9324TIP3    H249464   0.504   6.529  16.469  0.4195 -0.5152  2.0832
 9325TIP3   OH249465   1.063   5.112   3.161  0.4642  0.3570  0.2841
 9325TIP3    H149466   1.048   5.021   3.137  2.1245 -0.2412  1.3356
 9325TIP3    H249467   0.986   5.159   3.128 -0.2128 -1.3382 -0.6585
 9326TIP3   OH249468   1.505   3.803  14.534  0.6345 -0.0920 -0.0958
 9326TIP3    H149469   1.560   3.881  14.543  0.7268 -0.3030  1.4010
 9326TIP3    H249470   1.480   3.781  14.624  0.5651 -1.7579 -0.4942
 9327TIP3   OH249471   2.591   1.035  16.295 -0.1839  1.1526  0.1053
 9327TIP3    H149472   2.631   1.109  16.249  0.4224  0.7044 -0.1017
 9327TIP3    H249473   2.627   0.958  16.252  0.9999  0.6980  1.8055
 9328TIP3   OH249474   3.236   4.788  16.805 -0.2163  0.7749 -0.0534
 9328TIP3    H149475   3.227   4.710  16.860  1.7510  0.7605  0.3523
 9328TIP3    H249476   3.178   4.773  16.731  0.3775 -1.2778 -0.1662
 9329TIP3   OH249477   0.068   3.240  10.937 -0.2347  0.1457  0.0673
 9329TIP3    H149478   0.094   3.220  10.847 -3.0374  1.2675 -1.1097
 9329TIP3    H249479   0.059   3.154  10.978 -1.1103 -0.5557 -1.4679
 9330TIP3   OH249480   3.031   2.756   5.640 -0.2488  0.0103  0.4586
 9330TIP3    H149481   3.077   2.746   5.723  2.1919  4.5533 -0.0433
 9330TIP3    H249482   3.100   2.766   5.575 -2.0873 -0.9760 -1.8035
 9331TIP3   OH249483   2.881   2.160   3.825  0.0294 -0.1850  0.5817
 9331TIP3    H149484   2.916   2.205   3.901 -0.8261  2.9373 -0.7188
 9331TIP3    H249485   2.947   2.093   3.805  1.7403  0.8689  2.2963
 9332TIP3   OH249486   1.438   4.000  14.777 -0.3688  0.5219  0.1943
 9332TIP3    H149487   1.420   4.076  14.832  2.2142  2.4548 -1.3585
 9332TIP3    H249488   1.532   3.986  14.786 -0.1656 -0.2054 -2.2189
 9333TIP3   OH249489   1.754   0.888  11.041 -0.3216  0.1141 -0.0188
 9333TIP3    H149490   1.805   0.885  10.960  1.6238 -3.3234  1.1559
 9333TIP3    H249491   1.669   0.851  11.017  0.4944 -1.5896 -0.4061
 9334TIP3   OH249492   5.921   0.224   1.205  0.1632 -0.0931  0.3501
 9334TIP3    H149493   5.851   0.173   1.163  1.0615  0.6172 -2.2264
 9334TIP3    H249494   6.000   0.170   1.193  0.2896 -0.4024  2.2759
 9335TIP3   OH249495   0.369   5.789   1.274  0.0983 -0.1466 -0.1345
 9335TIP3    H149496   0.389   5.842   1.197  1.8388 -0.7157 -0.1145
 9335TIP3    H249497   0.300   5.729   1.244  0.2625  0.1011 -1.0424
 9336TIP3   OH249498   0.188   5.870   2.379  0.6417 -0.0897 -0.0965
 9336TIP3    H149499   0.260   5.818   2.342  0.3476  1.0837 -2.5731
 9336TIP3    H249500   0.227   5.913   2.456  1.9433 -1.1221 -0.1396
 9337TIP3   OH249501   5.232   4.538   5.188  0.3666 -0.0803 -0.4696
 9337TIP3    H149502   5.158   4.499   5.142 -0.5976  0.0685  0.8858
 9337TIP3    H249503   5.237   4.628   5.155 -0.3372  0.0353 -0.2721
 9338TIP3   OH249504   1.480   3.867   3.078 -0.6649  0.4731 -0.0050
 9338TIP3    H149505   1.450   3.932   3.141 -0.2652  0.7970 -0.1466
 9338TIP3    H249506   1.572   3.886   3.065 -0.2686 -0.7840  0.7434
 9339TIP3   OH249507   1.454   6.692  12.464 -0.0738 -0.2921 -0.0293
 9339TIP3    H149508   1.459   6.768  12.406  0.6088  0.1670  0.6140
 9339TIP3    H249509   1.543   6.658  12.468  0.5126  1.2498  2.7571
 9340TIP3   OH249510   3.238   5.390   1.975  0.4520 -0.1508  0.7473
 9340TIP3    H149511   3.237   5.296   1.963  1.9981 -0.1334  0.2492
 9340TIP3    H249512   3.261   5.426   1.889 -1.6238  0.8069  0.5154
 9341TIP3   OH249513   4.906   5.079   4.157 -0.3623  0.1474 -0.0642
 9341TIP3    H149514   4.991   5.119   4.178 -0.8864  0.3544  1.8952
 9341TIP3    H249515   4.905   5.074   4.061  1.5006  0.9037 -0.1784
 9342TIP3   OH249516   6.639   3.742   6.652 -0.4875  0.3116  0.0354
 9342TIP3    H149517   6.558   3.786   6.676  0.0458  0.4272  1.7784
 9342TIP3    H249518   6.707   3.789   6.701  0.2747 -1.5152  0.8268
 9343TIP3   OH249519   5.214   0.646  15.836 -0.0606  0.3034 -0.1140
 9343TIP3    H149520   5.138   0.638  15.779  1.4799 -1.2729 -2.0784
 9343TIP3    H249521   5.182   0.622  15.923 -1.7883 -0.3841 -0.8994
 9344TIP3   OH249522   5.436   2.783   5.034  0.3989 -0.1355  0.9328
 9344TIP3    H149523   5.384   2.755   5.109 -1.1994 -0.5743 -0.2782
 9344TIP3    H249524   5.440   2.705   4.977 -0.6535  0.8833 -0.6123
 9345TIP3   OH249525   4.094   4.846   1.489  0.4196  0.6683 -0.2659
 9345TIP3    H149526   4.102   4.860   1.395 -0.4112  2.1407 -0.1554
 9345TIP3    H249527   4.080   4.934   1.525  0.8249  0.1407  1.2448
 9346TIP3   OH249528   4.548   4.047   4.785 -0.2623 -0.0039  0.1922
 9346TIP3    H149529   4.479   4.112   4.800  0.6836  1.1137 -0.1825
 9346TIP3    H249530   4.562   4.008   4.871  0.3850  1.5755  0.8505
 9347TIP3   OH249531   5.922   5.060   0.827 -0.1682  0.3417 -0.1730
 9347TIP3    H149532   5.967   5.088   0.747 -0.2792  0.1483 -0.3024
 9347TIP3    H249533   5.843   5.113   0.829  0.1522  0.8186  0.1539
 9348TIP3   OH249534   3.949   6.133   4.857 -0.0123 -0.8485 -0.0976
 9348TIP3    H149535   3.948   6.111   4.950 -0.3907 -1.5611 -0.2647
 9348TIP3    H249536   3.912   6.057   4.813 -1.9212  0.3232 -0.6505
 9349TIP3   OH249537   1.647   3.273  12.660 -0.8899 -0.2336  0.3502
 9349TIP3    H149538   1.741   3.285  12.648 -1.0544  0.5846 -0.1946
 9349TIP3    H249539   1.634   3.178  12.658 -0.2092 -0.3210 -0.6225
 9350TIP3   OH249540   3.891   4.562  16.307 -0.4179  0.5407  0.1183
 9350TIP3    H149541   3.864   4.650  16.332 -0.8537  0.1343  1.1714
 9350TIP3    H249542   3.935   4.528  16.386  1.6475  0.5636 -0.9626
 9351TIP3   OH249543   1.875   3.450   1.246 -0.4862 -0.3262 -0.3402
 9351TIP3    H149544   1.822   3.371   1.253 -1.1851  0.2509  1.5949
 9351TIP3    H249545   1.904   3.468   1.335 -0.1517  1.4598 -0.7544
 9352TIP3   OH249546   2.935   3.721   2.823  0.1965 -0.7217 -0.1705
 9352TIP3    H149547   2.948   3.806   2.867 -1.3474 -0.0531 -0.9313
 9352TIP3    H249548   2.886   3.669   2.887  0.5891 -0.8207  0.0524
 9353TIP3   OH249549   5.744   0.885  12.164 -0.1301  0.3941  0.2348
 9353TIP3    H149550   5.663   0.856  12.207 -0.7037 -0.7830 -1.5411
 9353TIP3    H249551   5.764   0.968  12.206 -2.3434  0.7913  0.6372
 9354TIP3   OH249552   2.163   3.037  13.554  0.3052  0.0999 -0.0664
 9354TIP3    H149553   2.210   2.981  13.616  1.6474 -0.8944 -1.8774
 9354TIP3    H249554   2.168   2.990  13.470 -0.9930  1.6119 -1.0638
 9355TIP3   OH249555   1.938   1.720   3.301 -0.4391  0.3833 -0.0863
 9355TIP3    H149556   2.012   1.722   3.362 -0.1307 -0.3707 -0.4203
 9355TIP3    H249557   1.861   1.709   3.357  0.0513 -3.5472  0.1091
 9356TIP3   OH249558   6.595   0.795  15.604  0.0538 -0.3045  0.1045
 9356TIP3    H149559   6.649   0.744  15.544  0.7375 -0.2297  0.6464
 9356TIP3    H249560   6.602   0.885  15.572 -1.5766 -0.5848 -1.1692
 9357TIP3   OH249561   0.330   2.679   0.813  0.3110 -0.0795  0.1698
 9357TIP3    H149562   0.381   2.629   0.750 -0.9843 -0.9030 -0.2850
 9357TIP3    H249563   0.388   2.691   0.888  1.0495 -1.2655 -0.1942
 9358TIP3   OH249564   3.422   0.587   0.068 -0.0516  1.1276 -0.3911
 9358TIP3    H149565   3.452   0.600  -0.022 -0.9188 -0.5165 -0.9540
 9358TIP3    H249566   3.487   0.528   0.106 -1.4038 -0.8711 -1.0151
 9359TIP3   OH249567   5.220   2.961  14.178  0.0934  1.4265  0.0955
 9359TIP3    H149568   5.152   2.911  14.133  1.9777  1.1592 -2.7642
 9359TIP3    H249569   5.273   2.895  14.223 -0.6436  1.4797  1.0574
 9360TIP3   OH249570   3.227   0.586  11.405 -0.4553  0.1159 -0.1965
 9360TIP3    H149571   3.273   0.545  11.331 -0.6147 -0.4765  0.0235
 9360TIP3    H249572   3.161   0.522  11.431 -0.3112  0.2543  0.5464
 9361TIP3   OH249573   1.812   5.142  13.079 -0.2468  1.0832  0.0729
 9361TIP3    H149574   1.750   5.194  13.027 -0.4943 -0.3695 -1.1638
 9361TIP3    H249575   1.855   5.086  13.015 -0.5329 -0.7574  1.4197
 9362TIP3   OH249576   5.865   1.678  16.290  0.5716  0.1802 -0.0370
 9362TIP3    H149577   5.960   1.675  16.302  0.5642 -0.4642 -0.1178
 9362TIP3    H249578   5.850   1.632  16.207 -0.0359 -2.3372  1.3547
 9363TIP3   OH249579   0.803   6.529   6.349  0.1435 -0.3282 -0.5882
 9363TIP3    H149580   0.871   6.490   6.405  0.0752 -2.8498 -2.1205
 9363TIP3    H249581   0.722   6.514   6.396  0.4265  1.1793  0.4532
 9364TIP3   OH249582   6.595   1.974   4.841 -0.3532  0.3746  0.0665
 9364TIP3    H149583   6.561   1.893   4.805 -0.8771  0.2911  0.7201
 9364TIP3    H249584   6.525   2.038   4.828 -0.6584  0.2774  1.1557
 9365TIP3   OH249585   2.228   1.741   6.221  0.0278 -0.8611 -0.4767
 9365TIP3    H149586   2.288   1.674   6.253  0.7388 -0.1350 -0.2412
 9365TIP3    H249587   2.163   1.750   6.290  1.7618  0.9697  1.0635
 9366TIP3   OH249588   6.435   5.057   1.993 -0.4810 -0.1244 -0.0869
 9366TIP3    H149589   6.494   5.035   2.065 -0.2295  1.0221  0.0784
 9366TIP3    H249590   6.462   5.000   1.921 -1.7905 -2.5031  1.1573
 9367TIP3   OH249591   2.832   2.651  15.642 -0.9207 -0.0477  0.3505
 9367TIP3    H149592   2.916   2.614  15.615 -0.9181  0.3565 -0.2208
 9367TIP3    H249593   2.836   2.652  15.737 -0.0580  0.4471  0.3242
 9368TIP3   OH249594   3.344   2.928  12.965  0.1616  0.0995  0.2458
 9368TIP3    H149595   3.261   2.949  12.921  1.3391 -0.1808 -2.3387
 9368TIP3    H249596   3.371   3.010  13.005 -0.5030  0.6728 -0.4409
 9369TIP3   OH249597   4.136   1.135   1.467  0.5494  0.4368 -0.3692
 9369TIP3    H149598   4.207   1.114   1.406 -0.7033 -0.1005 -1.6942
 9369TIP3    H249599   4.108   1.223   1.441  0.8233  0.7097  0.2520
 9370TIP3   OH249600   1.588   4.917  11.509 -0.3370 -0.1602  0.0053
 9370TIP3    H149601   1.610   5.009  11.496  0.0258 -0.4550 -1.6391
 9370TIP3    H249602   1.500   4.908  11.471  0.2699 -0.8015 -1.3023
 9371TIP3   OH249603   1.361   2.532   0.566  0.5244 -0.2547 -0.4000
 9371TIP3    H149604   1.382   2.475   0.640  0.5203 -3.0354 -2.3834
 9371TIP3    H249605   1.429   2.600   0.568  0.7755 -0.4799  1.8413
 9372TIP3   OH249606   3.418   5.244  13.901  0.1639 -0.0253 -0.5667
 9372TIP3    H149607   3.370   5.163  13.919 -0.1598  0.3224  0.1688
 9372TIP3    H249608   3.354   5.313  13.914  0.3099  0.3367 -1.6577
 9373TIP3   OH249609   2.626   3.791   1.373  0.3475 -0.0883 -0.4979
 9373TIP3    H149610   2.602   3.871   1.420 -0.9144 -0.1983 -0.9238
 9373TIP3    H249611   2.700   3.817   1.317 -0.5801  1.0116 -1.2517
 9374TIP3   OH249612   1.624   2.898  12.068 -0.8232 -0.1812  0.1585
 9374TIP3    H149613   1.586   2.874  11.983 -0.6050 -0.7736  0.2251
 9374TIP3    H249614   1.657   2.816  12.103  0.8349  0.3659 -0.0356
 9375TIP3   OH249615   3.848   5.637  14.823  0.3833 -0.2759  0.2122
 9375TIP3    H149616   3.832   5.543  14.833  1.2423 -0.3823  0.7007
 9375TIP3    H249617   3.762   5.677  14.831  0.0001 -1.0287 -0.0640
 9376TIP3   OH249618   4.386   5.404  13.106 -0.6393  0.3824 -0.0349
 9376TIP3    H149619   4.424   5.320  13.133 -3.0674 -0.6174  0.5655
 9376TIP3    H249620   4.455   5.467  13.122  0.3888 -1.1459  2.1325
 9377TIP3   OH249621   2.665   2.201  12.180 -0.7136 -0.2777 -0.5333
 9377TIP3    H149622   2.722   2.126  12.163 -1.4309 -1.0388  0.2658
 9377TIP3    H249623   2.725   2.274  12.197  0.0292 -1.0659  0.3366
 9378TIP3   OH249624   3.267   6.211  15.913  0.1964 -0.7187 -0.2738
 9378TIP3    H149625   3.180   6.229  15.948  0.7227 -0.0145  0.7160
 9378TIP3    H249626   3.304   6.145  15.972  1.9487  2.0618  2.0719
 9379TIP3   OH249627   0.014   4.638   5.698 -0.2409 -0.0375 -0.8353
 9379TIP3    H149628   0.061   4.571   5.648 -1.3238 -1.2547 -0.3069
 9379TIP3    H249629  -0.078   4.625   5.674 -0.8349 -0.7660  1.4850
 9380TIP3   OH249630   5.601   3.577  11.515  0.1398  0.0881  0.2695
 9380TIP3    H149631   5.604   3.504  11.576 -2.5980 -0.9945 -0.7272
 9380TIP3    H249632   5.521   3.624  11.537 -0.2722  0.3781 -1.6465
 9381TIP3   OH249633   0.914   5.203   0.589 -0.0427 -0.8329  0.2678
 9381TIP3    H149634   0.902   5.114   0.555 -2.7063 -0.6260  0.4628
 9381TIP3    H249635   0.858   5.257   0.534  2.4574  1.0115 -0.6332
 9382TIP3   OH249636   0.889   2.954   0.672  0.2696 -0.4933  0.3904
 9382TIP3    H149637   0.964   2.950   0.731  0.7489 -0.0123 -0.1727
 9382TIP3    H249638   0.834   3.023   0.707 -0.9073 -2.1023  1.9191
 9383TIP3   OH249639   1.835   4.722  14.801 -0.4618 -0.4936 -0.1748
 9383TIP3    H149640   1.882   4.771  14.734 -1.6006 -0.2365 -0.8107
 9383TIP3    H249641   1.832   4.632  14.767  1.2255 -0.9403  0.7759
 9384TIP3   OH249642   2.459   6.789  10.677  0.2864 -0.2719  0.5103
 9384TIP3    H149643   2.393   6.723  10.697 -0.9337  0.8314  0.2837
 9384TIP3    H249644   2.459   6.794  10.581 -2.0568  2.2895  0.5100
 9385TIP3   OH249645   4.566   1.947  10.184 -0.3015 -0.1707  0.5632
 9385TIP3    H149646   4.592   1.855  10.192 -0.7588 -0.2343  1.4789
 9385TIP3    H249647   4.623   1.994  10.244 -1.5272 -0.1683  1.7630
 9386TIP3   OH249648   0.571   6.108  12.216  0.3033 -0.2516 -0.6947
 9386TIP3    H149649   0.664   6.112  12.239  0.3265  0.8539 -0.9180
 9386TIP3    H249650   0.565   6.156  12.133 -0.4116 -0.6645 -0.8924
 9387TIP3   OH249651   1.134   6.535   1.214  0.2228  0.3888  0.4178
 9387TIP3    H149652   1.193   6.485   1.271 -1.9890 -0.5463  2.0147
 9387TIP3    H249653   1.114   6.476   1.142  1.2224  0.7224 -0.1488
 9388TIP3   OH249654   5.104   4.731  16.041 -0.0442  0.2717 -0.0500
 9388TIP3    H149655   5.023   4.714  16.089 -0.0979 -0.5428 -0.3986
 9388TIP3    H249656   5.154   4.790  16.097 -1.0653  1.1525 -0.0331
 9389TIP3   OH249657   3.692   4.447   4.830 -0.4619  0.4049 -0.7925
 9389TIP3    H149658   3.748   4.489   4.896 -1.2116 -0.2575  0.2947
 9389TIP3    H249659   3.727   4.477   4.746  2.0122 -0.5956 -0.1906
 9390TIP3   OH249660   5.671   0.714   0.370  0.4536  0.0249  0.6708
 9390TIP3    H149661   5.648   0.804   0.392  1.8879  1.1310 -1.8874
 9390TIP3    H249662   5.602   0.686   0.309  1.5485  0.5703 -0.9084
 9391TIP3   OH249663   5.465   3.061   3.690  0.1387 -0.1443  0.0525
 9391TIP3    H149664   5.405   3.109   3.747  0.4371  1.2414 -0.7610
 9391TIP3    H249665   5.460   3.106   3.606  3.4406  0.9928  0.3317
 9392TIP3   OH249666   4.195   5.103  13.411 -0.1439  0.5618  0.1515
 9392TIP3    H149667   4.284   5.135  13.428  1.3375 -3.1335  0.5005
 9392TIP3    H249668   4.162   5.157  13.340  2.9099  1.3082 -0.8251
 9393TIP3   OH249669   6.564   0.025   5.019  0.2356  0.4027 -0.2790
 9393TIP3    H149670   6.568   0.059   5.108  0.7868  0.0979 -0.1798
 9393TIP3    H249671   6.473   0.037   4.992 -0.4519 -1.3452  1.0718
 9394TIP3   OH249672   3.134   4.142   5.181  0.2439 -0.1692 -0.2258
 9394TIP3    H149673   3.229   4.133   5.191  0.1228 -1.2282  0.1105
 9394TIP3    H249674   3.123   4.207   5.112  1.2061  0.3184  0.0621
 9395TIP3   OH249675   6.659   3.728  13.868  0.6509 -0.0265  0.4445
 9395TIP3    H149676   6.582   3.671  13.867  0.4681  0.2228 -0.0758
 9395TIP3    H249677   6.692   3.722  13.957  0.4020 -0.6381  0.4982
 9396TIP3   OH249678   2.002   1.913  12.133 -0.0358 -0.3673 -1.1791
 9396TIP3    H149679   2.058   1.846  12.094  0.5914 -0.9139  0.5238
 9396TIP3    H249680   2.063   1.965  12.187 -1.1067 -0.7898  0.4885
 9397TIP3   OH249681   4.252   2.033   2.957 -0.0644  0.2045 -0.1266
 9397TIP3    H149682   4.204   1.963   2.912  0.0060  0.6399 -0.8987
 9397TIP3    H249683   4.200   2.112   2.941  0.2645  0.4642  0.0732
 9398TIP3   OH249684   2.109   3.030   3.008  0.1811 -0.3239 -0.3498
 9398TIP3    H149685   2.154   3.055   2.927  1.1478 -1.1073 -0.0821
 9398TIP3    H249686   2.026   3.077   3.005  1.5175  2.2385 -0.2550
 9399TIP3   OH249687   1.684   0.719   2.379 -0.2217  0.1302  0.1295
 9399TIP3    H149688   1.612   0.730   2.318  0.3224  0.8529 -0.3919
 9399TIP3    H249689   1.679   0.795   2.437 -0.2558 -0.1386  0.4806
 9400TIP3   OH249690   5.709   6.206   1.245 -0.1351  0.0055  0.4427
 9400TIP3    H149691   5.664   6.236   1.167  0.4520 -0.6766 -0.1724
 9400TIP3    H249692   5.659   6.130   1.275 -0.0146 -0.0986  0.3809
 9401TIP3   OH249693   5.501   5.837   3.621  0.2461  0.8900  0.5031
 9401TIP3    H149694   5.419   5.885   3.635 -1.3552 -1.1065 -1.3121
 9401TIP3    H249695   5.498   5.765   3.683  0.3647  0.5372  0.1079
 9402TIP3   OH249696   5.375   2.821   2.854 -0.1271 -0.0286  0.2167
 9402TIP3    H149697   5.468   2.801   2.861 -0.1917 -0.3617  0.1335
 9402TIP3    H249698   5.372   2.913   2.827  0.1626  0.4116  1.5963
 9403TIP3   OH249699   0.165   1.847  16.038  0.0764 -0.4084 -0.1112
 9403TIP3    H149700   0.244   1.883  16.000 -0.7825  0.6263 -0.9962
 9403TIP3    H249701   0.169   1.753  16.019  0.7179 -0.2433 -0.8167
 9404TIP3   OH249702   3.391   6.523   1.367  0.2015 -0.0673 -0.2707
 9404TIP3    H149703   3.355   6.603   1.331  2.5822  0.5568 -1.4849
 9404TIP3    H249704   3.377   6.457   1.299 -0.3139 -0.2994  0.0531
 9405TIP3   OH249705   3.514   2.159  11.999  0.1582  0.4617 -0.8179
 9405TIP3    H149706   3.580   2.091  12.017 -0.6195 -0.1244 -0.0831
 9405TIP3    H249707   3.436   2.129  12.046  0.3397  2.8137  1.1834
 9406TIP3   OH249708   1.094   6.065   4.083 -0.4836  0.4571  0.3431
 9406TIP3    H149709   1.107   5.976   4.115  0.3503  0.9704  1.4725
 9406TIP3    H249710   1.126   6.062   3.992  1.1954  0.0069  0.9043
 9407TIP3   OH249711   3.496   5.586   1.486 -0.8363  0.5332  0.0133
 9407TIP3    H149712   3.569   5.532   1.516 -2.0643 -2.1692 -1.4749
 9407TIP3    H249713   3.437   5.591   1.561 -0.9468 -0.7400  0.0371
 9408TIP3   OH249714   2.903   3.710  12.148 -0.1500  0.0172 -1.0364
 9408TIP3    H149715   2.998   3.700  12.144 -0.1994 -1.2316  0.0017
 9408TIP3    H249716   2.884   3.783  12.090  1.6140  1.5005  0.1251
 9409TIP3   OH249717   3.448   1.253  15.075 -0.0357  0.1112  0.3432
 9409TIP3    H149718   3.528   1.303  15.093  1.8032 -1.7111 -2.1272
 9409TIP3    H249719   3.438   1.195  15.151  1.6923 -0.4509  0.1715
 9410TIP3   OH249720   2.075   6.751  11.302  0.2718 -0.4598 -0.4641
 9410TIP3    H149721   2.170   6.751  11.309  0.2209 -1.2064  0.4474
 9410TIP3    H249722   2.053   6.663  11.274 -0.1513 -0.2551 -0.7862
 9411TIP3   OH249723   0.607   0.758  14.302  0.3594 -0.5038  0.8483
 9411TIP3    H149724   0.595   0.843  14.344 -0.5520 -0.5747  0.7416
 9411TIP3    H249725   0.602   0.776  14.208  1.0826 -0.5444  0.7938
 9412TIP3   OH249726   2.915   2.136  10.922  0.0201 -0.0014 -0.1013
 9412TIP3    H149727   2.842   2.113  10.980 -0.1355  3.5757  1.3889
 9412TIP3    H249728   2.993   2.111  10.971 -0.0917 -1.7767 -0.7367
 9413TIP3   OH249729   1.161   5.822  12.749  0.2064  0.2612  0.2391
 9413TIP3    H149730   1.130   5.821  12.840  1.0503  0.6975  0.5404
 9413TIP3    H249731   1.089   5.783  12.699 -0.7143  0.9718  0.9507
 9414TIP3   OH249732   5.452   4.595   4.053 -0.2366  0.1669  0.1650
 9414TIP3    H149733   5.393   4.547   4.111 -0.1886 -1.8419 -1.3598
 9414TIP3    H249734   5.539   4.565   4.077 -0.2574 -1.2302 -1.3425
 9415TIP3   OH249735   4.179   1.205  11.025  0.0245  0.0000 -0.2584
 9415TIP3    H149736   4.126   1.240  10.954  0.0327 -0.2186 -0.3740
 9415TIP3    H249737   4.239   1.144  10.983 -0.4716 -0.6991  0.0204
 9416TIP3   OH249738   4.165   5.139   1.492 -0.3575  0.0337  0.3643
 9416TIP3    H149739   4.209   5.212   1.449  1.2090 -1.3057 -0.3960
 9416TIP3    H249740   4.202   5.136   1.580  0.5112 -0.5985 -0.0141
 9417TIP3   OH249741   5.361   6.769  14.800  0.2850 -0.1406 -0.0138
 9417TIP3    H149742   5.304   6.716  14.856 -0.1283  0.9670  0.6431
 9417TIP3    H249743   5.305   6.795  14.727  0.7038 -1.2161 -0.7586
 9418TIP3   OH249744   2.551   0.104  16.507  0.0212  0.3192 -0.5701
 9418TIP3    H149745   2.598   0.022  16.496 -0.0293 -0.1887  2.1642
 9418TIP3    H249746   2.569   0.154  16.428  1.1791 -1.7759 -1.6902
 9419TIP3   OH249747   2.699   6.220   0.477  0.1263 -0.4836 -0.0157
 9419TIP3    H149748   2.660   6.300   0.442 -0.4797 -0.3704  0.9097
 9419TIP3    H249749   2.785   6.216   0.436 -0.0473  0.3504 -0.4848
 9420TIP3   OH249750   6.404   6.802   1.344  0.8740  0.9383  0.6780
 9420TIP3    H149751   6.389   6.883   1.392  0.0795  0.4362  1.3032
 9420TIP3    H249752   6.330   6.795   1.285  0.4400  0.1979  1.2985
 9421TIP3   OH249753   2.171   1.521  12.441 -0.2759 -0.1170  0.4242
 9421TIP3    H149754   2.219   1.461  12.499 -0.0756  0.2204  0.6119
 9421TIP3    H249755   2.079   1.506  12.462 -0.1717  0.9702  1.8276
 9422TIP3   OH249756   6.786   6.054   4.180 -0.2428 -0.5918  0.0721
 9422TIP3    H149757   6.749   6.123   4.126 -1.5688 -1.0841  0.3108
 9422TIP3    H249758   6.875   6.084   4.201  0.8079 -0.9074 -3.3023
 9423TIP3   OH249759   0.806   1.032   6.484  0.2242  0.4024 -0.4523
 9423TIP3    H149760   0.868   1.000   6.550 -2.4559  0.5177  2.3705
 9423TIP3    H249761   0.782   1.120   6.515 -2.2465 -0.1267 -0.6462
 9424TIP3   OH249762   2.097   4.676  13.951  0.4086  0.3734 -0.0447
 9424TIP3    H149763   2.034   4.720  14.009  0.9615  1.4611 -0.2505
 9424TIP3    H249764   2.180   4.719  13.968  0.9131 -0.3856 -0.5019
 9425TIP3   OH249765   1.490   2.781  16.496  0.8055 -0.0591  0.2899
 9425TIP3    H149766   1.569   2.769  16.549 -0.4934  1.7877  2.8733
 9425TIP3    H249767   1.431   2.831  16.553 -1.5241  0.2476 -2.2212
 9426TIP3   OH249768   0.576   0.916   4.392 -0.4098  0.0526 -0.5598
 9426TIP3    H149769   0.602   0.824   4.395 -2.1034 -0.4443  0.0808
 9426TIP3    H249770   0.633   0.959   4.455 -0.7142 -0.8938  0.4012
 9427TIP3   OH249771   5.435   0.795  12.642  0.3290  0.3594  0.2616
 9427TIP3    H149772   5.446   0.818  12.549 -0.5946 -0.8169 -0.1562
 9427TIP3    H249773   5.393   0.709  12.641  0.2040  0.3771  1.7836
 9428TIP3   OH249774   5.839   3.435   3.354 -0.2987  0.2729 -0.7128
 9428TIP3    H149775   5.896   3.378   3.303 -0.5295  0.4754 -1.2002
 9428TIP3    H249776   5.826   3.512   3.299 -3.2428 -0.8857 -1.8626
 9429TIP3   OH249777   0.253   4.924  12.220  0.5329 -0.0073 -0.7845
 9429TIP3    H149778   0.269   4.847  12.274  3.6522 -0.6176 -2.3214
 9429TIP3    H249779   0.280   4.897  12.131  0.0700  2.3154 -1.7037
 9430TIP3   OH249780   3.389   1.254  16.335 -1.0766  0.5836 -0.3451
 9430TIP3    H149781   3.360   1.308  16.409  0.6279  0.5386  0.3980
 9430TIP3    H249782   3.421   1.173  16.375 -0.7465  0.2890 -1.1854
 9431TIP3   OH249783   4.292   4.352  13.751 -0.2491 -0.1994 -0.3913
 9431TIP3    H149784   4.362   4.409  13.718  1.0807 -0.3373  1.9451
 9431TIP3    H249785   4.261   4.306  13.674  0.9519  1.2443 -1.8214
 9432TIP3   OH249786   5.404   1.288   2.807  0.2136 -0.1839  0.1150
 9432TIP3    H149787   5.435   1.355   2.867  0.6550 -0.0592 -0.2501
 9432TIP3    H249788   5.444   1.206   2.838 -0.5468 -0.3387  0.7288
 9433TIP3   OH249789   6.603   1.846   3.135 -0.3603  0.1805  0.0786
 9433TIP3    H149790   6.629   1.850   3.227 -0.1037  0.7420 -0.0104
 9433TIP3    H249791   6.647   1.769   3.100 -0.7135 -0.2126  0.5037
 9434TIP3   OH249792   5.414   6.183   3.859 -0.2712  0.2500 -0.6494
 9434TIP3    H149793   5.410   6.109   3.799  1.2065  0.8579 -1.5361
 9434TIP3    H249794   5.382   6.148   3.942 -0.4194 -1.1348 -1.2622
 9435TIP3   OH249795   6.308   2.025  12.955  0.2657  0.0765  0.0333
 9435TIP3    H149796   6.330   1.949  12.902 -0.7525 -0.3293  0.1533
 9435TIP3    H249797   6.223   2.002  12.995 -1.3012  2.2008 -1.8213
 9436TIP3   OH249798   5.098   0.973   5.602  0.0870  0.0594 -0.7762
 9436TIP3    H149799   5.084   0.888   5.560 -0.1190 -0.4406  0.2607
 9436TIP3    H249800   5.118   0.952   5.693 -0.5451  1.1371 -0.3610
 9437TIP3   OH249801   1.181   0.940   2.467 -0.6594  0.9479 -0.4864
 9437TIP3    H149802   1.126   1.001   2.515 -2.0266  1.7033 -2.8553
 9437TIP3    H249803   1.197   0.982   2.383  1.6925 -0.2653 -0.7435
 9438TIP3   OH249804   2.205   6.648   4.351 -0.0597 -0.9941  0.2061
 9438TIP3    H149805   2.253   6.565   4.358  1.5453 -0.1792 -0.4894
 9438TIP3    H249806   2.207   6.684   4.439  0.8688 -0.8577  0.1425
 9439TIP3   OH249807   4.882   1.351   2.112 -0.0492 -0.0532 -0.0323
 9439TIP3    H149808   4.872   1.439   2.148  0.8606 -0.7188  2.0268
 9439TIP3    H249809   4.794   1.313   2.118  0.0923 -0.1963  1.7743
 9440TIP3   OH249810   0.575   1.560  15.709 -0.2494 -0.0189  0.0757
 9440TIP3    H149811   0.497   1.506  15.695  0.5055 -0.9917 -0.5843
 9440TIP3    H249812   0.648   1.501  15.690  0.6401  0.9637  0.3459
 9441TIP3   OH249813   3.265   5.192  12.456 -0.7278 -0.2575  0.3522
 9441TIP3    H149814   3.287   5.283  12.478 -1.7732  0.6181 -1.8504
 9441TIP3    H249815   3.170   5.188  12.467 -1.0147 -0.3487 -1.7727
 9442TIP3   OH249816   3.213   5.478  15.155 -0.0892  0.8189 -0.1635
 9442TIP3    H149817   3.205   5.483  15.251  0.0028 -1.7114  0.0413
 9442TIP3    H249818   3.123   5.465  15.125 -0.2515  2.6146 -0.5576
 9443TIP3   OH249819   5.949   2.841  15.979  0.5088  0.1142 -0.1084
 9443TIP3    H149820   5.912   2.753  15.981  2.6474 -0.8275  0.5171
 9443TIP3    H249821   5.888   2.894  16.032 -0.0778 -1.2952  0.6720
 9444TIP3   OH249822   3.393   1.687  17.080 -0.7634  0.6147 -0.2832
 9444TIP3    H149823   3.448   1.762  17.057 -0.1389  0.4442  0.6033
 9444TIP3    H249824   3.316   1.727  17.122  0.1881  0.7541  1.4582
 9445TIP3   OH249825   6.508   3.012  15.427 -0.0926  0.4662 -0.5728
 9445TIP3    H149826   6.510   3.102  15.394  1.8868  0.9892  0.8375
 9445TIP3    H249827   6.415   2.989  15.426 -0.8781  3.1322  0.6163
 9446TIP3   OH249828   3.616   3.942   3.829 -0.8808 -0.3745 -0.5070
 9446TIP3    H149829   3.604   3.888   3.751 -1.9832 -0.3429 -0.3821
 9446TIP3    H249830   3.684   3.898   3.879  0.0691 -0.2145 -1.6335
 9447TIP3   OH249831   1.497   1.609  10.982 -0.2181 -0.5639  0.4736
 9447TIP3    H149832   1.440   1.671  10.938  3.2940  1.2007 -2.0696
 9447TIP3    H249833   1.517   1.542  10.916  0.8613 -0.9452  1.1489
 9448TIP3   OH249834   6.112   2.052   0.500  0.3058  0.7199 -0.0021
 9448TIP3    H149835   6.028   2.077   0.537  0.5133  0.2822  0.7963
 9448TIP3    H249836   6.107   1.957   0.491 -0.2463  0.9147 -2.4118
 9449TIP3   OH249837   1.575   1.782  16.473  0.4379  0.2530 -0.1191
 9449TIP3    H149838   1.567   1.869  16.434 -2.4994  0.0987 -0.0715
 9449TIP3    H249839   1.573   1.798  16.567  0.2747  0.1530 -0.1064
 9450TIP3   OH249840   4.724   5.799  13.170 -0.1190  0.1734  0.7243
 9450TIP3    H149841   4.658   5.852  13.216 -1.0630  0.3876 -0.8032
 9450TIP3    H249842   4.673   5.734  13.122  0.9654 -1.3273  1.5264
 9451TIP3   OH249843   1.140   1.761   3.665 -0.2154  0.7191 -0.5718
 9451TIP3    H149844   1.218   1.760   3.608  0.6340  0.9245  0.5590
 9451TIP3    H249845   1.116   1.854   3.670  0.8883  0.9606  0.9282
 9452TIP3   OH249846   3.624   6.779  16.423  0.6783 -0.5902  0.1570
 9452TIP3    H149847   3.632   6.776  16.518  2.9962 -2.3348 -0.0068
 9452TIP3    H249848   3.677   6.854  16.396  2.5806 -1.8776  0.1287
 9453TIP3   OH249849   0.727   3.897   0.990 -0.4054 -0.0432 -0.0101
 9453TIP3    H149850   0.672   3.829   1.030 -0.5438  0.1262  0.0888
 9453TIP3    H249851   0.815   3.880   1.026  0.0854 -1.6288 -1.7793
 9454TIP3   OH249852   5.922   2.899   2.723  0.6397 -0.0066 -0.0238
 9454TIP3    H149853   5.941   2.987   2.689  0.5964  0.4943  1.1845
 9454TIP3    H249854   5.948   2.903   2.815  2.2129 -1.7794 -0.3251
 9455TIP3   OH249855   3.976   6.442   2.274  0.7692  0.0285  0.2831
 9455TIP3    H149856   3.955   6.356   2.237  3.4260  0.0833 -1.6521
 9455TIP3    H249857   4.046   6.424   2.337  0.9939  0.6968  0.2318
 9456TIP3   OH249858   6.117   5.561   4.111 -0.5843 -0.0364 -0.3680
 9456TIP3    H149859   6.091   5.516   4.031 -0.4549  0.5967 -0.7780
 9456TIP3    H249860   6.036   5.569   4.161 -0.4923 -1.2886  0.0189
 9457TIP3   OH249861   0.965   4.896  12.630  0.1650  0.1593  0.0364
 9457TIP3    H149862   1.036   4.935  12.681  0.2886 -0.1536  0.1030
 9457TIP3    H249863   0.981   4.802  12.633  1.0207  0.1974 -1.8240
 9458TIP3   OH249864   4.596   6.440  11.936 -0.5552 -0.0832 -0.2625
 9458TIP3    H149865   4.501   6.435  11.926 -0.4565  0.2338 -1.4848
 9458TIP3    H249866   4.628   6.459  11.848  0.7306 -1.2569 -0.0714
 9459TIP3   OH249867   0.521   5.674   1.907  0.0263 -0.1800  0.6274
 9459TIP3    H149868   0.593   5.716   1.953  0.7725  0.7391 -1.2643
 9459TIP3    H249869   0.560   5.641   1.826 -2.0412  2.6834 -1.7544
 9460TIP3   OH249870   2.553   2.116  12.449 -0.1783  0.1994  0.2589
 9460TIP3    H149871   2.598   2.175  12.388 -1.4713 -1.9206 -3.0175
 9460TIP3    H249872   2.587   2.029  12.427 -1.6147 -0.8026  1.7838
 9461TIP3   OH249873   5.243   4.400  12.758  0.0229 -0.1268  0.4048
 9461TIP3    H149874   5.154   4.400  12.794 -0.6850 -1.0052 -1.2323
 9461TIP3    H249875   5.282   4.481  12.791 -1.8608  0.9827  0.0622
 9462TIP3   OH249876   1.694   4.186  14.812  0.1705 -1.2427 -0.6679
 9462TIP3    H149877   1.680   4.091  14.808 -0.5480 -1.1811  0.0892
 9462TIP3    H249878   1.654   4.212  14.895  2.2651 -0.5816  0.1701
 9463TIP3   OH249879   6.065   5.643   2.920 -0.0265  0.6062  0.4017
 9463TIP3    H149880   6.095   5.556   2.948 -0.5478  0.5083  0.6658
 9463TIP3    H249881   6.018   5.678   2.996 -2.2875 -0.0377 -0.6281
 9464TIP3   OH249882   4.256   0.608   1.751  0.1884 -0.5629  0.3387
 9464TIP3    H149883   4.322   0.555   1.706  0.7660 -3.2629  3.8950
 9464TIP3    H249884   4.302   0.644   1.826 -1.3227  1.5045  0.3417
 9465TIP3   OH249885   3.140   1.211  13.735 -0.1103 -0.1628  0.1035
 9465TIP3    H149886   3.088   1.150  13.788 -0.3393  0.7949  1.0111
 9465TIP3    H249887   3.120   1.297  13.771  2.2359  0.2333  0.6153
 9466TIP3   OH249888   4.211   0.196  15.987 -0.0062 -0.2409  0.5696
 9466TIP3    H149889   4.172   0.276  15.951  0.6517 -0.6027 -1.0746
 9466TIP3    H249890   4.258   0.225  16.065 -2.0019  0.4867  1.5681
 9467TIP3   OH249891   4.567   5.927   1.219 -0.3744 -0.1428 -0.3661
 9467TIP3    H149892   4.633   5.913   1.287 -1.2618 -0.0555  0.5395
 9467TIP3    H249893   4.594   6.008   1.176 -0.8701  0.9394  1.2421
 9468TIP3   OH249894   6.101   3.580   3.029  0.1872  0.2215 -0.5436
 9468TIP3    H149895   6.073   3.655   2.976  0.9351 -0.0898 -1.4178
 9468TIP3    H249896   6.184   3.607   3.067  0.5012 -0.1823 -0.9300
 9469TIP3   OH249897   4.688   1.603   0.784  0.4263 -0.2378  0.3071
 9469TIP3    H149898   4.764   1.594   0.842 -0.4161  1.5598  1.8087
 9469TIP3    H249899   4.725   1.600   0.696  2.1282 -0.3631  0.9828
 9470TIP3   OH249900   6.499   5.837   3.410  0.1051  0.9033 -0.1837
 9470TIP3    H149901   6.517   5.849   3.504 -0.6275  0.2390  0.0612
 9470TIP3    H249902   6.580   5.864   3.366  1.0458 -0.2930  0.7415
 9471TIP3   OH249903   6.030   5.893  15.135  0.0292 -0.5504  0.5710
 9471TIP3    H149904   5.957   5.941  15.175 -0.6561 -0.1576 -1.0836
 9471TIP3    H249905   5.994   5.857  15.054  1.7394 -0.1095 -0.4401
 9472TIP3   OH249906   2.574   5.866  15.753 -0.2959  0.1949  0.1698
 9472TIP3    H149907   2.664   5.839  15.772 -0.5920 -0.7083  0.3546
 9472TIP3    H249908   2.523   5.786  15.765 -1.0955  0.6555 -0.1317
 9473TIP3   OH249909   4.941   1.541   5.405  0.5282 -0.4614  0.8303
 9473TIP3    H149910   5.023   1.582   5.378  0.4105 -0.1989  0.8631
 9473TIP3    H249911   4.957   1.511   5.494  0.6698 -0.6391  0.7463
 9474TIP3   OH249912   5.026   3.452  10.853  0.0134 -0.0955 -0.6390
 9474TIP3    H149913   5.029   3.546  10.872 -2.1618  1.2136 -5.2791
 9474TIP3    H249914   5.104   3.435  10.801  0.4085 -0.9202  0.1976
 9475TIP3   OH249915   1.081   1.508   4.252  0.8761  0.1906 -0.1463
 9475TIP3    H149916   1.049   1.438   4.308  1.0649  0.4771  0.3230
 9475TIP3    H249917   1.114   1.463   4.174  1.3068 -0.2776  0.2963
 9476TIP3   OH249918   4.952   5.549   3.613 -0.4112  0.2407  0.0436
 9476TIP3    H149919   5.024   5.611   3.627 -0.8214  0.2804  2.3718
 9476TIP3    H249920   4.910   5.578   3.532 -0.2163  2.6402  0.7429
 9477TIP3   OH249921   3.135   4.997  11.884  0.2292  0.1326  0.0898
 9477TIP3    H149922   3.039   4.993  11.891  0.1600  0.5922 -0.4988
 9477TIP3    H249923   3.156   5.088  11.905  0.5139  0.1048 -0.0827
 9478TIP3   OH249924   2.247   1.639   3.982  0.1994 -0.1650 -0.2595
 9478TIP3    H149925   2.284   1.652   4.070 -1.3764 -0.5923  0.5040
 9478TIP3    H249926   2.248   1.545   3.968  0.7296 -0.0784 -0.8393
 9479TIP3   OH249927   0.145   1.142  11.305  0.0796 -0.0679  0.4043
 9479TIP3    H149928   0.084   1.184  11.243  0.2776 -0.1710  0.1381
 9479TIP3    H249929   0.183   1.070  11.255  1.2621  0.6659  0.2016
 9480TIP3   OH249930   5.195   5.776  15.697  0.3030 -0.5614  0.1541
 9480TIP3    H149931   5.138   5.850  15.718  3.0395  1.4127  1.1907
 9480TIP3    H249932   5.177   5.712  15.765 -0.4058  0.1972  0.7019
 9481TIP3   OH249933   0.321   0.846  14.798 -0.4633  0.4910 -0.4413
 9481TIP3    H149934   0.357   0.814  14.715  1.4967  1.5214 -0.0546
 9481TIP3    H249935   0.254   0.783  14.821  0.0555 -0.7060 -2.0110
 9482TIP3   OH249936   6.764   5.361   5.095 -0.2975 -0.4467  0.5130
 9482TIP3    H149937   6.811   5.288   5.137 -0.0731 -0.2788  0.5560
 9482TIP3    H249938   6.814   5.439   5.118  0.7749 -0.5055 -1.3833
 9483TIP3   OH249939   0.151   2.583  12.440  0.8498  0.2574 -0.4874
 9483TIP3    H149940   0.219   2.647  12.421  0.7003  0.0845 -1.6921
 9483TIP3    H249941   0.170   2.510  12.381  0.8656 -0.7078  0.6714
 9484TIP3   OH249942   4.047   4.605  16.834 -0.7533  0.7064 -0.5092
 9484TIP3    H149943   4.065   4.691  16.794 -0.5625  1.0594  0.3204
 9484TIP3    H249944   4.051   4.544  16.761  0.6249  1.2008 -0.8854
 9485TIP3   OH249945   5.957   3.542  13.730  0.2711 -0.2368  0.2865
 9485TIP3    H149946   5.897   3.563  13.658  0.7544 -0.2720 -0.1297
 9485TIP3    H249947   5.906   3.484  13.786 -0.0404 -0.3853 -0.1403
 9486TIP3   OH249948   2.950   1.445  11.670 -0.2789 -0.3651  0.0304
 9486TIP3    H149949   2.889   1.517  11.657  0.8275  0.4638 -0.7360
 9486TIP3    H249950   2.986   1.428  11.583  0.3036 -1.0973  0.4040
 9487TIP3   OH249951   5.277   6.607   0.386 -0.5687  0.2061  0.0086
 9487TIP3    H149952   5.240   6.682   0.340  0.3323  0.7738  0.1838
 9487TIP3    H249953   5.284   6.635   0.478  0.9492  0.3958 -0.1385
 9488TIP3   OH249954   2.451   2.621  15.432  0.4673  0.4704  0.1832
 9488TIP3    H149955   2.426   2.567  15.506  0.2822 -0.4483 -0.5352
 9488TIP3    H249956   2.463   2.560  15.360  1.4295  1.2651 -0.3569
 9489TIP3   OH249957   4.405   1.221  17.024  0.0327 -0.0553 -0.4814
 9489TIP3    H149958   4.313   1.193  17.024  0.3998 -1.3170 -0.1528
 9489TIP3    H249959   4.413   1.274  17.104 -0.1883 -0.7477  0.0168
 9490TIP3   OH249960   3.692   6.558  13.358  0.3136 -0.2821  0.3450
 9490TIP3    H149961   3.597   6.561  13.351  0.2589 -2.0723 -0.2693
 9490TIP3    H249962   3.718   6.647  13.381 -1.3664  0.6630 -1.2253
 9491TIP3   OH249963   3.463   1.227   2.717 -0.2132  0.3193 -0.4143
 9491TIP3    H149964   3.479   1.181   2.799 -1.2941  0.5985 -0.0275
 9491TIP3    H249965   3.431   1.159   2.658 -0.0043  0.2252 -0.4178
 9492TIP3   OH249966   5.317   0.959  12.840  0.2486  0.6697  0.1305
 9492TIP3    H149967   5.313   0.886  12.902 -0.1783  1.9252  1.6572
 9492TIP3    H249968   5.341   0.918  12.756 -1.9772 -1.4879  0.4309
 9493TIP3   OH249969   2.294   4.197  14.839  0.4866  0.0012  0.4718
 9493TIP3    H149970   2.242   4.127  14.801  1.5748  0.2522 -1.6438
 9493TIP3    H249971   2.230   4.262  14.868 -0.4523 -0.7230  0.0534
 9494TIP3   OH249972   6.587   3.437  12.391  0.1929 -0.8050 -0.1028
 9494TIP3    H149973   6.626   3.462  12.307  1.2541  1.5216  1.0001
 9494TIP3    H249974   6.639   3.362  12.420  0.7652 -0.7092 -0.8576
 9495TIP3   OH249975   4.738   0.538  10.462 -0.0894 -0.2461 -0.2169
 9495TIP3    H149976   4.731   0.633  10.476  2.0238 -0.2364  1.2089
 9495TIP3    H249977   4.649   0.506  10.472 -0.4428  1.2392  2.6306
 9496TIP3   OH249978   5.378   2.440  15.292  0.1111  1.3227 -0.2838
 9496TIP3    H149979   5.471   2.427  15.312  0.0300  2.1448  0.7115
 9496TIP3    H249980   5.354   2.364  15.238  0.8359 -0.0771  1.2714
 9497TIP3   OH249981   5.478   5.275  16.513 -0.1098  0.4530 -0.0291
 9497TIP3    H149982   5.537   5.286  16.439  1.1197  1.6325  1.0659
 9497TIP3    H249983   5.504   5.344  16.575 -0.5129 -1.0168  1.8664
 9498TIP3   OH249984   4.783   0.498   5.037 -0.5409 -0.1944 -0.2665
 9498TIP3    H149985   4.853   0.562   5.027 -0.2751 -0.4642 -0.1440
 9498TIP3    H249986   4.723   0.537   5.100 -0.2775 -0.1546 -0.0398
 9499TIP3   OH249987   0.054   2.294  13.582  0.0414  0.0499 -0.2322
 9499TIP3    H149988   0.006   2.215  13.606  1.0073 -0.8931 -1.3009
 9499TIP3    H249989   0.059   2.291  13.486 -0.6376  1.8614 -0.3665
 9500TIP3   OH249990   3.262   0.891  14.385 -0.0428  0.5130  0.4046
 9500TIP3    H149991   3.229   0.801  14.385  0.9978  0.0930  1.9415
 9500TIP3    H249992   3.333   0.891  14.321  0.5844 -0.0254  1.0884
 9501TIP3   OH249993   2.477   0.189   2.957 -0.5778 -0.3276 -0.4404
 9501TIP3    H149994   2.567   0.162   2.976 -0.2385  0.4188 -0.9456
 9501TIP3    H249995   2.423   0.122   2.998  0.1763 -0.1548  0.8888
 9502TIP3   OH249996   3.618   6.155   4.254  0.2685  0.2815  0.7985
 9502TIP3    H149997   3.677   6.177   4.182  0.8333 -0.4891  1.0241
 9502TIP3    H249998   3.592   6.065   4.238 -0.2118  0.3528  1.1468
 9503TIP3   OH249999   0.844   4.604   2.980 -0.1459  0.5693 -0.2276
 9503TIP3    H150000   0.916   4.636   2.926 -0.1839  1.4349  0.2211
 9503TIP3    H250001   0.831   4.513   2.951 -0.3132  1.0661 -1.8380
 9504TIP3   OH250002   1.852   2.532   6.663  0.6979 -0.1144  0.3558
 9504TIP3    H150003   1.791   2.564   6.597  0.1574  0.2173  1.0044
 9504TIP3    H250004   1.856   2.602   6.729  0.9454 -0.5910  0.8593
 9505TIP3   OH250005   4.710   1.228  10.418 -0.0584 -0.2852 -0.2528
 9505TIP3    H150006   4.791   1.279  10.421 -1.2758  1.9625 -2.1614
 9505TIP3    H250007   4.716   1.177  10.337 -0.3533 -0.4718 -0.1596
 9506TIP3   OH250008   0.805   4.173  14.477 -0.2606  0.1979  0.0177
 9506TIP3    H150009   0.805   4.117  14.400 -0.3167 -1.0043  0.8720
 9506TIP3    H250010   0.723   4.222  14.471  0.6406  1.6465 -1.7178
 9507TIP3   OH250011   4.201   4.251  11.733 -0.0118  0.0008  0.3884
 9507TIP3    H150012   4.224   4.158  11.723 -0.7587 -0.2673  1.1052
 9507TIP3    H250013   4.220   4.289  11.647  0.3964 -0.7911  0.1114
 9508TIP3   OH250014   1.575   1.168   4.122 -0.4095 -0.0304 -0.2334
 9508TIP3    H150015   1.653   1.113   4.131 -0.1441  0.3302 -0.3168
 9508TIP3    H250016   1.573   1.193   4.030 -0.7763 -0.2566 -0.2900
 9509TIP3   OH250017   1.340   4.611   4.699  0.1826  0.6249  1.0195
 9509TIP3    H150018   1.321   4.704   4.712  1.1610  1.2082 -1.2268
 9509TIP3    H250019   1.425   4.598   4.741  0.2882  0.8893  0.8914
 9510TIP3   OH250020   4.743   4.588  13.436 -0.1627 -0.0426 -0.1987
 9510TIP3    H150021   4.837   4.568  13.435  0.1367  1.0540  1.8293
 9510TIP3    H250022   4.738   4.683  13.424 -0.8719  0.1410  1.2492
 9511TIP3   OH250023   3.956   5.560   3.517 -0.2762  1.0066 -0.0388
 9511TIP3    H150024   3.987   5.646   3.546 -1.4811  1.5857 -0.3898
 9511TIP3    H250025   4.002   5.546   3.434  0.9471  0.6776  0.6697
 9512TIP3   OH250026   0.149   0.634   0.125  0.9039  0.1338 -0.1364
 9512TIP3    H150027   0.109   0.611   0.040 -0.2432  1.2087  0.0893
 9512TIP3    H250028   0.139   0.729   0.131  1.1532  0.0870  1.1224
 9513TIP3   OH250029   4.435   2.344   4.058 -0.2773 -0.5056 -0.6681
 9513TIP3    H150030   4.401   2.334   3.969  0.4212 -1.8126 -0.8257
 9513TIP3    H250031   4.450   2.438   4.069 -2.5027 -0.0493 -1.0951
 9514TIP3   OH250032   3.246   2.157   1.321 -0.6017 -0.3113 -0.0159
 9514TIP3    H150033   3.307   2.217   1.277  0.1526  0.1357  1.5483
 9514TIP3    H250034   3.294   2.128   1.398 -1.5447 -1.7532  0.0555
 9515TIP3   OH250035   1.044   0.224  12.577 -0.2075 -0.3098  0.1415
 9515TIP3    H150036   1.081   0.165  12.511 -0.9504 -0.0648 -0.5019
 9515TIP3    H250037   1.034   0.308  12.532  1.6792  0.6088  1.2928
 9516TIP3   OH250038   0.323   3.355   2.348 -0.3229 -0.0434 -0.1767
 9516TIP3    H150039   0.334   3.292   2.420  0.1458 -1.9015 -1.7822
 9516TIP3    H250040   0.399   3.340   2.292 -1.1961  0.6224 -1.5823
 9517TIP3   OH250041   2.329   5.186   2.840  0.1202 -0.3871  0.3464
 9517TIP3    H150042   2.267   5.182   2.767  0.4197 -1.7587  0.1405
 9517TIP3    H250043   2.407   5.226   2.803  0.3070 -1.1758 -0.1221
 9518TIP3   OH250044   3.439   0.971  14.946 -0.2710  0.7398 -0.3290
 9518TIP3    H150045   3.455   0.989  15.039 -0.8060 -0.6685  0.0728
 9518TIP3    H250046   3.404   1.053  14.911 -2.3956  0.6192  1.3132
 9519TIP3   OH250047   1.937   0.688   5.048 -0.4932 -0.7233 -0.1551
 9519TIP3    H150048   1.864   0.684   4.986  0.4510 -0.7084 -1.2883
 9519TIP3    H250049   1.929   0.607   5.099 -0.9269 -1.0245 -0.6961
 9520TIP3   OH250050   2.169   0.611  17.086  0.1064 -0.1964  0.3608
 9520TIP3    H150051   2.195   0.634  17.176 -0.7561 -2.5832  1.3064
 9520TIP3    H250052   2.114   0.533  17.096 -0.3395 -0.3065 -2.2366
 9521TIP3   OH250053   5.699   3.522  12.560 -0.5053  0.8189 -0.1176
 9521TIP3    H150054   5.668   3.550  12.646 -1.3051  0.0968 -0.1600
 9521TIP3    H250055   5.790   3.550  12.557  0.3521 -1.4278  2.0094
 9522TIP3   OH250056   1.475   2.091   5.080 -0.0100 -0.5958 -0.2209
 9522TIP3    H150057   1.516   2.008   5.105  2.0944  0.6338  0.6673
 9522TIP3    H250058   1.548   2.150   5.063 -1.3926  1.5014  0.5927
 9523TIP3   OH250059   0.948   6.496   3.084 -0.0063  0.7613  0.1938
 9523TIP3    H150060   0.978   6.416   3.041  0.5369 -0.0820  2.0177
 9523TIP3    H250061   1.017   6.560   3.065  0.5513  0.2180  0.3405
 9524TIP3   OH250062   2.212   2.381  15.451  0.2096 -0.0301 -0.0908
 9524TIP3    H150063   2.237   2.424  15.532  0.4147 -0.1512 -0.0894
 9524TIP3    H250064   2.287   2.396  15.392  0.7560 -1.3138  0.2567
 9525TIP3   OH250065   3.815   6.050  11.837 -0.1834 -0.2825 -0.0644
 9525TIP3    H150066   3.808   5.959  11.809  0.0878 -0.3769  0.1711
 9525TIP3    H250067   3.740   6.093  11.797 -1.1923 -0.9213  1.0691
 9526TIP3   OH250068   0.825   6.707   2.629 -0.6173  0.0700 -0.1539
 9526TIP3    H150069   0.735   6.697   2.598 -0.3267 -0.5196 -0.8090
 9526TIP3    H250070   0.879   6.691   2.552  0.1016 -1.0586  0.5593
 9527TIP3   OH250071   3.054   3.294  11.486 -0.4368  0.2382  0.0084
 9527TIP3    H150072   3.038   3.388  11.488  0.2135  0.3448  2.4087
 9527TIP3    H250073   3.074   3.275  11.394 -0.1607  2.4969 -0.4450
 9528TIP3   OH250074   1.219   0.831  12.988 -0.2116  0.7398 -0.2817
 9528TIP3    H150075   1.142   0.790  13.028 -1.7518  1.1164 -2.6535
 9528TIP3    H250076   1.293   0.786  13.028 -1.5944  0.6060  2.3872
 9529TIP3   OH250077   0.888   5.733   0.703  0.2711 -0.2799  0.1712
 9529TIP3    H150078   0.868   5.664   0.766  0.1275 -0.3996 -0.0042
 9529TIP3    H250079   0.981   5.749   0.713  0.3613 -0.6911  0.0218
 9530TIP3   OH250080   3.245   0.647  14.171 -0.0565  0.2049 -0.0239
 9530TIP3    H150081   3.300   0.624  14.246  0.5338 -0.5076 -0.6651
 9530TIP3    H250082   3.303   0.643  14.095 -1.0464 -0.9022 -0.7663
 9531TIP3   OH250083   0.678   1.097  15.870  0.2910 -0.5966 -0.0671
 9531TIP3    H150084   0.627   1.059  15.941  0.4105  0.2842  0.5011
 9531TIP3    H250085   0.629   1.076  15.791 -1.0142  0.3483  0.4733
 9532TIP3   OH250086   4.615   4.504   6.429 -0.0874  0.6599 -0.2673
 9532TIP3    H150087   4.708   4.521   6.411 -0.2897  0.4179 -1.6966
 9532TIP3    H250088   4.615   4.450   6.507  1.0062  0.2822 -0.5110
 9533TIP3   OH250089   1.879   0.724  11.654 -0.2207  0.1042  0.2154
 9533TIP3    H150090   1.937   0.651  11.635 -0.3964 -0.3976  1.4848
 9533TIP3    H250091   1.912   0.796  11.600 -0.3423 -1.0171 -1.4220
 9534TIP3   OH250092   4.505   0.401   5.574  0.8447 -0.2594  0.8767
 9534TIP3    H150093   4.472   0.489   5.558  0.2687 -0.6830 -0.4103
 9534TIP3    H250094   4.438   0.359   5.628  0.8075 -0.1023  0.9508
 9535TIP3   OH250095   5.266   5.050  14.135  0.2782  0.4136 -0.2193
 9535TIP3    H150096   5.355   5.016  14.130 -0.2527 -0.8764 -1.8958
 9535TIP3    H250097   5.250   5.065  14.229  2.9932  2.8827 -0.0113
 9536TIP3   OH250098   5.939   2.596  14.968  0.2479  0.4279 -0.0354
 9536TIP3    H150099   5.959   2.549  15.049  0.3021 -0.1183 -0.3613
 9536TIP3    H250100   5.843   2.594  14.963  0.0293  2.9327  1.4615
 9537TIP3   OH250101   3.454   1.347  13.913  0.4724  0.1969 -0.2592
 9537TIP3    H150102   3.548   1.353  13.934  0.8097 -0.2146 -1.5559
 9537TIP3    H250103   3.448   1.274  13.851 -0.3351  1.6873 -2.0493
 9538TIP3   OH250104   5.473   0.730   2.034 -0.4326  0.1672 -0.5583
 9538TIP3    H150105   5.508   0.689   1.956  0.2364  0.2769 -0.3195
 9538TIP3    H250106   5.406   0.669   2.065 -1.0857  0.3827 -1.5095
 9539TIP3   OH250107   5.376   1.060  14.228 -0.2468  0.4787  0.6066
 9539TIP3    H150108   5.376   1.067  14.323 -3.2791  1.0043  0.6432
 9539TIP3    H250109   5.313   0.991  14.208  1.8735 -1.1304 -1.0213
 9540TIP3   OH250110   2.653   5.826   5.061 -0.5765 -0.0023 -0.2556
 9540TIP3    H150111   2.632   5.919   5.060 -2.0493 -0.2602  1.6845
 9540TIP3    H250112   2.672   5.805   4.969  0.4084  2.2930 -0.6647
 9541TIP3   OH250113   0.232   5.708  14.866  0.3087  0.2471 -0.0673
 9541TIP3    H150114   0.149   5.666  14.844 -0.1063  1.4440 -0.8415
 9541TIP3    H250115   0.276   5.720  14.782  2.0906 -1.9185  0.4211
 9542TIP3   OH250116   6.370   3.915  14.994 -0.3762  0.9824 -0.3143
 9542TIP3    H150117   6.351   4.006  14.973 -0.4202  0.7990 -1.0763
 9542TIP3    H250118   6.295   3.866  14.960  0.7859  0.3964 -2.1734
 9543TIP3   OH250119   5.947   5.382  14.133 -0.1182  0.6027 -0.1671
 9543TIP3    H150120   5.853   5.389  14.149 -0.3022  1.4875 -1.4572
 9543TIP3    H250121   5.967   5.455  14.075  0.9066 -0.9463 -1.8831
 9544TIP3   OH250122   0.298   3.371  11.933 -0.1661  0.1657  0.1099
 9544TIP3    H150123   0.320   3.283  11.964  2.6179 -0.0603 -2.1378
 9544TIP3    H250124   0.256   3.356  11.848  0.7277  0.9921 -0.4910
 9545TIP3   OH250125   0.601   6.603  16.049  0.4262  0.1741  0.2345
 9545TIP3    H150126   0.664   6.604  15.977  0.0675 -2.1044 -0.2002
 9545TIP3    H250127   0.516   6.606  16.006  0.1806 -2.3880  0.3930
 9546TIP3   OH250128   0.874   2.867   6.146  0.0505  0.3855 -0.0729
 9546TIP3    H150129   0.896   2.919   6.223 -1.0188 -0.4525  0.8391
 9546TIP3    H250130   0.823   2.794   6.180  0.2870 -0.4794 -1.4890
 9547TIP3   OH250131   3.296   4.193  11.422 -0.0173 -0.2881  0.3342
 9547TIP3    H150132   3.377   4.148  11.447  0.0629 -1.2035 -1.4662
 9547TIP3    H250133   3.288   4.178  11.328 -2.3397 -0.2920  0.4946
 9548TIP3   OH250134   4.259   5.891   0.265  0.2928  0.0466 -0.2059
 9548TIP3    H150135   4.221   5.834   0.198  1.6037 -1.1313 -0.0021
 9548TIP3    H250136   4.237   5.848   0.348  0.8865  0.0952 -0.0227
 9549TIP3   OH250137   0.726   6.391  14.651  0.5797  0.3715 -0.4303
 9549TIP3    H150138   0.744   6.301  14.678 -0.1477  0.6032  0.9000
 9549TIP3    H250139   0.647   6.385  14.598  0.0049  0.3256  0.4201
 9550TIP3   OH250140   1.590   3.482   0.596 -0.3142 -0.1353 -0.2491
 9550TIP3    H150141   1.627   3.543   0.661  1.9922 -0.9603 -0.7093
 9550TIP3    H250142   1.571   3.538   0.520  0.1627  0.2997 -0.0595
 9551TIP3   OH250143   1.705   2.372  14.310  0.1634  0.6265  0.2849
 9551TIP3    H150144   1.735   2.460  14.333  0.0020  0.9319 -0.6546
 9551TIP3    H250145   1.642   2.350  14.379 -0.4219  1.5840  0.0718
 9552TIP3   OH250146   1.370   1.920   4.317  0.3949 -0.0319  0.3811
 9552TIP3    H150147   1.393   1.982   4.386  0.3591 -0.0608  0.4193
 9552TIP3    H250148   1.452   1.905   4.269  0.5900 -0.5674  0.8650
 9553TIP3   OH250149   5.020   3.095   3.266  0.2488  0.4875  0.1037
 9553TIP3    H150150   4.982   3.008   3.278 -1.1084  0.4066 -3.7105
 9553TIP3    H250151   4.948   3.156   3.284  0.0937  0.6234 -0.9359
 9554TIP3   OH250152   3.160   3.605  16.425  0.1224 -0.0801 -0.0155
 9554TIP3    H150153   3.181   3.699  16.422 -1.6318  0.3534  0.4888
 9554TIP3    H250154   3.171   3.581  16.516 -2.5537  0.4542  0.5310
 9555TIP3   OH250155   5.119   1.296  12.168  0.1199  0.5179 -0.1316
 9555TIP3    H150156   5.111   1.392  12.166 -1.5915  0.4206  0.3958
 9555TIP3    H250157   5.029   1.265  12.162  0.6718 -1.0813 -0.4945
 9556TIP3   OH250158   4.937   1.618   0.917 -0.5194  0.4801 -0.6601
 9556TIP3    H150159   4.987   1.698   0.931  0.5795 -0.3811  0.4996
 9556TIP3    H250160   4.932   1.577   1.003 -0.8433 -0.8312 -1.2799
 9557TIP3   OH250161   0.005   3.222  12.249  0.0320  0.3888  0.1230
 9557TIP3    H150162   0.030   3.146  12.302 -1.1127  0.1544  0.3577
 9557TIP3    H250163   0.041   3.297  12.297  1.1550  0.0162 -0.0992
 9558TIP3   OH250164   5.799   0.202  12.736 -0.4968  0.1475 -0.1475
 9558TIP3    H150165   5.843   0.118  12.746 -0.6137  0.1694  0.6839
 9558TIP3    H250166   5.722   0.195  12.792 -0.4442  0.8473  0.0227
 9559TIP3   OH250167   1.672   1.438   0.650 -0.1893 -0.3424 -0.3343
 9559TIP3    H150168   1.743   1.392   0.605  0.3269  0.3223 -0.2145
 9559TIP3    H250169   1.698   1.530   0.649  0.0547 -0.3594  1.7205
 9560TIP3   OH250170   1.287   4.992   3.899 -0.2058  0.6774  0.0117
 9560TIP3    H150171   1.250   5.041   3.973  0.9102 -1.0810  1.8534
 9560TIP3    H250172   1.369   4.957   3.933  0.2159 -0.4325 -2.0090
 9561TIP3   OH250173   4.330   3.766   2.504  0.2289  0.1095 -0.0967
 9561TIP3    H150174   4.268   3.693   2.502  2.5296 -2.0459  1.5249
 9561TIP3    H250175   4.357   3.772   2.595 -0.8882  4.0634  0.1750
 9562TIP3   OH250176   3.263   0.979   2.951 -0.3282 -0.1752 -0.4386
 9562TIP3    H150177   3.174   1.014   2.953 -0.2905  0.1050 -2.2919
 9562TIP3    H250178   3.252   0.885   2.966 -0.9384 -0.1311 -0.5855
 9563TIP3   OH250179   0.363   2.925   5.561 -0.0326  0.4780 -0.4869
 9563TIP3    H150180   0.318   2.955   5.483  0.4448 -0.5664 -1.1981
 9563TIP3    H250181   0.453   2.957   5.551  0.1437 -0.0413 -0.5965
 9564TIP3   OH250182   6.766   0.264   6.144 -0.0250 -0.6570 -0.2174
 9564TIP3    H150183   6.717   0.197   6.096  0.8062 -1.5809  0.1853
 9564TIP3    H250184   6.717   0.275   6.225 -1.3222  0.7652 -1.1380
 9565TIP3   OH250185   4.320   2.275   3.790  0.1960 -0.7307 -0.3365
 9565TIP3    H150186   4.227   2.264   3.810  0.1675 -2.0545 -1.0565
 9565TIP3    H250187   4.330   2.235   3.703  0.8423  2.2030 -1.7306
 9566TIP3   OH250188   1.541   5.334   5.603  0.0226  0.3329  0.1294
 9566TIP3    H150189   1.574   5.357   5.690  1.9240 -1.5905  0.0081
 9566TIP3    H250190   1.488   5.256   5.616 -3.1246  2.2848  0.0196
 9567TIP3   OH250191   6.254   6.190   2.421  0.1318  0.2799  0.0734
 9567TIP3    H150192   6.182   6.228   2.371  0.4818 -0.1516 -0.7657
 9567TIP3    H250193   6.255   6.098   2.396  0.0514 -0.0426  1.1930
 9568TIP3   OH250194   4.736   3.826   4.266  0.2587 -0.2392 -0.5505
 9568TIP3    H150195   4.744   3.916   4.234  1.9660 -0.4611 -0.8884
 9568TIP3    H250196   4.680   3.782   4.202 -1.6629  0.8605  0.3139
 9569TIP3   OH250197   3.588   5.448   1.725 -0.0695  0.2137 -0.1234
 9569TIP3    H150198   3.561   5.453   1.816 -0.3838 -0.4314 -0.1739
 9569TIP3    H250199   3.681   5.426   1.729 -0.3182 -0.8547  0.0456
 9570TIP3   OH250200   4.585   3.832  14.350  0.5639 -0.3685  0.2068
 9570TIP3    H150201   4.588   3.882  14.431  0.4157 -0.9252  0.5627
 9570TIP3    H250202   4.639   3.755  14.368 -1.5767 -1.8525  0.7255
 9571TIP3   OH250203   4.429   4.520  14.441  0.3949  0.2194 -0.2216
 9571TIP3    H150204   4.470   4.499  14.525 -0.5716  0.1127  0.2497
 9571TIP3    H250205   4.462   4.454  14.380  0.2644 -0.3811  0.3467
 9572TIP3   OH250206   1.588   2.185   6.426  0.2372 -0.2221 -0.3893
 9572TIP3    H150207   1.643   2.237   6.484  0.7870 -1.3313  0.1189
 9572TIP3    H250208   1.650   2.131   6.377 -0.3337 -0.6983 -0.5980
 9573TIP3   OH250209   0.482   2.436   4.974 -0.4536  0.2876 -0.2150
 9573TIP3    H150210   0.535   2.515   4.986 -0.9680  0.8067 -1.3041
 9573TIP3    H250211   0.400   2.454   5.021 -0.7454  0.5809 -0.8338
 9574TIP3   OH250212   1.374   1.555   6.638 -0.1752  0.9918 -0.9447
 9574TIP3    H150213   1.464   1.541   6.668 -0.5573  0.1507 -0.1096
 9574TIP3    H250214   1.326   1.579   6.717 -0.9283  0.1595 -1.1295
 9575TIP3   OH250215   0.412   5.323  12.612  0.3728  0.5023 -0.4187
 9575TIP3    H150216   0.329   5.330  12.567  0.2009 -1.5138 -0.5130
 9575TIP3    H250217   0.478   5.324  12.543  0.2932  0.1579 -0.4996
 9576TIP3   OH250218   4.213   3.260   0.218  0.0629 -0.6890  0.2964
 9576TIP3    H150219   4.199   3.176   0.262 -0.5112 -0.3432  0.7854
 9576TIP3    H250220   4.252   3.237   0.133 -0.6704 -1.4824  0.1681
 9577TIP3   OH250221   1.769   6.702  10.775  0.1892  0.1510  0.1444
 9577TIP3    H150222   1.685   6.655  10.778 -0.5556  1.4453 -0.0023
 9577TIP3    H250223   1.745   6.794  10.772  1.6356  0.5753  0.8022
 9578TIP3   OH250224   2.431   0.905   4.853  0.1071 -0.5962  0.0039
 9578TIP3    H150225   2.354   0.915   4.796  0.6201  2.0037 -0.3534
 9578TIP3    H250226   2.496   0.860   4.798 -0.4357 -0.9159 -0.3910
 9579TIP3   OH250227   0.509   3.982   0.825 -0.0811  0.8157 -0.3227
 9579TIP3    H150228   0.592   3.962   0.869 -0.3307 -1.7117 -0.8422
 9579TIP3    H250229   0.525   3.961   0.733 -1.1173  0.8498 -0.5237
 9580TIP3   OH250230   3.059   3.309  14.315 -0.0528  0.4075  0.2305
 9580TIP3    H150231   3.029   3.226  14.352 -0.7857  0.6867  0.2720
 9580TIP3    H250232   3.023   3.311  14.226 -0.6966  1.0178  0.4893
 9581TIP3   OH250233   3.350   4.115   2.601  0.1311  0.4112 -0.4907
 9581TIP3    H150234   3.276   4.176   2.602  1.2433  1.8099  0.7163
 9581TIP3    H250235   3.349   4.078   2.513 -3.7764 -1.9201  0.3122
 9582TIP3   OH250236   0.533   1.959   4.408  0.3726  0.1348  0.2992
 9582TIP3    H150237   0.581   1.979   4.328 -0.6931  0.1319 -0.3607
 9582TIP3    H250238   0.541   2.038   4.462 -0.9822  1.1194 -0.8721
 9583TIP3   OH250239   1.759   3.001  16.285  0.0363 -0.0544 -0.0383
 9583TIP3    H150240   1.670   2.976  16.311  0.1928 -0.2148  0.3491
 9583TIP3    H250241   1.790   2.927  16.233 -0.5786  0.6188 -1.4193
 9584TIP3   OH250242   4.544   4.262  15.217 -0.1829 -0.5648  0.0710
 9584TIP3    H150243   4.472   4.232  15.162 -1.9960  0.7284  1.6020
 9584TIP3    H250244   4.553   4.355  15.197 -0.1482 -0.3244  1.1442
 9585TIP3   OH250245   6.462   5.323  14.925 -0.0113 -0.1352 -0.3127
 9585TIP3    H150246   6.493   5.315  14.834  0.6920 -4.6579  0.0951
 9585TIP3    H250247   6.387   5.264  14.930  0.3582 -0.4863  2.1555
 9586TIP3   OH250248   0.972   0.966   0.612 -0.7203 -0.2493  0.5152
 9586TIP3    H150249   1.063   0.982   0.638 -0.8069  0.9568  0.1258
 9586TIP3    H250250   0.979   0.906   0.538 -0.0835  1.5621 -0.9610
 9587TIP3   OH250251   0.277   4.710  13.649  0.4872  0.0225 -0.4529
 9587TIP3    H150252   0.313   4.643  13.708  2.6466  1.8324  0.4282
 9587TIP3    H250253   0.214   4.758  13.703  1.2506  0.6312 -0.0753
 9588TIP3   OH250254   0.795   5.889  16.577 -0.0377 -0.7691  0.2123
 9588TIP3    H150255   0.861   5.933  16.524 -0.7238  0.7786  0.5684
 9588TIP3    H250256   0.844   5.843  16.645  0.7320 -0.9213 -0.4386
 9589TIP3   OH250257   3.395   1.352  12.630  0.2223  0.0379 -0.0456
 9589TIP3    H150258   3.301   1.343  12.612 -0.0962  0.6383  1.2314
 9589TIP3    H250259   3.436   1.346  12.544 -0.9557 -0.5728 -0.5954
 9590TIP3   OH250260   4.172   3.979   2.625  0.3473  0.4771  0.1453
 9590TIP3    H150261   4.084   3.999   2.591  0.2725  0.1554  0.1454
 9590TIP3    H250262   4.206   3.912   2.565  0.8918  1.1457 -0.3006
 9591TIP3   OH250263   6.249   5.213   1.910  0.0805 -0.3500 -0.4288
 9591TIP3    H150264   6.319   5.278   1.904  0.0460 -0.0946  1.5455
 9591TIP3    H250265   6.280   5.150   1.974 -1.0158 -0.8552 -0.3763
 9592TIP3   OH250266   5.096   4.785   3.051  0.3851 -0.1199 -0.0916
 9592TIP3    H150267   5.156   4.724   3.094  2.6330  1.0858 -1.3116
 9592TIP3    H250268   5.013   4.737   3.045  1.2932 -1.9990  1.3921
 9593TIP3   OH250269   3.054   3.994  16.750  0.2318 -0.1032 -0.6165
 9593TIP3    H150270   3.018   3.924  16.696  0.5822 -0.5195 -0.3192
 9593TIP3    H250271   2.990   4.007  16.820  1.5188 -2.2475  1.0983
 9594TIP3   OH250272   2.143   3.457  11.434  0.3252  0.3087  0.4596
 9594TIP3    H150273   2.120   3.412  11.352 -0.7599  1.1090  0.3135
 9594TIP3    H250274   2.063   3.454  11.486  0.0028  2.6571  0.1719
 9595TIP3   OH250275   4.168   6.673  17.184  0.5303  0.0119  0.5330
 9595TIP3    H150276   4.195   6.582  17.171  0.2567  0.0803 -0.6613
 9595TIP3    H250277   4.084   6.666  17.230 -0.1630 -0.4190 -0.7240
 9596TIP3   OH250278   5.230   5.146   4.717 -0.2513  0.1205 -0.0989
 9596TIP3    H150279   5.274   5.151   4.633 -0.8570  1.3173 -0.3666
 9596TIP3    H250280   5.217   5.052   4.732  1.0206 -0.1738 -0.7070
 9597TIP3   OH250281   5.517   0.622   3.515  0.4622  0.1456 -0.0774
 9597TIP3    H150282   5.578   0.571   3.461  0.3174  2.0581 -2.2209
 9597TIP3    H250283   5.550   0.612   3.604  2.7230 -0.5415 -0.9121
 9598TIP3   OH250284   2.717   2.313   4.912 -0.2495  0.2145 -0.6071
 9598TIP3    H150285   2.679   2.226   4.911 -2.2255  0.9821  1.2778
 9598TIP3    H250286   2.812   2.298   4.906 -0.5462 -2.0149 -0.3939
 9599TIP3   OH250287   4.759   5.231   5.742  0.3510 -0.7609 -0.4173
 9599TIP3    H150288   4.756   5.140   5.713  0.1785 -0.6937 -0.6111
 9599TIP3    H250289   4.807   5.228   5.825  1.4508 -0.8631 -1.0398
 9600TIP3   OH250290   5.334   4.515  14.269  0.4629 -0.1718 -0.2079
 9600TIP3    H150291   5.394   4.464  14.214  0.7336  0.9672 -1.0109
 9600TIP3    H250292   5.247   4.486  14.242  0.6066 -1.8080  0.9330
 9601TIP3   OH250293   4.070   5.319   5.186  0.1033 -0.4143  0.5943
 9601TIP3    H150294   4.030   5.254   5.243  0.9213  0.0589  1.7529
 9601TIP3    H250295   4.164   5.306   5.196  0.3058 -0.8782 -1.3436
 9602TIP3   OH250296   6.001   5.595   3.842  0.1146  0.2136  0.1843
 9602TIP3    H150297   5.976   5.681   3.808  1.1413  1.2220  1.7838
 9602TIP3    H250298   6.079   5.572   3.793  0.8799  1.0842  0.9379
 9603TIP3   OH250299   6.546   4.690   0.873  0.5743 -0.1899 -0.0352
 9603TIP3    H150300   6.608   4.627   0.838 -0.0318 -1.3072  0.8404
 9603TIP3    H250301   6.460   4.651   0.856  0.1189  0.9761 -0.5508
 9604TIP3   OH250302   1.063   3.098  15.735 -0.2571  0.1462  0.1695
 9604TIP3    H150303   0.983   3.051  15.713 -1.4169  2.5612 -1.2088
 9604TIP3    H250304   1.032   3.179  15.777  1.5199  0.6549  0.5835
 9605TIP3   OH250305   0.332   1.883   4.187 -0.9959 -0.1891 -0.1315
 9605TIP3    H150306   0.384   1.822   4.239  1.1084  0.2361 -1.6359
 9605TIP3    H250307   0.276   1.826   4.134 -1.4510 -0.6722  0.8212
 9606TIP3   OH250308   2.692   0.041  12.218 -0.4882  0.2883 -0.6490
 9606TIP3    H150309   2.704  -0.008  12.137  0.1624  1.4546 -1.2820
 9606TIP3    H250310   2.668  -0.025  12.283 -0.6810 -0.7079 -1.7104
 9607TIP3   OH250311   1.507   0.423   4.556  0.1707 -0.3925 -0.1342
 9607TIP3    H150312   1.470   0.377   4.480  0.1699  0.0927 -0.4299
 9607TIP3    H250313   1.437   0.421   4.621 -0.3673  0.4713 -0.6727
 9608TIP3   OH250314   6.684   3.871   4.289 -0.6005  0.3661  0.0851
 9608TIP3    H150315   6.692   3.948   4.232 -2.1718  1.4590  1.2278
 9608TIP3    H250316   6.617   3.896   4.353  2.1562 -0.0872  3.4672
 9609TIP3   OH250317   6.134   5.762   2.647  0.6360  0.2993  0.0486
 9609TIP3    H150318   6.132   5.827   2.577 -4.0936 -1.6942 -2.0196
 9609TIP3    H250319   6.066   5.790   2.708 -0.8283 -2.0620 -0.3890
 9610TIP3   OH250320   0.179   1.882   2.909  0.8161  0.2288  0.4335
 9610TIP3    H150321   0.175   1.903   3.003  0.8721  1.3479  0.1950
 9610TIP3    H250322   0.090   1.894   2.878  0.6049 -1.0257  0.5081
 9611TIP3   OH250323   1.644   2.009   1.489  0.0043 -0.2112  0.2882
 9611TIP3    H150324   1.586   1.938   1.516 -0.0724  0.0185  0.7488
 9611TIP3    H250325   1.728   1.966   1.470 -1.1833 -1.0890 -3.8981
 9612TIP3   OH250326   2.674   1.982   0.984 -0.0874 -0.4215  0.3012
 9612TIP3    H150327   2.671   1.994   1.079 -2.1002 -1.5965  0.4377
 9612TIP3    H250328   2.701   1.891   0.973  1.9362  0.2007 -0.3566
 9613TIP3   OH250329   5.023   4.858   5.617 -0.0018  0.0508 -0.4606
 9613TIP3    H150330   4.933   4.889   5.630 -0.0878 -0.3101 -0.1702
 9613TIP3    H250331   5.043   4.810   5.697  0.3344 -0.1510 -0.6635
 9614TIP3   OH250332   3.783   1.201   3.896  0.3590 -0.3960 -0.1297
 9614TIP3    H150333   3.862   1.154   3.922 -0.3410 -1.7467 -0.3873
 9614TIP3    H250334   3.802   1.292   3.920  2.8600 -0.2646 -2.1311
 9615TIP3   OH250335   5.828   1.399   1.247  0.1835  0.2388  0.1047
 9615TIP3    H150336   5.742   1.358   1.251 -0.1423  0.6949 -1.6078
 9615TIP3    H250337   5.870   1.375   1.330 -1.6043  0.0725  0.9979
 9616TIP3   OH250338   2.952   4.555  11.447  0.3874  0.2166 -0.2297
 9616TIP3    H150339   2.885   4.512  11.394 -1.0872  0.3310  1.4118
 9616TIP3    H250340   3.023   4.576  11.386  0.2032 -2.5063 -1.5008
 9617TIP3   OH250341   2.150   0.189  12.759 -0.2494 -0.9523 -0.5771
 9617TIP3    H150342   2.199   0.138  12.695  1.2184 -1.2563  0.7084
 9617TIP3    H250343   2.217   0.236  12.809 -1.4110  0.2395 -0.0607
 9618TIP3   OH250344   2.601   1.512  11.945 -0.2511 -0.0169 -0.1916
 9618TIP3    H150345   2.618   1.454  11.871  0.6123 -0.0764  0.0397
 9618TIP3    H250346   2.509   1.535  11.937 -0.5974 -1.3510 -0.3403
 9619TIP3   OH250347   5.169   5.416  11.475  0.5630 -0.0949 -0.0935
 9619TIP3    H150348   5.176   5.378  11.388  1.6508  1.9835 -0.9710
 9619TIP3    H250349   5.112   5.356  11.523 -1.0707 -0.6824 -2.5882
 9620TIP3   OH250350   1.129   0.085   5.287  0.3480 -0.4392  0.5934
 9620TIP3    H150351   1.131   0.015   5.352 -0.3884  1.0697  2.3465
 9620TIP3    H250352   1.164   0.162   5.333  0.1056  0.6266 -0.9099
 9621TIP3   OH250353   3.520   1.402  17.088  0.1333 -0.3847 -0.0257
 9621TIP3    H150354   3.477   1.485  17.108 -0.2760  0.2495 -3.1581
 9621TIP3    H250355   3.474   1.338  17.142 -0.4430  1.1775  1.4427
 9622TIP3   OH250356   2.097   6.204  14.844 -0.1908 -0.3750 -0.1698
 9622TIP3    H150357   2.043   6.223  14.767 -0.3851 -0.0150  0.0494
 9622TIP3    H250358   2.048   6.243  14.917 -0.0099 -0.7135  0.1359
 9623TIP3   OH250359   1.101   2.024  14.899  0.2068  0.2235  0.3620
 9623TIP3    H150360   1.124   2.050  14.810 -0.7424 -0.2785 -0.0427
 9623TIP3    H250361   1.031   2.084  14.924  2.4282  2.3400  1.9263
 9624TIP3   OH250362   6.011   5.799  14.086 -0.1120 -0.2196 -0.2395
 9624TIP3    H150363   6.032   5.744  14.161  1.2398 -0.6980 -0.9314
 9624TIP3    H250364   5.953   5.866  14.121 -0.4298 -1.0963  0.9794
 9625TIP3   OH250365   2.158   5.746  16.230  0.0377  0.0748 -0.6734
 9625TIP3    H150366   2.210   5.674  16.193  1.2193  0.9598 -0.7786
 9625TIP3    H250367   2.221   5.816  16.244 -0.8172  0.5908  0.8075
 9626TIP3   OH250368   4.957   4.828   4.792 -0.7562 -0.1377  0.0039
 9626TIP3    H150369   4.934   4.816   4.700  0.2132  0.3784 -0.3243
 9626TIP3    H250370   4.937   4.919   4.811  0.8615  0.3128 -0.2771
 9627TIP3   OH250371   3.858   3.936  15.861  0.2050 -0.5284  0.0196
 9627TIP3    H150372   3.905   3.918  15.779  0.0291  0.1813 -0.2511
 9627TIP3    H250373   3.823   3.852  15.888 -2.1152 -0.3561 -2.1185
 9628TIP3   OH250374   6.401   3.333  11.219  0.1047  0.1465  0.0023
 9628TIP3    H150375   6.460   3.382  11.161  1.6800  0.6487  1.9042
 9628TIP3    H250376   6.450   3.254  11.242 -0.8949 -0.5283 -0.1154
 9629TIP3   OH250377   5.551   3.867   5.364 -0.3863 -0.6250  0.4146
 9629TIP3    H150378   5.465   3.842   5.330 -0.6685  0.9737 -0.1138
 9629TIP3    H250379   5.564   3.957   5.334  1.0162 -0.4682  1.3917
 9630TIP3   OH250380   4.261   3.406   5.654  0.3817 -0.2021 -0.1759
 9630TIP3    H150381   4.248   3.454   5.573 -0.5679 -0.8218 -0.3968
 9630TIP3    H250382   4.218   3.322   5.641  0.6943 -0.5307  0.7665
 9631TIP3   OH250383   1.882   0.325  15.117  0.2207  0.1644  0.3288
 9631TIP3    H150384   1.799   0.368  15.135 -0.0224  0.0049 -0.4006
 9631TIP3    H250385   1.926   0.382  15.054  0.2050 -0.2841 -0.0923
 9632TIP3   OH250386   1.332   0.932   3.161 -0.7847  0.1880  0.5186
 9632TIP3    H150387   1.368   0.846   3.140 -1.5012 -0.1681  0.7333
 9632TIP3    H250388   1.266   0.915   3.227 -0.3550  1.0035  1.1773
 9633TIP3   OH250389   5.231   0.367  16.057  0.6879 -0.1509  0.1992
 9633TIP3    H150390   5.264   0.325  16.136 -2.0964  0.5004  1.8563
 9633TIP3    H250391   5.188   0.296  16.008 -3.3099  0.2620  2.6129
 9634TIP3   OH250392   5.504   5.666   4.221  0.0501  0.1121 -0.6350
 9634TIP3    H150393   5.545   5.653   4.135  1.5016  0.0753  0.0464
 9634TIP3    H250394   5.494   5.578   4.256  2.7671  0.2402  0.7056
 9635TIP3   OH250395   3.490   4.636  13.574  0.5585 -0.2737 -0.8801
 9635TIP3    H150396   3.576   4.653  13.535  1.7635 -0.7888  1.3644
 9635TIP3    H250397   3.486   4.696  13.649  0.3163 -2.3259  0.8471
 9636TIP3   OH250398   2.913   3.860  12.565 -0.0899 -0.3097  0.4976
 9636TIP3    H150399   2.829   3.815  12.564 -0.7715  0.9340  0.7366
 9636TIP3    H250400   2.973   3.800  12.521 -1.2061 -0.9959 -0.1093
 9637TIP3   OH250401   1.375   1.658   2.980 -0.0272  0.7914 -0.1657
 9637TIP3    H150402   1.372   1.588   3.045  0.3875 -0.9351 -1.8803
 9637TIP3    H250403   1.283   1.675   2.959 -0.1566 -1.5754 -1.9678
 9638TIP3   OH250404   6.279   2.320   2.794 -0.1935  0.1590  0.1155
 9638TIP3    H150405   6.373   2.320   2.780 -0.2122 -2.5496 -0.6438
 9638TIP3    H250406   6.269   2.325   2.889  1.0041 -3.2892  0.5933
 9639TIP3   OH250407   2.829   6.481  16.117  0.3660  0.2820  0.0329
 9639TIP3    H150408   2.880   6.556  16.148  1.9956 -0.6310 -0.3134
 9639TIP3    H250409   2.763   6.520  16.058  1.6998  1.3856 -0.7966
 9640TIP3   OH250410   3.668   0.219  14.926  0.5333  0.2715  0.4310
 9640TIP3    H150411   3.604   0.174  14.871 -0.6306  1.3699  0.8318
 9640TIP3    H250412   3.688   0.299  14.878 -0.1918  1.0506  1.3837
 9641TIP3   OH250413   1.146   6.594   1.906  0.8110  0.2779  0.5391
 9641TIP3    H150414   1.095   6.659   1.953  0.2103  0.3103 -0.1373
 9641TIP3    H250415   1.223   6.580   1.961 -0.4466 -0.6173  2.1629
 9642TIP3   OH250416   0.128   5.333  16.983  0.5968 -0.2486  0.1882
 9642TIP3    H150417   0.141   5.318  16.889  0.1818 -2.1939  0.4028
 9642TIP3    H250418   0.045   5.380  16.989  0.3183 -0.6499 -0.4089
 9643TIP3   OH250419   6.811   0.091  13.503 -0.9045  0.4412 -0.1312
 9643TIP3    H150420   6.872   0.058  13.569 -0.4814 -1.5137 -1.4094
 9643TIP3    H250421   6.843   0.054  13.421 -1.2530  2.9984 -1.5117
 9644TIP3   OH250422   1.722   3.096   1.891 -0.9121  0.1001 -0.1393
 9644TIP3    H150423   1.704   3.084   1.984 -0.6853 -0.2281 -0.1364
 9644TIP3    H250424   1.812   3.129   1.888 -0.2252 -1.7064 -0.3302
 9645TIP3   OH250425   3.568   2.903  15.947 -0.0790  0.1518  0.3108
 9645TIP3    H150426   3.545   2.811  15.956 -1.9922  0.6243  0.6792
 9645TIP3    H250427   3.664   2.903  15.942 -0.0685 -1.8988 -0.5425
 9646TIP3   OH250428   4.319   3.284  13.619 -0.1046 -0.0876  0.2266
 9646TIP3    H150429   4.411   3.272  13.645 -0.5610 -1.7851  1.2401
 9646TIP3    H250430   4.274   3.310  13.699 -0.8222 -1.1866  0.2029
 9647TIP3   OH250431   3.772   6.007   0.766  0.0056  0.3389 -0.0907
 9647TIP3    H150432   3.822   5.926   0.779 -0.4862  0.4958  4.2002
 9647TIP3    H250433   3.839   6.073   0.749  0.7719 -0.3635  0.0885
 9648TIP3   OH250434   0.162   2.294  16.025  0.2809 -0.0928  0.2791
 9648TIP3    H150435   0.117   2.261  16.103  0.3372  0.5358  0.5810
 9648TIP3    H250436   0.170   2.388  16.040  2.3689 -0.2697  0.5764
 9649TIP3   OH250437   0.897   1.037   4.285 -0.9246  0.1825 -0.1583
 9649TIP3    H150438   0.851   0.993   4.214 -0.4774  1.0228 -0.9995
 9649TIP3    H250439   0.981   0.991   4.291 -0.7922  0.3771 -0.4708
 9650TIP3   OH250440   1.757   4.090  13.150  0.0809 -0.2456 -0.1213
 9650TIP3    H150441   1.745   4.129  13.236 -0.4764  0.4157 -0.4858
 9650TIP3    H250442   1.669   4.084  13.114  0.3748  0.1601 -0.9325
 9651TIP3   OH250443   3.388   5.052  15.763  0.1507  0.1188 -0.3121
 9651TIP3    H150444   3.335   5.016  15.834  0.4364 -0.4001 -0.3596
 9651TIP3    H250445   3.474   5.067  15.803  0.1701  0.2955 -0.4184
 9652TIP3   OH250446   2.141   0.406  16.863  0.5409 -0.3935 -0.1413
 9652TIP3    H150447   2.235   0.403  16.884  0.4175 -1.0831  0.3457
 9652TIP3    H250448   2.138   0.400  16.768  0.9474 -2.1414 -0.0802
 9653TIP3   OH250449   3.719   1.816  14.689  0.1798  0.0210 -0.0894
 9653TIP3    H150450   3.716   1.763  14.769  0.3531 -0.1774 -0.2125
 9653TIP3    H250451   3.627   1.823  14.662  0.1762 -0.4303 -0.2098
 9654TIP3   OH250452   3.107   1.498  13.512 -0.1644 -0.1389  0.0796
 9654TIP3    H150453   3.059   1.557  13.454 -2.3159 -3.5591 -2.0079
 9654TIP3    H250454   3.039   1.457  13.566  0.9879 -1.7105  0.4076
 9655TIP3   OH250455   2.986   5.184  16.777  0.5761  0.2724 -0.5625
 9655TIP3    H150456   2.922   5.133  16.828  1.0361  0.5389  0.2983
 9655TIP3    H250457   3.071   5.151  16.806  0.8504  0.3112 -1.2963
 9656TIP3   OH250458   6.365   2.074   1.961  0.2130 -0.0718  0.1232
 9656TIP3    H150459   6.436   2.021   1.925 -0.4066  0.1578 -1.5375
 9656TIP3    H250460   6.289   2.016   1.961  0.2495 -0.1333  1.3105
 9657TIP3   OH250461   0.903   2.496   3.316  0.0696 -0.1371 -0.1264
 9657TIP3    H150462   0.813   2.521   3.295  0.3124  1.0605  0.2049
 9657TIP3    H250463   0.912   2.408   3.279  0.0275  1.2288 -3.8023
 9658TIP3   OH250464   4.353   5.334  14.309  0.2886  0.0040  0.0242
 9658TIP3    H150465   4.410   5.293  14.374  0.3943  0.9887  0.5770
 9658TIP3    H250466   4.402   5.410  14.279  0.4941 -0.7700 -1.6681
 9659TIP3   OH250467   4.159   2.630  13.523 -0.3778 -0.4444  0.7770
 9659TIP3    H150468   4.110   2.666  13.449  1.6685  1.9179  0.4023
 9659TIP3    H250469   4.143   2.691  13.595  0.2588 -0.8607  1.2856
 9660TIP3   OH250470   5.246   3.023   3.425 -0.5205  0.4484  0.1673
 9660TIP3    H150471   5.164   3.058   3.389 -1.1592  0.3099  1.4480
 9660TIP3    H250472   5.237   3.034   3.519 -0.1645 -1.9611  0.5252
 9661TIP3   OH250473   6.367   5.637   5.203  0.1360  0.3326 -0.1652
 9661TIP3    H150474   6.423   5.563   5.226 -0.3830  0.1870  0.7000
 9661TIP3    H250475   6.426   5.702   5.166  0.6810 -0.3046 -0.4253
 9662TIP3   OH250476   3.942   1.514   5.581 -0.7158  0.1030 -0.1397
 9662TIP3    H150477   3.964   1.430   5.619 -0.0311 -0.1837 -1.1353
 9662TIP3    H250478   3.889   1.558   5.648  1.1535 -0.0181  1.4977
 9663TIP3   OH250479   0.248   5.069  15.255  0.2780  0.8030 -0.0790
 9663TIP3    H150480   0.186   5.142  15.250 -0.7488  0.0728  1.3487
 9663TIP3    H250481   0.225   5.013  15.180  0.3502  1.3808 -0.5423
 9664TIP3   OH250482   3.914   6.133   5.129  0.3568  0.3322  0.0180
 9664TIP3    H150483   3.882   6.179   5.207  1.0322 -0.1258  0.5721
 9664TIP3    H250484   3.997   6.175   5.108  1.1792 -0.8592  0.7676
 9665TIP3   OH250485   1.084   3.426   1.230  0.2664 -0.2248 -0.3577
 9665TIP3    H150486   1.054   3.438   1.139  0.6124 -2.7764 -0.8835
 9665TIP3    H250487   1.051   3.503   1.276 -1.1053  0.4743 -2.3521
 9666TIP3   OH250488   1.493   5.411  15.868 -0.4915  0.0748  0.4808
 9666TIP3    H150489   1.520   5.498  15.897  1.1241 -0.6428  1.2709
 9666TIP3    H250490   1.444   5.375  15.941  0.0777 -0.1994  0.7368
 9667TIP3   OH250491   0.996   1.592   6.038  0.4170 -0.1935 -0.5109
 9667TIP3    H150492   0.965   1.502   6.048 -1.0222  0.3752  0.5257
 9667TIP3    H250493   0.980   1.633   6.123  1.3920  0.9493 -0.8486
 9668TIP3   OH250494   4.394   6.720  17.010  0.2426  0.1751  0.7124
 9668TIP3    H150495   4.434   6.648  17.059 -0.0249 -0.1261  0.4897
 9668TIP3    H250496   4.300   6.713  17.030 -0.0740 -0.8180 -0.9476
 9669TIP3   OH250497   1.826   2.438   0.119  0.0188 -0.2365 -0.1257
 9669TIP3    H150498   1.864   2.496   0.054  1.8028  0.0921  1.1463
 9669TIP3    H250499   1.846   2.349   0.087  1.9037 -0.0771  0.4820
 9670TIP3   OH250500   3.350   3.844   5.092  0.0048  0.2655  0.2172
 9670TIP3    H150501   3.341   3.799   5.009  0.9957 -1.0314  0.7821
 9670TIP3    H250502   3.366   3.936   5.068 -1.5733  0.2722 -0.9458
 9671TIP3   OH250503   4.465   2.580  15.119 -0.2242  0.1895 -0.3696
 9671TIP3    H150504   4.524   2.573  15.044  0.0445  0.5874 -0.1945
 9671TIP3    H250505   4.519   2.556  15.194 -0.9130 -1.9017 -0.4609
 9672TIP3   OH250506   2.099   1.706  11.940 -0.1931  0.0222 -0.0355
 9672TIP3    H150507   2.094   1.623  11.893 -3.6683  0.6502 -1.0386
 9672TIP3    H250508   2.170   1.754  11.896 -0.0164 -1.3143 -1.2919
 9673TIP3   OH250509   3.158   6.794   2.809 -0.3601  0.0533  0.3555
 9673TIP3    H150510   3.142   6.724   2.745  1.3901 -0.3771  0.3316
 9673TIP3    H250511   3.123   6.759   2.891  1.4069 -1.3437  0.5672
 9674TIP3   OH250512   4.054   0.096   5.081 -0.2035 -0.0007  0.1014
 9674TIP3    H150513   4.063   0.108   4.987  0.4313  0.4654  0.2139
 9674TIP3    H250514   4.018   0.180   5.112 -0.5801 -0.2147  0.2515
 9675TIP3   OH250515   5.843   3.342  12.253 -0.3925  0.0545 -0.1362
 9675TIP3    H150516   5.778   3.327  12.321  1.0835 -1.0533  1.1197
 9675TIP3    H250517   5.925   3.311  12.292  0.6869  0.3663 -2.0504
 9676TIP3   OH250518   0.384   1.797   1.994  0.2480 -0.0540  0.2906
 9676TIP3    H150519   0.418   1.786   2.083  1.4011 -1.4989 -0.3028
 9676TIP3    H250520   0.392   1.891   1.977  0.5403  0.1515  1.4996
 9677TIP3   OH250521   3.134   3.663  10.895 -0.1040 -0.2885  0.1294
 9677TIP3    H150522   3.167   3.726  10.958 -0.5817 -1.3916  1.5302
 9677TIP3    H250523   3.198   3.665  10.823 -0.5698  2.3756 -0.3068
 9678TIP3   OH250524   1.408   1.687   2.715  0.0542 -0.4574 -0.0725
 9678TIP3    H150525   1.313   1.699   2.716 -0.6058 -4.2904 -0.2598
 9678TIP3    H250526   1.434   1.686   2.807 -0.0332  0.7648 -0.0272
 9679TIP3   OH250527   4.612   1.197  14.189 -0.3859 -0.1599 -0.3777
 9679TIP3    H150528   4.560   1.270  14.156  1.1254  0.3864 -1.6337
 9679TIP3    H250529   4.670   1.174  14.117 -0.4528 -2.2737  0.1787
 9680TIP3   OH250530   4.734   5.313   3.295  0.2645  0.0672 -0.0136
 9680TIP3    H150531   4.710   5.334   3.385  0.8540  0.3719  0.0716
 9680TIP3    H250532   4.661   5.348   3.243  0.1690  0.3442  0.3022
 9681TIP3   OH250533   6.815   2.496   0.625 -0.0181  0.1039 -0.5015
 9681TIP3    H150534   6.901   2.460   0.605  0.6959  0.5921  1.4710
 9681TIP3    H250535   6.784   2.443   0.698  0.2938  2.2724  1.3094
 9682TIP3   OH250536   1.963   1.531   3.813  0.1880 -0.1375  0.0441
 9682TIP3    H150537   2.054   1.531   3.844  0.3000  0.4572 -0.2488
 9682TIP3    H250538   1.926   1.450   3.846  0.4980  0.1386  1.1298
 9683TIP3   OH250539   2.933   1.885  14.399 -0.4743  0.2769 -0.1259
 9683TIP3    H150540   2.946   1.954  14.465  1.0811  1.0998 -1.2481
 9683TIP3    H250541   3.019   1.844  14.390 -0.8325 -0.2587 -1.1796
 9684TIP3   OH250542   3.204   6.550   0.965 -0.1460  0.4963 -0.4846
 9684TIP3    H150543   3.148   6.578   1.038  2.2156 -1.3702  2.3035
 9684TIP3    H250544   3.290   6.586   0.986  1.0654 -1.7795 -1.1868
 9685TIP3   OH250545   5.105   1.616   3.635 -0.0761 -0.4201  0.4297
 9685TIP3    H150546   5.061   1.534   3.658 -0.8627 -0.3439 -0.7182
 9685TIP3    H250547   5.181   1.619   3.693  0.6561 -2.5543 -0.3247
 9686TIP3   OH250548   4.238   0.697  15.961  0.2240 -0.1949  1.0057
 9686TIP3    H150549   4.264   0.630  15.897  1.2473  0.9467  0.1826
 9686TIP3    H250550   4.220   0.775  15.908  1.9203  1.0360  2.1359
 9687TIP3   OH250551   3.885   5.025   5.608 -0.1298  0.1879  0.0831
 9687TIP3    H150552   3.860   5.028   5.700 -2.0094 -0.9031 -0.3286
 9687TIP3    H250553   3.978   4.999   5.609 -0.2212 -0.1882  1.6579
 9688TIP3   OH250554   2.514   3.848  14.578 -0.2575 -0.6759  0.2354
 9688TIP3    H150555   2.490   3.758  14.597  0.2724 -0.4005  2.5767
 9688TIP3    H250556   2.437   3.886  14.535 -0.6312 -2.0977 -0.4029
 9689TIP3   OH250557   5.492   6.586   6.693  0.1454  0.0361 -0.3256
 9689TIP3    H150558   5.458   6.505   6.730 -3.0750  0.2728 -2.3178
 9689TIP3    H250559   5.543   6.558   6.617  0.0693 -0.2001 -0.2901
 9690TIP3   OH250560   1.822   0.093  13.958 -0.3324  0.0919  0.5710
 9690TIP3    H150561   1.842   0.017  14.011 -4.0623 -1.4864  0.0403
 9690TIP3    H250562   1.827   0.061  13.868  0.3614  1.1616  0.2141
 9691TIP3   OH250563   2.947   4.506  15.600 -0.0136  0.2757  0.1446
 9691TIP3    H150564   2.914   4.463  15.521  1.8608 -0.5069 -0.2606
 9691TIP3    H250565   3.010   4.570  15.568  0.4941  0.2056  0.9693
 9692TIP3   OH250566   3.532   1.105   2.966  0.1880 -0.9503  0.1267
 9692TIP3    H150567   3.574   1.062   3.040 -0.0827 -0.1084  0.7898
 9692TIP3    H250568   3.438   1.092   2.980  0.1033 -0.2345  0.3057
 9693TIP3   OH250569   6.711   5.634   2.375  0.0986  0.0040 -0.2482
 9693TIP3    H150570   6.644   5.635   2.306  1.0209  0.4558 -1.1662
 9693TIP3    H250571   6.669   5.676   2.449 -0.2598  1.3986 -1.1983
 9694TIP3   OH250572   1.297   0.121   3.272  0.0938  0.4471  0.0673
 9694TIP3    H150573   1.347   0.177   3.213  1.2062  0.1683  0.7097
 9694TIP3    H250574   1.356   0.105   3.346 -0.9605  0.1264  0.8735
 9695TIP3   OH250575   2.572   6.066  12.127 -0.7300 -0.1894  0.1400
 9695TIP3    H150576   2.528   6.085  12.043  0.8948  2.0776 -0.2837
 9695TIP3    H250577   2.502   6.029  12.182 -2.1814 -0.4280 -1.7404
 9696TIP3   OH250578   0.518   1.484   3.671 -0.2779 -0.2607  0.0986
 9696TIP3    H150579   0.469   1.554   3.716  0.3850 -0.8496  1.8380
 9696TIP3    H250580   0.580   1.452   3.737  0.9835 -0.9888 -1.3631
 9697TIP3   OH250581   5.523   1.527  15.549 -0.5420 -0.0992  0.1172
 9697TIP3    H150582   5.484   1.614  15.554  0.6962  0.6156 -1.6728
 9697TIP3    H250583   5.487   1.481  15.625 -1.4298  1.8677  0.9821
 9698TIP3   OH250584   4.906   6.070  11.630 -0.1957  0.0248 -0.2107
 9698TIP3    H150585   4.983   6.120  11.654  1.2748 -2.5765  0.8829
 9698TIP3    H250586   4.834   6.133  11.632  1.3495  1.8580  2.0579
 9699TIP3   OH250587   6.510   6.200   4.928  0.0732 -0.5324  0.3909
 9699TIP3    H150588   6.593   6.244   4.947 -1.3507  1.2100  3.0716
 9699TIP3    H250589   6.459   6.264   4.880 -0.4702 -0.8582  0.5282
 9700TIP3   OH250590   3.670   1.823  17.058 -0.0229 -0.1331  0.1221
 9700TIP3    H150591   3.641   1.903  17.101  1.6100  1.5311 -1.6656
 9700TIP3    H250592   3.762   1.813  17.084  0.4365 -0.1440 -1.3988
 9701TIP3   OH250593   1.961   4.156   5.763  0.8797  0.2731 -0.3322
 9701TIP3    H150594   1.873   4.129   5.791  1.9256 -1.8474  1.1836
 9701TIP3    H250595   1.994   4.082   5.712  1.5427  1.3701 -1.5739
 9702TIP3   OH250596   5.501   5.601   1.954  0.2162 -0.3190 -0.3536
 9702TIP3    H150597   5.485   5.521   2.004 -1.0037 -0.9172 -1.6431
 9702TIP3    H250598   5.567   5.648   2.005  0.5995 -1.9076  0.6858
 9703TIP3   OH250599   1.734   2.534   6.122 -0.1883 -0.0896 -0.1322
 9703TIP3    H150600   1.761   2.595   6.191 -1.0265 -0.7452  0.7985
 9703TIP3    H250601   1.715   2.590   6.047  1.3814  0.5857 -0.0794
 9704TIP3   OH250602   2.748   0.997   5.014 -0.1658  0.9048 -0.4175
 9704TIP3    H150603   2.721   0.950   4.935  0.6482  1.4459 -1.0395
 9704TIP3    H250604   2.817   0.942   5.052 -1.3684  0.0451  0.5952
 9705TIP3   OH250605   0.945   3.648  11.580  0.3544  0.4498  0.0240
 9705TIP3    H150606   0.911   3.719  11.635  1.2757  0.8763  0.0527
 9705TIP3    H250607   0.900   3.569  11.613 -1.6946  1.1640 -0.8756
 9706TIP3   OH250608   4.415   1.391   2.370  0.2339 -0.0242  0.8828
 9706TIP3    H150609   4.380   1.371   2.283 -0.8094  1.6870  0.8523
 9706TIP3    H250610   4.477   1.462   2.354  0.4072 -0.0411  1.4786
 9707TIP3   OH250611   0.442   0.891  15.255 -0.7429  0.2196  0.2971
 9707TIP3    H150612   0.347   0.896  15.265 -0.9589  0.9863 -1.6783
 9707TIP3    H250613   0.466   0.975  15.215  0.7558 -0.0284  0.6124
 9708TIP3   OH250614   3.443   1.870  16.234 -0.1562  0.0550 -0.0395
 9708TIP3    H150615   3.473   1.881  16.144  1.4386  0.1531  0.4716
 9708TIP3    H250616   3.468   1.951  16.278  1.6833 -1.0571  1.1304
 9709TIP3   OH250617   1.726   1.838   2.019 -0.5139 -0.4320 -0.0212
 9709TIP3    H150618   1.756   1.898   1.951  0.7951  1.1070  1.8060
 9709TIP3    H250619   1.760   1.753   1.992  1.4463  0.4367 -0.4779
 9710TIP3   OH250620   6.600   0.897  14.689  0.2759  0.0962 -0.1338
 9710TIP3    H150621   6.624   0.825  14.748 -0.4103  1.5943  2.1246
 9710TIP3    H250622   6.683   0.932  14.658  0.6190 -1.4525 -1.0241
 9711TIP3   OH250623   1.346   4.075   3.669  0.3172  0.0734  0.0725
 9711TIP3    H150624   1.261   4.075   3.713  0.3496 -2.3966  0.2828
 9711TIP3    H250625   1.404   4.123   3.728 -0.4386 -0.1506  1.0185
 9712TIP3   OH250626   2.976   6.529   2.869  0.0284 -0.4732 -0.1617
 9712TIP3    H150627   2.994   6.549   2.778 -1.0162 -2.0428 -0.7461
 9712TIP3    H250628   2.883   6.507   2.871 -0.3795  1.1137  1.5918
 9713TIP3   OH250629   1.797   3.996  11.195  0.3062  0.2170  1.0627
 9713TIP3    H150630   1.878   3.951  11.222  0.4185 -0.7193 -0.7099
 9713TIP3    H250631   1.807   4.009  11.101  0.4411  4.4258  1.4926
 9714TIP3   OH250632   0.449   5.965  13.257 -0.5759 -0.1267  0.3259
 9714TIP3    H150633   0.414   6.012  13.333  0.7727 -1.5048  1.8817
 9714TIP3    H250634   0.525   5.918  13.291 -0.2878 -1.2944 -1.7695
 9715TIP3   OH250635   6.101   0.265  11.929 -0.3526 -0.4872 -0.1428
 9715TIP3    H150636   6.083   0.197  11.994 -0.2075  0.7468  1.2688
 9715TIP3    H250637   6.158   0.327  11.975  0.5020 -0.0120 -1.7663
 9716TIP3   OH250638   6.476   3.100  11.933 -0.5710  0.0313  0.4812
 9716TIP3    H150639   6.549   3.137  11.884  0.0236 -0.2866  1.1050
 9716TIP3    H250640   6.494   3.123  12.024 -1.3945  0.1786  0.6144
 9717TIP3   OH250641   0.025   2.644   6.021  0.3873 -0.0210  0.3615
 9717TIP3    H150642  -0.031   2.667   6.095 -0.5060 -1.0890  0.0432
 9717TIP3    H250643   0.113   2.642   6.058 -0.0139 -0.2749  1.3428
 9718TIP3   OH250644   2.051   1.335   6.622  0.3347  0.0912  0.1707
 9718TIP3    H150645   2.141   1.303   6.625  0.8981  1.6726  1.7296
 9718TIP3    H250646   2.050   1.398   6.550  0.3844 -0.1623 -0.0532
 9719TIP3   OH250647   5.317   3.478   3.803  0.3736 -0.5509  0.1822
 9719TIP3    H150648   5.309   3.452   3.895 -0.1604 -0.9752  0.0209
 9719TIP3    H250649   5.266   3.413   3.756  0.1315  0.0311 -0.3590
 9720TIP3   OH250650   0.936   6.799  13.598  0.6459  0.8538 -0.3259
 9720TIP3    H150651   0.947   6.716  13.646  1.0391  0.9587 -0.2365
 9720TIP3    H250652   0.979   6.864  13.653 -1.6492  1.5291  0.7718
 9721TIP3   OH250653   2.461   4.785  16.486  0.4189  0.2517 -0.6342
 9721TIP3    H150654   2.553   4.760  16.475  0.0562 -1.9073  0.7277
 9721TIP3    H250655   2.439   4.832  16.406  2.7348  0.9543 -0.9228
 9722TIP3   OH250656   5.192   5.047   5.371 -0.0285  0.1188 -0.2153
 9722TIP3    H150657   5.211   4.968   5.421 -0.5568  0.5699  0.7101
 9722TIP3    H250658   5.278   5.086   5.354  0.0998  0.6737  1.5370
 9723TIP3   OH250659   3.510   6.000  15.574 -0.3741 -0.7741 -0.2777
 9723TIP3    H150660   3.481   6.068  15.513  2.4452  1.9319  1.0698
 9723TIP3    H250661   3.436   5.987  15.633 -0.7446  1.9943  0.0318
 9724TIP3   OH250662   5.112   3.613   4.505 -0.1023 -0.4818 -0.1545
 9724TIP3    H150663   5.183   3.673   4.528  1.2820 -1.0294 -2.5496
 9724TIP3    H250664   5.060   3.661   4.441 -0.5106 -0.9052 -0.1479
 9725TIP3   OH250665   0.815   3.459  11.041  0.4055 -0.5542  0.4536
 9725TIP3    H150666   0.762   3.536  11.060  0.4428 -1.0687  2.9757
 9725TIP3    H250667   0.898   3.493  11.009 -0.7115  0.3021 -1.7576
 9726TIP3   OH250668   0.553   2.447   0.937 -0.3613  0.9058 -0.3526
 9726TIP3    H150669   0.485   2.510   0.962 -0.4369  0.3297  0.9371
 9726TIP3    H250670   0.603   2.432   1.016  0.1145 -0.1042 -0.8249
 9727TIP3   OH250671   5.708   4.553  16.196  0.0359 -0.4495  0.0894
 9727TIP3    H150672   5.703   4.474  16.143  1.6427 -1.9758  2.0403
 9727TIP3    H250673   5.668   4.528  16.280 -2.0957  1.7541 -0.1569
 9728TIP3   OH250674   4.506   4.905   3.476 -0.0942  0.3848  0.0053
 9728TIP3    H150675   4.543   4.918   3.389  1.0279 -0.2775  0.3721
 9728TIP3    H250676   4.413   4.886   3.459 -0.1229  1.2984 -0.9678
 9729TIP3   OH250677   4.496   4.933   4.300 -0.3563  0.3294 -0.2465
 9729TIP3    H150678   4.520   4.900   4.387 -1.8518 -0.4401 -0.0949
 9729TIP3    H250679   4.561   4.896   4.241  1.3684  1.7660  0.6484
 9730TIP3   OH250680   6.552   3.971  12.153 -0.0916  0.8857  0.1841
 9730TIP3    H150681   6.560   3.999  12.244  0.5767 -0.9589  0.7375
 9730TIP3    H250682   6.642   3.950  12.126 -0.7060 -3.7529  0.9200
 9731TIP3   OH250683   3.574   4.435   4.078  0.3505  0.0266  0.0814
 9731TIP3    H150684   3.544   4.345   4.089  0.5165  0.1110  1.3570
 9731TIP3    H250685   3.669   4.428   4.063  0.4897  0.0278  0.9495
 9732TIP3   OH250686   0.160   5.863  15.314 -0.5271  0.3244 -0.0231
 9732TIP3    H150687   0.245   5.860  15.357  0.4992  3.6493 -1.5026
 9732TIP3    H250688   0.179   5.858  15.221 -2.2423 -1.3896 -0.3513
 9733TIP3   OH250689   3.922   0.417  14.829 -0.0196 -0.6727  0.0380
 9733TIP3    H150690   3.837   0.451  14.800  0.3260  0.1664 -0.0327
 9733TIP3    H250691   3.986   0.471  14.783  0.5482 -0.6230  0.8706
 9734TIP3   OH250692   6.479   0.199   0.266  0.0852  0.2288  0.1602
 9734TIP3    H150693   6.503   0.159   0.182  1.2269  0.5782  0.3003
 9734TIP3    H250694   6.453   0.288   0.243 -0.0186  0.1910  0.1303
 9735TIP3   OH250695   4.691   6.805  12.912  0.3626  0.4140 -0.2533
 9735TIP3    H150696   4.673   6.836  12.823 -0.4048  1.7972  0.3472
 9735TIP3    H250697   4.785   6.791  12.914  0.3696  0.1696 -1.3260
 9736TIP3   OH250698   2.202   6.205   4.150 -0.0502 -0.3205 -0.0832
 9736TIP3    H150699   2.284   6.166   4.119 -0.5310 -0.8807 -0.6896
 9736TIP3    H250700   2.158   6.233   4.070 -2.2633 -3.6285 -0.1957
 9737TIP3   OH250701   0.220   1.902   3.169 -0.2982  0.6860 -0.8141
 9737TIP3    H150702   0.178   1.897   3.254  1.6227 -0.0281  0.1680
 9737TIP3    H250703   0.306   1.939   3.187  0.2905  0.1696 -2.3756
 9738TIP3   OH250704   5.613   3.405   2.019 -0.1722 -0.6809  0.6737
 9738TIP3    H150705   5.703   3.416   1.988 -1.4714  3.4041 -2.5900
 9738TIP3    H250706   5.575   3.340   1.960 -0.4881  1.1370 -1.2410
 9739TIP3   OH250707   5.196   3.600  11.630  0.3011  0.1823 -0.1467
 9739TIP3    H150708   5.215   3.693  11.625 -0.5967  0.4148  0.5802
 9739TIP3    H250709   5.124   3.586  11.569 -2.1762  0.7267  2.4002
 9740TIP3   OH250710   6.556   1.841   3.852 -0.0388 -0.0559 -0.0630
 9740TIP3    H150711   6.463   1.840   3.874 -0.1782  1.0777 -0.4942
 9740TIP3    H250712   6.586   1.752   3.866 -1.1686 -0.4044  0.1934
 9741TIP3   OH250713   2.117   1.731  10.962 -0.0896  0.1294 -0.0027
 9741TIP3    H150714   2.119   1.774  10.876 -3.1548  0.5847  0.0499
 9741TIP3    H250715   2.150   1.642  10.945  0.7267  0.6515 -1.3224
 9742TIP3   OH250716   2.450   3.898  13.310  0.0991  0.2179 -0.5864
 9742TIP3    H150717   2.362   3.934  13.309 -1.1477 -2.4522  1.5264
 9742TIP3    H250718   2.447   3.824  13.249  0.9047  0.1389 -0.5397
 9743TIP3   OH250719   2.325   4.302  17.056  0.3950  0.2499  0.1179
 9743TIP3    H150720   2.258   4.354  17.101 -0.2950 -1.5222  1.2212
 9743TIP3    H250721   2.400   4.362  17.047 -0.7446  1.7597  0.3305
 9744TIP3   OH250722   0.797   1.453  15.067 -0.2181 -0.3472 -0.0709
 9744TIP3    H150723   0.739   1.516  15.108  0.3058  0.5565 -0.6772
 9744TIP3    H250724   0.884   1.493  15.072  0.1517 -1.0952 -0.3091
 9745TIP3   OH250725   3.506   0.693  14.946 -0.4267 -0.2900 -0.3328
 9745TIP3    H150726   3.487   0.787  14.942  0.0084 -0.0345  2.3264
 9745TIP3    H250727   3.447   0.659  15.012  2.2509 -1.0558  1.8299
 9746TIP3   OH250728   5.008   6.328   1.613 -0.4577 -0.7939  0.1047
 9746TIP3    H150729   4.957   6.318   1.533 -1.4791 -0.9909  0.7622
 9746TIP3    H250730   5.037   6.419   1.613 -1.4319 -0.4815  0.0821
 9747TIP3   OH250731   1.332   2.515   1.840  0.3862 -0.1770 -0.0402
 9747TIP3    H150732   1.380   2.448   1.889  2.3886  0.6609 -0.7478
 9747TIP3    H250733   1.371   2.513   1.753 -0.6246  0.8345 -0.5442
 9748TIP3   OH250734   5.786   0.678  17.286  0.3274  0.1290  0.1726
 9748TIP3    H150735   5.709   0.637  17.326  1.4315  0.5975  3.0694
 9748TIP3    H250736   5.835   0.605  17.248 -0.4974 -0.4636  0.2255
 9749TIP3   OH250737   3.157   5.943  14.117  0.1076  0.0581 -0.0087
 9749TIP3    H150738   3.095   6.015  14.109  1.0005  0.7566 -0.9649
 9749TIP3    H250739   3.242   5.985  14.129  0.4085 -0.8813  1.3127
 9750TIP3   OH250740   4.270   5.548  13.885 -0.1010 -0.4405  0.3249
 9750TIP3    H150741   4.314   5.466  13.863 -1.8020 -1.0141 -1.1817
 9750TIP3    H250742   4.192   5.549  13.830 -1.3930  1.0600  2.0513
 9751TIP3   OH250743   5.490   2.467  14.009 -0.4189  0.4025  0.4674
 9751TIP3    H150744   5.474   2.561  14.016 -1.0242  0.1754  2.6759
 9751TIP3    H250745   5.449   2.429  14.086  0.9706 -1.5369  0.3252
 9752TIP3   OH250746   2.996   3.361   2.559 -0.1097 -0.3817  0.3592
 9752TIP3    H150747   3.026   3.277   2.525 -0.4292 -0.5531  0.4980
 9752TIP3    H250748   3.076   3.414   2.565  0.1571 -0.8056  0.6463
 9753TIP3   OH250749   4.417   3.092  16.680  0.5000  0.4179  0.4054
 9753TIP3    H150750   4.379   3.018  16.727  0.7010  0.2177  0.2526
 9753TIP3    H250751   4.382   3.084  16.591 -1.5533  1.9668  1.0004
 9754TIP3   OH250752   4.870   4.842  13.359  1.0383  0.6724 -0.1332
 9754TIP3    H150753   4.959   4.833  13.392  1.1732  0.0067 -0.6682
 9754TIP3    H250754   4.816   4.853  13.438  1.2166 -1.9203  0.4479
 9755TIP3   OH250755   5.639   0.377  15.832  0.0144 -0.1137 -0.2835
 9755TIP3    H150756   5.576   0.432  15.784 -1.4919 -2.0086 -0.5809
 9755TIP3    H250757   5.657   0.426  15.912 -1.7392  0.5738 -0.2569
 9756TIP3   OH250758   1.114   2.428  16.337  0.3790 -0.2106  0.1643
 9756TIP3    H150759   1.107   2.334  16.351  0.1288  0.0411  2.0114
 9756TIP3    H250760   1.202   2.451  16.367  0.6605  0.0840 -0.8321
 9757TIP3   OH250761   5.188   0.963   4.986 -0.6331 -0.3129  0.0595
 9757TIP3    H150762   5.180   0.892   5.050  0.7368 -0.6860 -0.1448
 9757TIP3    H250763   5.102   0.969   4.945 -0.6720 -2.1386 -0.2067
 9758TIP3   OH250764   2.384   5.379  14.659 -0.1225 -0.1748 -0.2449
 9758TIP3    H150765   2.426   5.322  14.595  2.0496  2.5332 -1.4534
 9758TIP3    H250766   2.376   5.463  14.615 -2.1653  0.8304  1.8064
 9759TIP3   OH250767   6.319   1.099  15.258 -0.4691  0.2412  0.4457
 9759TIP3    H150768   6.339   1.031  15.322  0.0897  0.5148  0.5731
 9759TIP3    H250769   6.236   1.073  15.219  0.0297 -0.8302  0.0767
 9760TIP3   OH250770   5.688   1.106   6.028  0.0176 -0.5330 -0.0297
 9760TIP3    H150771   5.704   1.047   5.954  0.6961  0.2371 -0.5069
 9760TIP3    H250772   5.709   1.054   6.105  1.1303 -0.7553 -0.4694
 9761TIP3   OH250773   3.665   4.608   2.170 -0.3629 -0.1363 -0.6613
 9761TIP3    H150774   3.570   4.604   2.158 -0.2873 -0.2878 -1.2612
 9761TIP3    H250775   3.692   4.681   2.115 -0.2735  0.7529  0.5217
 9762TIP3   OH250776   1.052   1.310   0.173  0.3101  0.3726  0.2098
 9762TIP3    H150777   1.100   1.341   0.250  0.5348 -0.7975  0.5707
 9762TIP3    H250778   0.983   1.255   0.210  0.1570  0.1382 -0.4156
 9763TIP3   OH250779   0.656   3.614  16.331  0.0348 -0.1136 -0.3697
 9763TIP3    H150780   0.669   3.668  16.409  0.5315  2.9185 -2.3802
 9763TIP3    H250781   0.741   3.571  16.317  0.2360  0.0855  0.2208
 9764TIP3   OH250782   2.472   5.407   2.697  0.5985  0.2115 -0.4729
 9764TIP3    H150783   2.425   5.470   2.642 -0.4919 -1.4060 -1.4538
 9764TIP3    H250784   2.535   5.366   2.638 -0.9501 -1.9304 -0.7576
 9765TIP3   OH250785   0.717   3.420   5.545  0.0239  0.5392 -0.2757
 9765TIP3    H150786   0.771   3.460   5.613 -0.0014  0.6097 -0.2982
 9765TIP3    H250787   0.754   3.332   5.534 -2.4582 -1.1037  2.7919
 9766TIP3   OH250788   4.719   2.324   4.808  0.0367 -0.0248 -0.1561
 9766TIP3    H150789   4.675   2.405   4.833 -2.1250 -1.1680  0.0069
 9766TIP3    H250790   4.764   2.295   4.887  1.2242  1.2028 -0.3431
 9767TIP3   OH250791   2.040   0.656   3.697 -0.4663  0.1361  0.6162
 9767TIP3    H150792   1.980   0.582   3.685 -0.4944  0.4007 -1.1916
 9767TIP3    H250793   2.124   0.615   3.718 -0.4302 -0.4506 -0.5758
 9768TIP3   OH250794   0.705   2.227   1.790  0.2560  0.0059 -0.5967
 9768TIP3    H150795   0.714   2.151   1.733  1.4921  1.3268 -2.3039
 9768TIP3    H250796   0.794   2.259   1.801  0.0313 -0.0695  2.0069
 9769TIP3   OH250797   1.324   5.804  14.912  0.5538 -0.2624  0.3930
 9769TIP3    H150798   1.312   5.711  14.930 -0.2853 -0.4831 -1.1068
 9769TIP3    H250799   1.241   5.844  14.935  0.4097 -0.1330 -0.3194
 9770TIP3   OH250800   0.860   0.823  11.773  0.1165  0.0048  0.7002
 9770TIP3    H150801   0.780   0.782  11.742 -0.2937  1.1663  0.1470
 9770TIP3    H250802   0.931   0.769  11.739 -0.4223 -1.7642  2.2522
 9771TIP3   OH250803   6.805   5.325   3.629  0.2859  0.3014 -0.0204
 9771TIP3    H150804   6.761   5.408   3.611  1.3169  1.1282  1.1649
 9771TIP3    H250805   6.898   5.343   3.614  0.4728 -0.8012 -0.2933
 9772TIP3   OH250806   5.328   4.980  11.637  0.1141  0.0221 -0.2816
 9772TIP3    H150807   5.252   4.965  11.581 -0.4942 -0.1412  0.5664
 9772TIP3    H250808   5.300   4.952  11.724  1.1922 -0.1639  0.0254
 9773TIP3   OH250809   1.531   3.219   3.546 -0.2802 -0.5180  0.4296
 9773TIP3    H150810   1.601   3.284   3.550  0.9311 -1.6646 -1.1108
 9773TIP3    H250811   1.451   3.269   3.565  0.4629  1.6462 -1.6714
 9774TIP3   OH250812   4.211   0.417   5.260 -0.1452 -0.4781 -0.0458
 9774TIP3    H150813   4.140   0.380   5.208  1.1415 -4.5431  0.7587
 9774TIP3    H250814   4.262   0.469   5.198 -0.8969 -1.8243 -1.8735
 9775TIP3   OH250815   6.496   2.211   0.969 -0.1057 -0.2033  0.0492
 9775TIP3    H150816   6.501   2.126   1.012 -0.0912 -0.4173 -0.3802
 9775TIP3    H250817   6.412   2.248   1.000  0.1041 -0.1696  0.5966
 9776TIP3   OH250818   0.808   6.061   0.733  0.4813  0.1590 -0.1743
 9776TIP3    H150819   0.871   6.013   0.786 -0.7009 -0.5530  0.6452
 9776TIP3    H250820   0.856   6.087   0.655  1.1172 -2.6018 -0.7804
 9777TIP3   OH250821   6.094   6.422  14.107  0.5233  0.0440 -0.1607
 9777TIP3    H150822   6.005   6.388  14.099  0.7130 -0.7761  0.9454
 9777TIP3    H250823   6.104   6.443  14.200  1.7832 -0.7997 -0.0654
 9778TIP3   OH250824   4.637   1.100   0.069 -0.4641  0.7746 -0.6055
 9778TIP3    H150825   4.722   1.136   0.092 -0.3400  0.5087 -0.6452
 9778TIP3    H250826   4.580   1.176   0.060 -0.5246  0.8840  0.5896
 9779TIP3   OH250827   2.118   6.492   1.388 -0.1588 -0.5506 -0.0675
 9779TIP3    H150828   2.163   6.478   1.305  1.2501 -1.3380  0.7820
 9779TIP3    H250829   2.111   6.404   1.426  3.1198  0.1048  2.5306
 9780TIP3   OH250830   3.384   2.107   4.531 -0.2175  0.1942  0.2497
 9780TIP3    H150831   3.317   2.039   4.534 -0.9630  0.8122 -1.2976
 9780TIP3    H250832   3.347   2.175   4.475  0.5734  1.8192  1.6305
 9781TIP3   OH250833   2.334   1.609  16.031  0.0399  0.3309 -0.0755
 9781TIP3    H150834   2.250   1.634  15.993 -0.2922 -0.1224  0.3469
 9781TIP3    H250835   2.311   1.563  16.112  0.7224  1.1793  0.6232
 9782TIP3   OH250836   4.627   6.065   1.954 -0.0771  0.0417 -0.8470
 9782TIP3    H150837   4.662   5.994   2.008 -0.7248 -1.9554 -2.8464
 9782TIP3    H250838   4.705   6.111   1.921  0.5386 -1.4591 -1.6040
 9783TIP3   OH250839   4.646   5.141   1.155 -0.5745 -0.4950  0.1385
 9783TIP3    H150840   4.557   5.143   1.120 -0.3711 -2.2578 -0.6147
 9783TIP3    H250841   4.653   5.055   1.197  0.2109  0.3335  1.7800
 9784TIP3   OH250842   0.238   4.664  14.959 -0.4875  0.5714  0.0095
 9784TIP3    H150843   0.181   4.600  14.917  0.7152  0.7530 -2.0762
 9784TIP3    H250844   0.289   4.614  15.022 -0.5545 -0.2546 -0.5817
 9785TIP3   OH250845   4.153   4.027  15.014  0.0995 -0.2356 -0.5749
 9785TIP3    H150846   4.206   4.064  14.944  0.4629  0.9382  0.2782
 9785TIP3    H250847   4.092   3.967  14.970  0.5453  0.2159 -1.8369
 9786TIP3   OH250848   3.790   2.712   5.980  0.1320  0.5002  0.1658
 9786TIP3    H150849   3.695   2.705   5.965  0.0931 -0.1128  0.6238
 9786TIP3    H250850   3.808   2.805   5.976 -0.4561  0.6100 -0.1472
 9787TIP3   OH250851   1.751   0.556   3.066 -0.3468 -0.8841  0.6019
 9787TIP3    H150852   1.738   0.615   3.140 -0.1213 -0.3725  0.2404
 9787TIP3    H250853   1.694   0.591   2.997 -0.3772 -1.2180  0.4535
 9788TIP3   OH250854   6.704   4.534   3.929  0.0128 -0.4848  0.2001
 9788TIP3    H150855   6.794   4.565   3.918  0.7791 -3.1906 -2.7057
 9788TIP3    H250856   6.712   4.458   3.987 -0.5562 -0.1408  0.7314
 9789TIP3   OH250857   4.284   6.130  15.187  0.4562  0.0380 -0.0831
 9789TIP3    H150858   4.327   6.122  15.102 -1.0924 -0.2763 -0.8838
 9789TIP3    H250859   4.193   6.152  15.165  0.3517  1.4325  1.5457
 9790TIP3   OH250860   2.167   5.160  13.443 -0.1093 -0.4796 -0.2520
 9790TIP3    H150861   2.086   5.139  13.397 -0.0340  1.1900 -1.2323
 9790TIP3    H250862   2.236   5.146  13.377  0.2361 -0.2304  0.0529
 9791TIP3   OH250863   3.348   0.357   0.801  0.1136  0.2905  0.3838
 9791TIP3    H150864   3.320   0.297   0.732  1.8767  0.3341 -0.4265
 9791TIP3    H250865   3.444   0.355   0.797  0.2929 -0.0221  3.1348
 9792TIP3   OH250866   3.341   3.278  11.590  0.8743 -0.1193 -0.6988
 9792TIP3    H150867   3.387   3.353  11.628 -0.7207  0.4160  0.2971
 9792TIP3    H250868   3.317   3.306  11.502 -0.5544  0.9964 -0.0174
 9793TIP3   OH250869   3.491   5.515   2.656  0.3799  0.5448 -0.4889
 9793TIP3    H150870   3.555   5.499   2.725 -1.4471 -1.2288  0.8976
 9793TIP3    H250871   3.492   5.435   2.604 -0.0183  0.8988 -1.0425
 9794TIP3   OH250872   2.172   2.259   5.519  1.0288 -0.0750  0.2555
 9794TIP3    H150873   2.154   2.342   5.474  2.8884  0.0690 -0.3046
 9794TIP3    H250874   2.234   2.282   5.588  2.8689 -1.1914 -0.9336
 9795TIP3   OH250875   0.595   2.146   6.067 -0.4936  0.2666 -0.4845
 9795TIP3    H150876   0.519   2.107   6.111 -1.1812  2.5043  0.4906
 9795TIP3    H250877   0.600   2.101   5.983 -1.7031 -1.2778  0.2198
 9796TIP3   OH250878   3.099   1.057  16.958 -0.3565  0.2646  0.2376
 9796TIP3    H150879   3.182   1.100  16.937 -0.9762  1.8475  0.8102
 9796TIP3    H250880   3.085   0.995  16.887  0.8262  0.6999 -0.4011
 9797TIP3   OH250881   1.746   4.695   2.677  0.2885 -0.0758  0.9537
 9797TIP3    H150882   1.733   4.600   2.678  0.2562 -0.1217 -0.7923
 9797TIP3    H250883   1.824   4.708   2.623 -1.4895  1.0130 -1.5549
 9798TIP3   OH250884   0.978   2.527   6.766 -0.0289 -0.4428  0.3892
 9798TIP3    H150885   0.894   2.525   6.813  0.0939  0.7001  0.6761
 9798TIP3    H250886   1.031   2.460   6.809 -0.7944 -1.2241  0.1664
 9799TIP3   OH250887   1.643   2.477  11.946  0.1156  0.1751  0.7399
 9799TIP3    H150888   1.629   2.390  11.982  0.7778 -0.0416  0.4870
 9799TIP3    H250889   1.738   2.483  11.933  0.0192  0.7206  0.2284
 9800TIP3   OH250890   5.329   1.421  14.320  0.9757 -0.3784  0.3479
 9800TIP3    H150891   5.263   1.352  14.323  1.2541 -0.6518  0.2138
 9800TIP3    H250892   5.295   1.489  14.378  1.3099 -1.1761  1.5091
 9801TIP3   OH250893   4.194   2.596   2.371 -0.7403 -0.6683  0.6934
 9801TIP3    H150894   4.276   2.601   2.322 -1.2959 -2.6468 -0.5529
 9801TIP3    H250895   4.154   2.682   2.359  0.6789 -0.0040  0.4934
 9802TIP3   OH250896   4.070   2.395  11.208 -0.2313  0.4177  0.4768
 9802TIP3    H150897   4.088   2.461  11.275 -0.7558 -0.3824  1.4308
 9802TIP3    H250898   3.975   2.381  11.214 -0.6955  1.9014 -1.9373
 9803TIP3   OH250899   1.129   5.257  14.674 -0.0329 -0.1654  0.3383
 9803TIP3    H150900   1.183   5.336  14.672 -0.2012 -0.0391  0.6642
 9803TIP3    H250901   1.094   5.250  14.585  1.9378 -1.2685 -0.4143
 9804TIP3   OH250902   1.112   3.973  13.401 -0.0675  0.4766  0.3854
 9804TIP3    H150903   1.099   4.050  13.346 -2.0701 -0.9654 -1.3266
 9804TIP3    H250904   1.031   3.965  13.451  0.7491  0.3307  1.7342
 9805TIP3   OH250905   6.675   0.562  13.793  0.8331 -0.0874 -0.8391
 9805TIP3    H150906   6.603   0.591  13.737  1.4070 -0.7827 -1.9914
 9805TIP3    H250907   6.697   0.638  13.846  0.5825  0.7629 -1.9107
 9806TIP3   OH250908   5.423   3.704   3.882 -0.9730  0.0641  0.1759
 9806TIP3    H150909   5.391   3.703   3.973  0.8249 -1.2214  0.8540
 9806TIP3    H250910   5.415   3.614   3.853  0.2207  0.0897 -0.2760
 9807TIP3   OH250911   1.261   3.301  13.219  0.5583 -0.3183 -0.0786
 9807TIP3    H150912   1.298   3.259  13.142  0.8267  0.4821 -0.3912
 9807TIP3    H250913   1.337   3.331  13.269  0.3613  0.5654 -0.2957
 9808TIP3   OH250914   6.383   0.145   2.093 -0.0873 -0.0732 -0.0799
 9808TIP3    H150915   6.377   0.235   2.125  0.3085  0.4135 -1.3256
 9808TIP3    H250916   6.292   0.113   2.096  0.0819 -0.4811  2.6171
 9809TIP3   OH250917   5.887   2.652   6.528  0.0990  0.0109  0.1948
 9809TIP3    H150918   5.797   2.637   6.498  0.2956  0.3546 -0.6129
 9809TIP3    H250919   5.915   2.732   6.482 -0.3016  1.8936  2.9608
 9810TIP3   OH250920   6.715   5.573   0.753  0.2876 -0.8543 -0.3187
 9810TIP3    H150921   6.637   5.520   0.735  0.1546 -0.5417 -0.6819
 9810TIP3    H250922   6.714   5.640   0.685  1.1432 -1.1345 -0.6223
 9811TIP3   OH250923   2.260   0.512  11.428  0.3475  0.3322 -0.3437
 9811TIP3    H150924   2.310   0.593  11.412  0.9747 -0.2262 -1.3040
 9811TIP3    H250925   2.322   0.453  11.470  0.1274  0.0594 -0.4005
 9812TIP3   OH250926   1.928   5.736  14.751 -0.0479 -0.4718  0.0349
 9812TIP3    H150927   1.928   5.758  14.844 -0.5825 -0.6454  0.0788
 9812TIP3    H250928   1.861   5.669  14.742  0.0408 -0.4986 -0.4683
 9813TIP3   OH250929   6.534   0.648  12.445 -0.1566  0.1518  0.5085
 9813TIP3    H150930   6.623   0.615  12.432  0.8333  2.4736  0.8204
 9813TIP3    H250931   6.514   0.695  12.363 -0.7060  0.4536  0.8089
 9814TIP3   OH250932   6.161   4.043   2.254 -0.3008  0.4557  0.1594
 9814TIP3    H150933   6.201   4.057   2.168 -1.1613  1.5091 -0.0904
 9814TIP3    H250934   6.233   4.049   2.316  0.5626 -1.6095 -0.5480
 9815TIP3   OH250935   6.284   1.534  16.163  0.3455  0.6751  0.9262
 9815TIP3    H150936   6.299   1.622  16.128 -1.2986  0.1777 -1.2313
 9815TIP3    H250937   6.349   1.480  16.118  0.2530  0.5267  0.9708
 9816TIP3   OH250938   1.961   2.235  14.315  0.0197  0.3408  0.0229
 9816TIP3    H150939   1.953   2.206  14.406 -5.0555 -3.3983 -1.1773
 9816TIP3    H250940   1.892   2.301  14.305  0.0701  0.2208 -1.2741
 9817TIP3   OH250941   1.895   4.652  13.007 -0.0629 -0.1820  0.0315
 9817TIP3    H150942   1.828   4.655  12.939  1.2920 -0.9754 -1.4186
 9817TIP3    H250943   1.888   4.564  13.044  0.8463 -0.6762 -0.8997
 9818TIP3   OH250944   0.791   2.313  11.636  0.4100 -0.5012  0.3833
 9818TIP3    H150945   0.859   2.379  11.628 -0.7744  1.0935  2.4381
 9818TIP3    H250946   0.833   2.239  11.680  1.0982  0.0338  0.6365
 9819TIP3   OH250947   0.148   1.191   2.357  0.5630 -0.6144  0.3620
 9819TIP3    H150948   0.115   1.113   2.400  0.0949 -0.0194  1.1053
 9819TIP3    H250949   0.201   1.235   2.423  0.9621 -0.3813 -0.1029
 9820TIP3   OH250950   3.241   4.229  10.382  0.5961  0.4813  0.0567
 9820TIP3    H150951   3.192   4.269  10.311  0.6795 -0.5884 -0.6136
 9820TIP3    H250952   3.189   4.154  10.410  1.3824 -0.1222 -0.0438
 9821TIP3   OH250953   0.213   5.675  12.075 -0.1527 -0.0546  0.1604
 9821TIP3    H150954   0.218   5.676  11.979  2.3861 -0.5255  0.2228
 9821TIP3    H250955   0.181   5.587  12.096  0.0027 -0.2107 -0.2411
 9822TIP3   OH250956   6.621   4.667  13.784  0.0772 -0.3043  0.2098
 9822TIP3    H150957   6.542   4.639  13.738 -1.0073  0.3332  1.6235
 9822TIP3    H250958   6.653   4.588  13.827  1.5116 -1.0870 -2.0912
 9823TIP3   OH250959   0.954   5.269   1.020  0.9162 -0.0268  0.3008
 9823TIP3    H150960   1.037   5.265   1.068  0.4810 -0.3299  1.0431
 9823TIP3    H250961   0.888   5.288   1.087  0.3445 -0.0965 -0.2324
 9824TIP3   OH250962   6.756   5.917   1.079  0.2951 -0.0532 -0.6575
 9824TIP3    H150963   6.689   5.850   1.067  1.1508 -0.6897 -2.2060
 9824TIP3    H250964   6.800   5.922   0.995 -0.1163  2.9182 -0.8092
 9825TIP3   OH250965   0.058   6.229   3.054  0.2828 -0.0563  0.3918
 9825TIP3    H150966   0.013   6.145   3.044  1.5291 -0.7150  0.1964
 9825TIP3    H250967   0.132   6.210   3.112  0.0220  1.1288  1.1365
 9826TIP3   OH250968   2.965   6.574  13.411  0.9015 -0.2869  0.3626
 9826TIP3    H150969   3.019   6.649  13.384 -0.2614  1.7309  3.1189
 9826TIP3    H250970   2.876   6.600  13.389  0.3473 -0.2345  2.4325
 9827TIP3   OH250971   0.279   1.080  14.947 -0.3042 -0.0332  0.2639
 9827TIP3    H150972   0.347   1.075  15.015 -1.9365 -1.4964  1.9203
 9827TIP3    H250973   0.306   1.017  14.881 -0.5180 -1.3734  1.4146
 9828TIP3   OH250974   2.344   2.876  13.681  0.2934 -0.0192 -0.0005
 9828TIP3    H150975   2.432   2.847  13.655  0.1022 -0.9149  0.3223
 9828TIP3    H250976   2.357   2.911  13.770  0.2520 -0.5316  0.2090
 9829TIP3   OH250977   3.448   2.928  11.885  0.3995  0.0221 -0.0095
 9829TIP3    H150978   3.448   2.866  11.812 -2.6693 -2.1134  1.6004
 9829TIP3    H250979   3.530   2.910  11.932  1.2222 -0.3099 -1.5169
 9830TIP3   OH250980   3.110   5.292  12.177 -0.1629  0.1226 -0.1473
 9830TIP3    H150981   3.042   5.250  12.229 -0.1713  1.0113  0.5693
 9830TIP3    H250982   3.150   5.356  12.235 -0.9574  1.9882 -1.5550
 9831TIP3   OH250983   3.248   4.154  11.152 -0.4421 -0.2561  0.3251
 9831TIP3    H150984   3.168   4.155  11.100 -1.3530  1.0199  1.6637
 9831TIP3    H250985   3.315   4.191  11.094 -1.7000  2.3425  0.3814
 9832TIP3   OH250986   1.141   5.007  14.935  0.1296  0.0727  0.4650
 9832TIP3    H150987   1.202   4.970  14.999 -0.4134 -0.4914  0.6527
 9832TIP3    H250988   1.166   4.966  14.852 -1.1700 -1.5890  0.8501
 9833TIP3   OH250989   3.175   1.005   3.551 -0.2695 -0.9103 -0.3961
 9833TIP3    H150990   3.253   0.994   3.606 -0.3672  1.1284  0.2657
 9833TIP3    H250991   3.201   0.971   3.466  0.8264 -1.6569  0.2132
 9834TIP3   OH250992   4.884   2.256   2.126  0.0013  0.1584 -0.1227
 9834TIP3    H150993   4.969   2.217   2.143  0.1109  0.3934 -0.1218
 9834TIP3    H250994   4.892   2.293   2.038 -0.7438 -1.5615 -0.9582
 9835TIP3   OH250995   2.458   0.021  12.052  0.2883 -0.1890  0.3404
 9835TIP3    H150996   2.506   0.103  12.045 -0.5908  0.1946 -3.2817
 9835TIP3    H250997   2.523  -0.044  12.076  1.7346  1.0366 -0.1300
 9836TIP3   OH250998   2.193   6.074  12.893 -0.2546 -0.3267 -0.0579
 9836TIP3    H150999   2.202   6.017  12.817 -1.6725 -1.0492  0.2909
 9836TIP3    H251000   2.148   6.021  12.959 -0.1975  0.6895  0.8374
 9837TIP3   OH251001   1.333   3.437  12.270 -0.3432 -0.3025  0.2857
 9837TIP3    H151002   1.413   3.387  12.259 -0.4171 -0.1741 -0.8859
 9837TIP3    H251003   1.309   3.466  12.182 -0.7789  1.0506  0.8181
 9838TIP3   OH251004   1.161   1.192   6.584 -0.5318 -0.0017  0.1218
 9838TIP3    H151005   1.111   1.130   6.531 -0.5671 -1.5960  1.9152
 9838TIP3    H251006   1.240   1.145   6.609 -2.1002 -0.8000  4.4221
 9839TIP3   OH251007   4.039   4.619   5.510  0.5839 -0.1142 -0.2240
 9839TIP3    H151008   4.008   4.529   5.511  0.4051 -0.1226 -2.4616
 9839TIP3    H251009   3.987   4.662   5.443  1.8081  1.2153 -0.3784
 9840TIP3   OH251010   3.444   6.146   5.174  0.1444  0.2877  0.1575
 9840TIP3    H151011   3.490   6.069   5.206  0.2664  0.2350 -0.1434
 9840TIP3    H251012   3.491   6.172   5.095 -0.6023 -0.0294 -0.4043
 9841TIP3   OH251013   3.014   0.691   0.068  0.1384 -0.0231  0.1240
 9841TIP3    H151014   3.082   0.737   0.018 -0.1546 -0.1314 -0.3811
 9841TIP3    H251015   3.029   0.717   0.159 -0.1460  1.2343 -0.1725
 9842TIP3   OH251016   5.726   2.698  15.838 -0.6696  0.2773  0.8350
 9842TIP3    H151017   5.639   2.664  15.815 -1.4939  1.9422  1.3027
 9842TIP3    H251018   5.721   2.792  15.817  2.3707 -0.1909 -3.0400
 9843TIP3   OH251019   1.497   0.239  12.924  0.5950  0.5235 -0.1597
 9843TIP3    H151020   1.554   0.291  12.868 -0.8750 -0.0388 -2.3201
 9843TIP3    H251021   1.408   0.264  12.899 -0.1437 -1.3385  0.3549
 9844TIP3   OH251022   0.244   5.428   3.583  0.8105 -0.3517  0.2481
 9844TIP3    H151023   0.338   5.433   3.603  1.2804 -1.3608 -1.4869
 9844TIP3    H251024   0.229   5.499   3.520  0.6794 -0.9357 -0.3885
 9845TIP3   OH251025   1.661   0.028  13.312 -0.1937 -0.6561  0.0929
 9845TIP3    H151026   1.571   0.022  13.343 -0.5278 -0.2547 -0.7753
 9845TIP3    H251027   1.661   0.101  13.249  0.5006 -1.2995 -0.6895
 9846TIP3   OH251028   1.657   5.401   4.748  0.2283  0.0082  0.2696
 9846TIP3    H151029   1.614   5.320   4.721 -0.4451  0.5521 -0.3563
 9846TIP3    H251030   1.745   5.396   4.710  0.1505 -0.3707  0.1337
 9847TIP3   OH251031   5.080   4.774   6.633 -0.3159  0.2250 -0.1131
 9847TIP3    H151032   5.097   4.853   6.582  1.0726 -1.1771 -1.9835
 9847TIP3    H251033   5.137   4.782   6.710 -0.0549  0.9674 -0.3812
 9848TIP3   OH251034   0.622   4.548  11.203  0.2515 -0.1127 -0.7293
 9848TIP3    H151035   0.665   4.488  11.143  1.9985 -0.3685  0.7045
 9848TIP3    H251036   0.538   4.568  11.162  0.4405 -2.0428 -2.1303
 9849TIP3   OH251037   2.569   3.559   2.021 -0.1488 -0.9083 -0.8704
 9849TIP3    H151038   2.614   3.561   1.937 -0.6082 -1.8203 -1.1449
 9849TIP3    H251039   2.640   3.549   2.085  0.5723  3.0328 -0.7903
 9850TIP3   OH251040   5.821   4.022   1.372 -0.1308 -0.5410  0.0501
 9850TIP3    H151041   5.737   4.062   1.349  0.2557 -0.0898 -0.5916
 9850TIP3    H251042   5.878   4.042   1.298  0.4806 -1.0364  0.3854
 9851TIP3   OH251043   4.629   3.536   5.208  0.3690  0.1448 -0.2208
 9851TIP3    H151044   4.679   3.514   5.286 -0.4354  0.2551  0.3356
 9851TIP3    H251045   4.624   3.632   5.208 -0.9010  0.0943  0.4213
 9852TIP3   OH251046   1.535   0.081  14.287 -0.8508 -0.1796  0.3072
 9852TIP3    H151047   1.445   0.062  14.260 -1.7441  2.6310  0.9593
 9852TIP3    H251048   1.573   0.128  14.212 -0.6344  0.4153  0.7734
 9853TIP3   OH251049   4.835   5.850  12.614  0.0889  0.0582 -0.4380
 9853TIP3    H151050   4.908   5.894  12.571  0.2413  2.6124  2.1444
 9853TIP3    H251051   4.875   5.804  12.688 -0.7504  0.8555  0.5559
 9854TIP3   OH251052   1.159   0.014   1.290  0.1193 -0.2750  0.1768
 9854TIP3    H151053   1.138  -0.074   1.260  0.4543 -0.3991  0.3071
 9854TIP3    H251054   1.246   0.032   1.253 -0.2660  0.2941 -0.4891
 9855TIP3   OH251055   1.510   4.898  12.229 -0.5425 -0.0534 -0.3513
 9855TIP3    H151056   1.530   4.907  12.322 -1.1569 -1.7758 -0.0232
 9855TIP3    H251057   1.421   4.933  12.220 -0.1992  0.8265 -0.4586
 9856TIP3   OH251058   0.533   1.005  12.287  0.2631  0.5162  0.9016
 9856TIP3    H151059   0.621   0.966  12.281 -0.0068  0.1705 -1.3511
 9856TIP3    H251060   0.482   0.940  12.336  0.1853 -1.4589 -1.5869
 9857TIP3   OH251061   4.818   6.207   4.926  0.0950 -0.1252 -0.3466
 9857TIP3    H151062   4.882   6.137   4.937 -0.3499 -0.4510  0.2832
 9857TIP3    H251063   4.768   6.206   5.008 -3.2681 -2.4499 -2.1896
 9858TIP3   OH251064   5.594   2.265  15.054 -0.2937  0.2324 -0.2932
 9858TIP3    H151065   5.654   2.191  15.059  0.5318  0.9398  0.9071
 9858TIP3    H251066   5.507   2.227  15.070  0.0301 -0.5785 -0.4373
 9859TIP3   OH251067   6.552   1.636   1.265  0.4314  0.6517  0.7932
 9859TIP3    H151068   6.569   1.578   1.339  0.7320  0.1985  0.3667
 9859TIP3    H251069   6.532   1.721   1.306 -2.6983 -0.3248  1.5856
 9860TIP3   OH251070   0.171   4.789   4.088  0.6298  0.1154  0.3776
 9860TIP3    H151071   0.103   4.840   4.131  0.5702  0.0646  0.3423
 9860TIP3    H251072   0.179   4.710   4.142 -0.4367 -0.6154 -0.4960
 9861TIP3   OH251073   4.282   2.201  11.293 -0.6263  0.6459  0.1930
 9861TIP3    H151074   4.232   2.274  11.255 -1.2780 -0.2265 -0.6634
 9861TIP3    H251075   4.237   2.123  11.262  0.4714 -0.1419  0.5550
 9862TIP3   OH251076   2.821   1.568  17.122 -0.1753  0.6604  0.1675
 9862TIP3    H151077   2.861   1.605  17.044  2.2976 -0.9786  0.5379
 9862TIP3    H251078   2.868   1.610  17.195  0.3797 -0.7082  0.6396
 9863TIP3   OH251079   3.804   3.632  12.271  0.2855  0.2292 -0.5395
 9863TIP3    H151080   3.822   3.725  12.276 -1.4537  0.5936 -0.6420
 9863TIP3    H251081   3.756   3.611  12.351  0.2583 -0.4778 -0.7259
 9864TIP3   OH251082   6.230   1.587  15.355  0.3581  0.1728 -0.1333
 9864TIP3    H151083   6.277   1.516  15.312  0.0175  0.0421 -0.2952
 9864TIP3    H251084   6.180   1.629  15.285 -0.0107  0.1133  0.0903
 9865TIP3   OH251085   4.837   4.549   2.137  0.0476  0.1988  0.1569
 9865TIP3    H151086   4.761   4.557   2.080  0.7978  2.5805 -0.6065
 9865TIP3    H251087   4.879   4.467   2.109 -0.5406  0.4330 -1.5502
 9866TIP3   OH251088   1.664   0.632   2.811 -0.7381  0.5728  0.0278
 9866TIP3    H151089   1.575   0.662   2.799 -0.7225  0.9692  0.8239
 9866TIP3    H251090   1.719   0.698   2.770 -0.8316 -0.1341 -1.2841
 9867TIP3   OH251091   5.719   1.728  12.751 -0.3209 -0.0735 -0.0653
 9867TIP3    H151092   5.785   1.750  12.685  1.8286 -0.8328  1.7092
 9867TIP3    H251093   5.676   1.811  12.771 -0.5152  0.2873 -1.8498
 9868TIP3   OH251094   3.635   0.005   0.387  0.0926  0.4981 -0.0429
 9868TIP3    H151095   3.582   0.085   0.392 -1.1336 -0.2799 -0.3763
 9868TIP3    H251096   3.602  -0.041   0.311 -0.3426 -1.1257  1.0779
 9869TIP3   OH251097   5.133   1.698   6.406 -0.0475 -0.2953  0.5440
 9869TIP3    H151098   5.157   1.791   6.401 -0.4617 -0.2007  0.2184
 9869TIP3    H251099   5.216   1.651   6.394  0.0651  0.0303 -0.0086
 9870TIP3   OH251100   0.601   3.829  13.082  0.4995  0.4994  0.6967
 9870TIP3    H151101   0.537   3.763  13.057  2.2079 -1.7515  1.8838
 9870TIP3    H251102   0.670   3.822  13.015  0.8076  0.9598  0.9580
 9871TIP3   OH251103   5.079   4.986   2.137  0.2456  0.3849 -0.1703
 9871TIP3    H151104   5.075   5.076   2.169 -2.0955 -0.3684  1.9610
 9871TIP3    H251105   5.130   4.939   2.203 -0.2168 -0.2276 -0.2390
 9872TIP3   OH251106   6.230   0.455   0.281  0.4004 -0.4853  0.3961
 9872TIP3    H151107   6.314   0.498   0.297  1.2075 -1.5957 -0.6710
 9872TIP3    H251108   6.245   0.403   0.202 -1.0151 -1.4479  0.7282
 9873TIP3   OH251109   5.478   2.040  10.847 -0.2061  0.0034  0.5439
 9873TIP3    H151110   5.474   1.945  10.832  0.2967 -0.0316  0.6261
 9873TIP3    H251111   5.487   2.078  10.760  0.3183 -0.0681  0.5629
 9874TIP3   OH251112   0.896   2.474   5.769 -0.3881 -0.2626  0.3570
 9874TIP3    H151113   0.843   2.537   5.721 -0.4890  0.6412  1.6161
 9874TIP3    H251114   0.969   2.524   5.804  0.0219 -1.0202  0.6172
 9875TIP3   OH251115   0.097   6.545   4.643  0.3772 -0.2648 -0.9229
 9875TIP3    H151116   0.088   6.454   4.615 -0.3676  0.0772 -1.8777
 9875TIP3    H251117   0.007   6.575   4.654  0.6287 -0.0460  0.8170
 9876TIP3   OH251118   1.849   4.290  16.910  0.8921  0.1523  0.4463
 9876TIP3    H151119   1.756   4.299  16.932  0.1928 -0.5444 -1.8750
 9876TIP3    H251120   1.892   4.362  16.955 -0.6591  0.0752  2.1451
 9877TIP3   OH251121   6.003   4.688  14.353  0.2068 -0.3710 -0.0769
 9877TIP3    H151122   6.059   4.694  14.431  0.5292 -1.1194 -0.2473
 9877TIP3    H251123   5.918   4.723  14.382  0.4988 -0.0765  0.4354
 9878TIP3   OH251124   1.969   3.910  12.665  0.0533 -0.0299 -0.2028
 9878TIP3    H151125   1.957   4.003  12.645 -0.2183 -0.1067 -0.3936
 9878TIP3    H251126   1.898   3.888  12.725 -0.3937 -0.3227 -0.8313
 9879TIP3   OH251127   5.464   5.960  17.069  0.0064  0.1852 -0.1808
 9879TIP3    H151128   5.436   6.014  16.995  1.8089  1.5831  0.0938
 9879TIP3    H251129   5.458   6.017  17.145  0.4177 -0.4910  0.3827
 9880TIP3   OH251130   6.111   4.851   0.022  0.1036  0.2421 -0.2751
 9880TIP3    H151131   6.102   4.927   0.081  1.0606 -0.0779  0.3106
 9880TIP3    H251132   6.160   4.787   0.074 -0.7979 -0.8242 -0.7253
 9881TIP3   OH251133   5.490   2.315  14.629  0.0766  0.4570 -0.3071
 9881TIP3    H151134   5.524   2.379  14.566 -1.0584  0.4926 -0.9037
 9881TIP3    H251135   5.397   2.306  14.607 -0.2777  0.2320  1.1820
 9882TIP3   OH251136   5.258   6.505  16.170  0.5521 -0.3314  0.3521
 9882TIP3    H151137   5.344   6.464  16.178  0.7327 -0.2629 -0.9176
 9882TIP3    H251138   5.199   6.433  16.148  0.5814 -0.1539 -0.3290
 9883TIP3   OH251139   4.237   4.184   0.857 -0.3480 -0.1567 -0.3813
 9883TIP3    H151140   4.207   4.194   0.947 -3.1825 -0.6523 -1.1443
 9883TIP3    H251141   4.197   4.102   0.828  1.3916 -0.5610 -1.7816
 9884TIP3   OH251142   0.290   4.208   4.691 -0.0282  0.1271  0.1080
 9884TIP3    H151143   0.278   4.184   4.599  1.2833 -0.2461  0.0204
 9884TIP3    H251144   0.266   4.301   4.695 -2.4344 -0.4192 -0.1086
 9885TIP3   OH251145   1.391   0.449   1.519  0.1500  0.3808  0.4461
 9885TIP3    H151146   1.333   0.525   1.515  0.0971  0.3619  0.8600
 9885TIP3    H251147   1.363   0.401   1.597 -0.0592 -0.2581 -0.0087
 9886TIP3   OH251148   4.175   1.809   2.760  0.4443  0.8167 -0.2538
 9886TIP3    H151149   4.199   1.871   2.690 -0.5945  0.2904 -1.1082
 9886TIP3    H251150   4.208   1.725   2.730  0.9014  0.7545  0.3995
 9887TIP3   OH251151   4.575   5.799   1.775  0.0705  0.3565  0.0822
 9887TIP3    H151152   4.664   5.774   1.750 -0.2669 -1.2987  0.4056
 9887TIP3    H251153   4.584   5.886   1.812  1.8748 -0.4667  1.7763
 9888TIP3   OH251154   5.716   3.945   0.186 -0.3465 -0.0614 -0.2902
 9888TIP3    H151155   5.674   4.029   0.205 -0.1161  0.0763 -0.3788
 9888TIP3    H251156   5.696   3.928   0.094 -0.5721 -0.2070 -0.2126
 9889TIP3   OH251157   0.586   2.382  12.890 -0.1427 -0.0038  0.6016
 9889TIP3    H151158   0.638   2.460  12.868 -1.7699  0.7581 -0.8201
 9889TIP3    H251159   0.583   2.332  12.809 -0.4661 -0.7281  1.0559
 9890TIP3   OH251160   5.924   0.038   2.211 -0.5056 -0.2722  0.2064
 9890TIP3    H151161   5.856   0.105   2.200  0.9490  1.2130 -0.2730
 9890TIP3    H251162   5.919   0.013   2.303 -1.4626  0.0511  0.2537
 9891TIP3   OH251163   6.356   5.758  12.153  0.3161  0.1824 -0.2006
 9891TIP3    H151164   6.379   5.667  12.172  1.2785  0.3479 -0.5133
 9891TIP3    H251165   6.423   5.810  12.197  0.3067  0.7030 -0.7829
 9892TIP3   OH251166   1.994   4.925  11.517  0.2514  0.3492 -0.2628
 9892TIP3    H151167   1.939   4.974  11.578  0.1494  0.6699 -0.6060
 9892TIP3    H251168   2.084   4.945  11.544  0.2071 -0.3052  0.4003
 9893TIP3   OH251169   3.775   2.449  14.518  0.2205  0.3676  0.3807
 9893TIP3    H151170   3.730   2.434  14.434 -0.0797  0.3926  0.5379
 9893TIP3    H251171   3.840   2.379  14.522  3.0057  2.5866 -1.7460
 9894TIP3   OH251172   3.504   5.386   6.088 -0.1529  0.3744  0.0437
 9894TIP3    H151173   3.536   5.299   6.111 -0.3793  0.4295  0.5933
 9894TIP3    H251174   3.556   5.446   6.141  2.9330  0.9494 -3.3022
 9895TIP3   OH251175   5.091   3.257  12.847  0.5339 -0.2130 -0.3471
 9895TIP3    H151176   5.186   3.260  12.855  0.4701  0.6454  0.1551
 9895TIP3    H251177   5.063   3.191  12.910  0.6977  0.5290  0.5222
 9896TIP3   OH251178   1.542   2.058   2.092  0.5770  0.2356 -0.2339
 9896TIP3    H151179   1.452   2.030   2.076  0.2652  0.7985  0.4839
 9896TIP3    H251180   1.590   1.977   2.110  0.1908 -0.0554 -0.5110
 9897TIP3   OH251181   3.378   3.673   0.444  0.0775 -0.8158 -0.2489
 9897TIP3    H151182   3.284   3.690   0.447  0.5090  2.2227 -0.2920
 9897TIP3    H251183   3.400   3.673   0.351  0.4249  1.0571 -0.2070
 9898TIP3   OH251184   5.838   1.588   3.835  0.0733 -0.4760 -0.3956
 9898TIP3    H151185   5.860   1.532   3.761  1.5043 -0.8036  0.2432
 9898TIP3    H251186   5.802   1.528   3.900  1.6822 -0.7025  0.3193
 9899TIP3   OH251187   1.128   5.117   6.267 -0.1006 -0.0445 -0.1610
 9899TIP3    H151188   1.068   5.099   6.340 -0.1019  1.6797  0.3160
 9899TIP3    H251189   1.075   5.103   6.188 -0.2099 -1.5529  0.1594
 9900TIP3   OH251190   3.585   6.686   0.151  0.4555  0.0207 -0.1072
 9900TIP3    H151191   3.618   6.660   0.065 -0.6157 -2.4565  0.1490
 9900TIP3    H251192   3.508   6.740   0.132 -1.1358 -2.3611 -0.7952
 9901TIP3   OH251193   3.250   3.517   2.597 -0.2045 -0.7454  0.3521
 9901TIP3    H151194   3.256   3.589   2.534 -1.0340 -0.4799  0.5693
 9901TIP3    H251195   3.285   3.441   2.549 -2.4353 -0.9623 -1.0901
 9902TIP3   OH251196   1.517   6.671  13.550 -0.8080  0.3534 -0.3359
 9902TIP3    H151197   1.481   6.738  13.608  0.8279  0.4832  0.5945
 9902TIP3    H251198   1.612   6.679  13.560 -0.5366 -2.2660  0.0051
 9903TIP3   OH251199   1.463   1.642  10.574  0.0388  0.1617 -0.0165
 9903TIP3    H151200   1.398   1.664  10.641  0.0845 -1.9603  0.7894
 9903TIP3    H251201   1.533   1.598  10.621  0.7642 -0.0797 -1.2773
 9904TIP3   OH251202   5.025   3.675   3.427 -0.4256  0.0915  0.2088
 9904TIP3    H151203   5.060   3.758   3.394 -1.5556 -0.2178 -1.9046
 9904TIP3    H251204   5.061   3.609   3.367 -1.6838 -0.6227  0.2213
 9905TIP3   OH251205   3.603   4.488  16.028  0.3752 -0.2006  0.3395
 9905TIP3    H151206   3.518   4.528  16.011  0.1628 -0.0876  1.6119
 9905TIP3    H251207   3.588   4.430  16.103  1.1026 -1.2602 -0.2997
 9906TIP3   OH251208   2.226   6.188   3.865  1.1378  0.5761  0.7784
 9906TIP3    H151209   2.177   6.107   3.852  0.1782  1.0502  1.3758
 9906TIP3    H251210   2.235   6.226   3.777  0.4844  0.4563  0.6603
 9907TIP3   OH251211   5.721   0.456   0.921 -0.1921 -0.0510 -0.6532
 9907TIP3    H151212   5.653   0.490   0.864  0.1446 -1.1070 -1.7223
 9907TIP3    H251213   5.739   0.528   0.982 -2.3070  0.2191 -0.2604
 9908TIP3   OH251214   5.798   1.688   1.183  0.0785 -0.0916 -0.5246
 9908TIP3    H151215   5.800   1.593   1.184  0.7984 -0.1516 -2.7820
 9908TIP3    H251216   5.884   1.714   1.216 -0.3968 -0.1648  0.8406
 9909TIP3   OH251217   6.630   2.932   2.785  0.1893 -0.2258  0.1328
 9909TIP3    H151218   6.571   2.990   2.736  0.2634 -0.0788  0.2218
 9909TIP3    H251219   6.696   2.989   2.822  0.6370 -0.4421 -0.3243
 9910TIP3   OH251220   1.157   3.086  11.387  0.1310  0.3998  0.5149
 9910TIP3    H151221   1.110   3.050  11.313  0.0028 -0.8879  1.1876
 9910TIP3    H251222   1.240   3.117  11.350 -0.7603  1.6540 -0.4816
 9911TIP3   OH251223   6.629   3.156   4.007 -0.1310 -0.5175  0.2089
 9911TIP3    H151224   6.639   3.177   3.914 -1.7686 -1.2062 -0.1520
 9911TIP3    H251225   6.686   3.218   4.051  0.2990  0.1566 -1.2292
 9912TIP3   OH251226   3.566   2.917   5.027  0.4097 -0.2504 -0.3961
 9912TIP3    H151227   3.625   2.930   4.953  0.4794  0.3155 -0.2431
 9912TIP3    H251228   3.611   2.957   5.101 -0.1647  0.1806 -0.2747
 9913TIP3   OH251229   6.712   2.273   0.218 -0.3016 -0.4713 -0.0263
 9913TIP3    H151230   6.619   2.270   0.240 -0.1865 -1.7230  0.3295
 9913TIP3    H251231   6.734   2.366   0.222 -1.8133 -0.0031 -1.2930
 9914TIP3   OH251232   6.631   1.451  11.353 -0.2063  0.1551 -0.4240
 9914TIP3    H151233   6.639   1.383  11.285  0.6400  0.0997 -0.2722
 9914TIP3    H251234   6.698   1.516  11.330 -0.7753  0.7795 -0.3673
 9915TIP3   OH251235   3.075   5.327  17.254  0.2178  0.0012  0.5323
 9915TIP3    H151236   3.059   5.310  17.347  1.4722 -1.5406  0.4910
 9915TIP3    H251237   3.067   5.242  17.212  0.4197  0.5595 -0.6677
 9916TIP3   OH251238   3.591   5.460   3.926  0.1848 -0.0967 -0.1270
 9916TIP3    H151239   3.648   5.462   3.849  0.3981 -0.6523  0.0087
 9916TIP3    H251240   3.587   5.367   3.950  0.6736  0.1346  0.9283
 9917TIP3   OH251241   2.309   3.780   3.033 -0.1053 -0.0631 -0.2714
 9917TIP3    H151242   2.312   3.821   2.946 -0.1249  1.6332  0.4760
 9917TIP3    H251243   2.401   3.767   3.056 -0.0778  0.1018 -0.2844
 9918TIP3   OH251244   6.556   1.040  17.199  0.3409  0.0928  0.8973
 9918TIP3    H151245   6.481   1.045  17.258 -1.2075 -1.4177 -0.8114
 9918TIP3    H251246   6.534   0.970  17.138  2.4826  0.6224 -0.6120
 9919TIP3   OH251247   1.349   6.791  11.551  0.0781 -0.1202 -0.4279
 9919TIP3    H151248   1.402   6.869  11.566 -1.4582  0.6572  1.4179
 9919TIP3    H251249   1.400   6.739  11.489  1.4117  2.0740 -1.2928
 9920TIP3   OH251250   3.245   2.408   1.909 -0.2119  0.4207  0.2334
 9920TIP3    H151251   3.260   2.501   1.890 -0.1348  0.0906 -1.3960
 9920TIP3    H251252   3.149   2.401   1.917 -0.2303  0.6129  0.1882
 9921TIP3   OH251253   4.233   1.892  11.825 -0.3324 -0.0397  0.0599
 9921TIP3    H151254   4.222   1.944  11.746 -0.3878  1.5724  1.0879
 9921TIP3    H251255   4.228   1.801  11.795 -0.7733  0.5349 -1.7069
 9922TIP3   OH251256   0.728   5.228   6.504 -0.0254 -0.1692  0.3406
 9922TIP3    H151257   0.746   5.227   6.598 -0.5787 -0.2715  0.4503
 9922TIP3    H251258   0.638   5.196   6.496 -1.4380  3.3426  0.1185
 9923TIP3   OH251259   4.433   3.334  16.820 -1.0414 -0.1936  0.1459
 9923TIP3    H151260   4.527   3.338  16.839 -1.3777 -0.6655  2.0442
 9923TIP3    H251261   4.422   3.251  16.773 -0.4355  0.2015 -0.7308
 9924TIP3   OH251262   1.601   3.400  13.617 -0.2179  0.4458  0.4101
 9924TIP3    H151263   1.595   3.305  13.625  0.6354  0.1086 -2.1028
 9924TIP3    H251264   1.686   3.423  13.653  0.0624  0.0967 -0.0254
 9925TIP3   OH251265   4.264   6.107   2.129  0.3007 -0.1856 -0.3315
 9925TIP3    H151266   4.334   6.170   2.143 -1.1298  1.6364 -0.9724
 9925TIP3    H251267   4.224   6.095   2.216 -0.0815  0.6426 -0.3823
 9926TIP3   OH251268   5.050   2.402  14.405 -0.0646 -0.3432  0.2677
 9926TIP3    H151269   5.033   2.308  14.396 -0.5577 -0.1775 -0.6955
 9926TIP3    H251270   5.145   2.407  14.421  0.0236 -0.9899 -0.0042
 9927TIP3   OH251271   4.289   0.086   3.195  0.2658 -0.2542  0.0389
 9927TIP3    H151272   4.284   0.103   3.101  1.8915  1.7036  0.2199
 9927TIP3    H251273   4.224   0.145   3.233  2.0843  1.7193  0.3034
 9928TIP3   OH251274   5.822   3.468   2.282 -0.3869 -0.1013  0.1344
 9928TIP3    H151275   5.902   3.467   2.231 -0.2067  1.9074  0.3349
 9928TIP3    H251276   5.849   3.494   2.370 -1.4196  2.1868 -0.1694
 9929TIP3   OH251277   5.396   5.787   1.768 -0.0243 -0.5428  0.3800
 9929TIP3    H151278   5.448   5.737   1.831  0.8941 -0.3026 -0.1802
 9929TIP3    H251279   5.456   5.806   1.696 -0.5582  0.7372  0.2496
 9930TIP3   OH251280   0.629   1.733  16.312  0.3282 -0.2488 -0.0191
 9930TIP3    H151281   0.685   1.811  16.310  0.8455 -0.5875  0.8139
 9930TIP3    H251282   0.655   1.682  16.236  2.3237 -1.1815  1.2024
 9931TIP3   OH251283   3.729   3.355   2.555 -0.1189 -0.5712  0.4153
 9931TIP3    H151284   3.766   3.299   2.623  0.3394 -0.4183  0.2911
 9931TIP3    H251285   3.688   3.295   2.493 -0.9377 -0.6899  1.0592
 9932TIP3   OH251286   5.775   5.621   3.648 -0.1961 -0.1307 -0.3164
 9932TIP3    H151287   5.797   5.642   3.739 -0.8245  1.3858 -0.4918
 9932TIP3    H251288   5.765   5.706   3.605 -0.7056 -0.8181 -1.6125
 9933TIP3   OH251289   4.543   4.213   0.289  0.0770 -0.1617 -0.2541
 9933TIP3    H151290   4.492   4.293   0.276  0.5386  0.0582 -0.7519
 9933TIP3    H251291   4.592   4.228   0.369 -0.1764 -0.1298 -0.1035
 9934TIP3   OH251292   0.400   2.997  12.262  0.2321 -0.4176 -0.2388
 9934TIP3    H151293   0.410   2.999  12.358 -0.9288  0.9515 -0.1063
 9934TIP3    H251294   0.487   3.019  12.229 -0.0003  2.2269  0.6188
 9935TIP3   OH251295   3.071   2.248   1.663  0.4920  0.3345 -0.2776
 9935TIP3    H151296   3.035   2.281   1.745  0.4180  1.3419 -0.7013
 9935TIP3    H251297   3.161   2.222   1.685  1.0267  2.1127 -0.2014
 9936TIP3   OH251298   0.002   3.701   4.095 -0.1232  0.2825 -0.3285
 9936TIP3    H151299   0.080   3.756   4.099  0.1796 -0.0929 -0.8633
 9936TIP3    H251300  -0.063   3.746   4.150  0.6060  0.3681  0.4788
 9937TIP3   OH251301   2.465   1.013  14.603  0.3349 -0.2673  0.5999
 9937TIP3    H151302   2.511   0.938  14.641  2.1814  0.8562  0.7027
 9937TIP3    H251303   2.487   1.011  14.510 -1.9385 -1.4230  0.0105
 9938TIP3   OH251304   5.101   3.025  17.250 -0.0446  0.1384  0.4358
 9938TIP3    H151305   5.193   3.029  17.276  0.5929 -1.5947 -1.3049
 9938TIP3    H251306   5.081   2.932  17.245 -1.6728  0.4771  0.0267
 9939TIP3   OH251307   2.963   0.132   0.806  0.0227  0.0656 -0.0874
 9939TIP3    H151308   2.972   0.162   0.715  1.0758 -2.1292 -0.7811
 9939TIP3    H251309   3.042   0.164   0.850  0.6036 -0.6975 -0.5441
 9940TIP3   OH251310   5.661   1.130   2.188 -0.1990 -0.2583 -1.0656
 9940TIP3    H151311   5.684   1.223   2.190  0.5433 -0.4400 -0.9391
 9940TIP3    H251312   5.583   1.126   2.132 -0.4888  0.4905 -0.7315
 9941TIP3   OH251313   2.799   5.952  12.061 -0.6410  0.3666 -0.1819
 9941TIP3    H151314   2.824   5.912  12.144 -1.5187 -0.7324 -0.4360
 9941TIP3    H251315   2.720   6.002  12.080 -0.9213  0.0027 -0.3849
 9942TIP3   OH251316   6.557   0.269  12.808 -0.0012 -0.3262 -0.0257
 9942TIP3    H151317   6.482   0.212  12.825 -0.0102  0.1138  1.4786
 9942TIP3    H251318   6.522   0.341  12.756 -0.6134 -0.1443  0.6371
 9943TIP3   OH251319   0.342   3.351  12.873  0.2499  0.2080 -0.0891
 9943TIP3    H151320   0.370   3.268  12.835  2.4006  0.8033  0.0455
 9943TIP3    H251321   0.384   3.418  12.818 -0.2879  1.1720  0.6389
 9944TIP3   OH251322   3.503   1.919   2.473 -0.6994  0.9379 -0.1098
 9944TIP3    H151323   3.536   1.945   2.387  1.2355 -0.8018  0.0292
 9944TIP3    H251324   3.522   1.994   2.529 -1.4918  1.8762 -1.0595
 9945TIP3   OH251325   2.962   6.607  12.013 -0.1712 -0.4134  0.2641
 9945TIP3    H151326   2.891   6.648  11.964  1.4490 -0.1574 -2.0031
 9945TIP3    H251327   3.039   6.616  11.957  1.0507 -3.3741  1.2741
 9946TIP3   OH251328   3.037   1.158   5.173 -0.1880 -0.4386 -0.7141
 9946TIP3    H151329   3.130   1.138   5.173 -0.5258 -2.2179 -0.3519
 9946TIP3    H251330   3.030   1.242   5.128  1.2172 -2.2415 -4.8082
 9947TIP3   OH251331   4.532   0.698   2.644  0.3213  0.2449  0.2838
 9947TIP3    H151332   4.568   0.628   2.697 -0.3849 -1.2198 -1.1016
 9947TIP3    H251333   4.453   0.726   2.691 -1.1874 -2.1178 -0.6790
 9948TIP3   OH251334   2.546   2.929  12.398  0.1839 -0.2202 -0.0128
 9948TIP3    H151335   2.627   2.971  12.427 -0.5321 -0.6436  2.8406
 9948TIP3    H251336   2.478   2.996  12.411 -0.3869 -0.9373  0.7839
 9949TIP3   OH251337   1.348   3.100   0.825  0.5292  0.4311  0.4185
 9949TIP3    H151338   1.395   3.018   0.837  0.0050  0.0948  0.2357
 9949TIP3    H251339   1.383   3.136   0.743 -0.2809 -0.3596 -0.3093
 9950TIP3   OH251340   0.849   0.350  11.017  0.1728 -0.0626  0.0075
 9950TIP3    H151341   0.806   0.278  11.064 -1.4318  0.2023 -1.0137
 9950TIP3    H251342   0.933   0.360  11.062 -0.8969 -0.4310  2.2425
 9951TIP3   OH251343   0.483   4.308   0.672  0.3489 -0.0373 -0.3798
 9951TIP3    H151344   0.407   4.251   0.665 -0.9168  1.5177 -0.0688
 9951TIP3    H251345   0.511   4.321   0.582  0.2949 -0.6963 -0.4931
 9952TIP3   OH251346   6.331   5.126   0.266  0.1020  0.2240  0.0486
 9952TIP3    H151347   6.408   5.158   0.217 -0.2025  0.9781  0.0409
 9952TIP3    H251348   6.368   5.073   0.336  0.5349 -1.3372 -1.2975
 9953TIP3   OH251349   3.251   5.614   2.368  0.0282 -0.1831  0.2436
 9953TIP3    H151350   3.261   5.525   2.336  0.4430  0.0715 -0.3423
 9953TIP3    H251351   3.161   5.637   2.348  0.0782 -0.2785 -0.0905
 9954TIP3   OH251352   3.250   1.813  15.934 -0.2382  0.2019 -0.1981
 9954TIP3    H151353   3.166   1.841  15.898 -0.4056 -1.1028 -0.8667
 9954TIP3    H251354   3.262   1.723  15.903  1.5549  0.4525 -0.3649
 9955TIP3   OH251355   5.679   6.044  14.765  0.3515  0.0333 -0.5354
 9955TIP3    H151356   5.686   6.001  14.680 -0.8701 -0.9779 -0.1570
 9955TIP3    H251357   5.719   5.982  14.827 -1.2770 -0.5657 -0.0120
 9956TIP3   OH251358   6.415   4.063  12.386  0.0369  0.7513 -0.2933
 9956TIP3    H151359   6.342   4.007  12.411 -0.0448  1.3510  0.8506
 9956TIP3    H251360   6.379   4.118  12.316 -0.0960 -0.0909 -0.9115
 9957TIP3   OH251361   3.738   5.754  13.736  0.2132 -0.0798  0.3102
 9957TIP3    H151362   3.828   5.764  13.764  0.0023 -0.9147  1.3350
 9957TIP3    H251363   3.732   5.663  13.706 -0.2650 -0.0133  0.1930
 9958TIP3   OH251364   3.290   4.603   2.683  0.1781 -0.0932 -0.3832
 9958TIP3    H151365   3.281   4.510   2.706  1.0520 -0.1836 -0.3834
 9958TIP3    H251366   3.366   4.606   2.625 -0.4421  0.4979 -1.1758
 9959TIP3   OH251367   5.218   2.502   1.380 -0.2027  0.0971 -0.8657
 9959TIP3    H151368   5.229   2.524   1.472 -0.8511  0.3300 -0.8460
 9959TIP3    H251369   5.126   2.517   1.361 -0.1659 -0.3391 -1.4513
 9960TIP3   OH251370   1.626   1.199   4.639  0.2277  0.6520  0.2721
 9960TIP3    H151371   1.533   1.218   4.640 -0.1357 -0.9926  1.1558
 9960TIP3    H251372   1.634   1.112   4.676  2.2480  1.2738  1.4854
 9961TIP3   OH251373   0.932   1.288   4.375  0.7674 -0.4801 -0.5886
 9961TIP3    H151374   0.905   1.198   4.357 -1.0202 -0.1346  0.0782
 9961TIP3    H251375   0.968   1.285   4.464  1.4328 -0.6607 -0.8603
 9962TIP3   OH251376   1.268   2.989   3.845  0.1487 -0.2979  0.1448
 9962TIP3    H151377   1.234   3.030   3.925 -1.1845  0.3587 -0.7151
 9962TIP3    H251378   1.338   2.932   3.875 -0.8577 -0.6876  1.8733
 9963TIP3   OH251379   3.066   1.777   5.733  0.1663  0.0038 -0.5945
 9963TIP3    H151380   3.055   1.701   5.676  2.4965 -0.1909 -0.8723
 9963TIP3    H251381   3.099   1.741   5.815 -2.9104  0.3044  0.9410
 9964TIP3   OH251382   3.915   3.234   0.059 -0.0474 -0.1956 -0.1082
 9964TIP3    H151383   3.952   3.151   0.088 -0.7101 -0.4749 -0.0360
 9964TIP3    H251384   3.837   3.245   0.114  0.0597  0.4944 -0.0886
 9965TIP3   OH251385   4.061   3.647  17.182 -0.2910 -0.1157  0.4141
 9965TIP3    H151386   3.998   3.583  17.216 -2.2774  1.7765  0.5520
 9965TIP3    H251387   4.139   3.635  17.237 -0.2851 -2.8447 -0.0435
 9966TIP3   OH251388   1.268   4.690   3.334  0.0807 -0.1351  0.2051
 9966TIP3    H151389   1.182   4.651   3.347 -0.9081  1.0157 -2.2415
 9966TIP3    H251390   1.283   4.685   3.240  0.9899  3.0543  0.0667
 9967TIP3   OH251391   5.025   1.904   4.690 -0.0056 -0.2671  0.7428
 9967TIP3    H151392   4.983   1.857   4.618 -0.1152  2.1911 -0.9020
 9967TIP3    H251393   4.952   1.940   4.741  0.0958 -0.3008  0.9144
 9968TIP3   OH251394   4.089   5.543   3.266  0.8016 -0.3031  0.0545
 9968TIP3    H151395   4.121   5.600   3.197  1.1157  1.1389  1.3391
 9968TIP3    H251396   4.164   5.487   3.287  1.2481  0.4035  0.3735
 9969TIP3   OH251397   0.876   2.395  14.142  0.9637 -0.4733 -0.4549
 9969TIP3    H151398   0.876   2.485  14.110  1.4093 -0.1957  0.2903
 9969TIP3    H251399   0.785   2.380  14.170  0.9686 -0.1231 -0.2416
 9970TIP3   OH251400   2.272   5.364  12.402 -0.0809 -0.2267  0.3330
 9970TIP3    H151401   2.336   5.435  12.408 -0.2119 -0.1563  0.9812
 9970TIP3    H251402   2.290   5.322  12.318 -0.4591  1.0002 -0.3844
 9971TIP3   OH251403   4.082   0.125   2.709  0.1145  0.6190 -0.1208
 9971TIP3    H151404   4.030   0.204   2.695  0.1951  0.8796  0.9196
 9971TIP3    H251405   4.158   0.136   2.652 -1.1839 -0.0045 -2.0431
 9972TIP3   OH251406   1.307   5.859  12.492 -0.4433  0.4159  0.7439
 9972TIP3    H151407   1.300   5.812  12.409  0.1660  0.1073  0.8647
 9972TIP3    H251408   1.216   5.875  12.518 -0.7261  2.9544 -1.3366
 9973TIP3   OH251409   6.470   5.537  15.695 -0.1527 -0.3643 -0.4857
 9973TIP3    H151410   6.464   5.617  15.642 -0.5657  0.6918  1.0729
 9973TIP3    H251411   6.392   5.541  15.751  0.8116 -0.8610  0.9348
 9974TIP3   OH251412   4.740   3.038  12.520 -0.3066  0.3779 -0.2204
 9974TIP3    H151413   4.717   3.002  12.605 -1.3189 -0.2164 -0.7298
 9974TIP3    H251414   4.835   3.044  12.522 -0.3246  0.5118  1.0034
 9975TIP3   OH251415   1.369   2.593   4.796  0.2492  0.6734 -0.1144
 9975TIP3    H151416   1.392   2.637   4.714 -0.8942  0.7753 -0.4025
 9975TIP3    H251417   1.441   2.532   4.812  0.1593  0.1437 -1.5688
 9976TIP3   OH251418   3.798   3.109  11.244  0.0486 -0.3300 -0.0091
 9976TIP3    H151419   3.737   3.094  11.316  0.6049 -0.6438  0.3970
 9976TIP3    H251420   3.779   3.039  11.181 -1.4447  0.7761 -0.8766
 9977TIP3   OH251421   5.086   6.810   1.773 -0.3150 -0.7143 -0.2659
 9977TIP3    H151422   5.009   6.758   1.751  0.2152 -1.7618  0.2835
 9977TIP3    H251423   5.057   6.865   1.846 -0.5231 -1.1550 -0.0149
 9978TIP3   OH251424   0.605   4.800  15.887 -0.1722  0.0496  0.0608
 9978TIP3    H151425   0.567   4.832  15.969 -0.7738  0.9733 -0.5728
 9978TIP3    H251426   0.680   4.746  15.915 -1.3450 -1.0209  1.2856
 9979TIP3   OH251427   0.368   1.411  12.323  0.1022 -0.2649 -0.0708
 9979TIP3    H151428   0.435   1.386  12.387 -1.1517 -3.0681  0.2778
 9979TIP3    H251429   0.298   1.451  12.375 -0.4538 -1.5656  0.2063
 9980TIP3   OH251430   5.678   0.601  10.882  0.4989 -0.0700  0.5075
 9980TIP3    H151431   5.770   0.575  10.892  0.4071 -0.5859  0.0518
 9980TIP3    H251432   5.666   0.614  10.789  0.6261  2.0268  0.7515
 9981TIP3   OH251433   2.278   4.943   4.825  0.3391  0.1897  0.0993
 9981TIP3    H151434   2.282   4.893   4.907 -0.1984 -0.4775 -0.2703
 9981TIP3    H251435   2.288   5.034   4.852  0.9510 -0.0764  0.8273
 9982TIP3   OH251436   1.377   2.228  12.609  0.0400 -0.2707 -0.2629
 9982TIP3    H151437   1.296   2.272  12.636  1.4237  1.9110  0.6003
 9982TIP3    H251438   1.386   2.248  12.516  0.6558  1.4247  0.1176
 9983TIP3   OH251439   2.354   1.317   5.214 -0.3081 -0.5614 -1.1475
 9983TIP3    H151440   2.295   1.250   5.249 -0.4200  0.2942  0.4127
 9983TIP3    H251441   2.430   1.267   5.182 -0.0590 -1.4296  0.6506
 9984TIP3   OH251442   6.548   2.898   0.729 -0.6695  0.6389 -0.3150
 9984TIP3    H151443   6.582   2.966   0.670 -1.8329  1.5461  0.0273
 9984TIP3    H251444   6.608   2.824   0.717  1.5809  2.2397  0.4837
 9985TIP3   OH251445   5.768   2.408  13.828 -0.0230 -0.5498  0.5197
 9985TIP3    H151446   5.752   2.501  13.810  0.5797 -0.3080  1.1719
 9985TIP3    H251447   5.774   2.404  13.924 -0.4631 -1.3367  0.5246
 9986TIP3   OH251448   0.243   3.826   1.307 -0.2230  0.6778  0.3131
 9986TIP3    H151449   0.222   3.820   1.400  1.6062  2.6976  0.9507
 9986TIP3    H251450   0.315   3.764   1.294 -1.8790 -1.1998 -0.3105
 9987TIP3   OH251451   5.592   5.413  11.754 -0.4078  0.0587 -0.0506
 9987TIP3    H151452   5.503   5.426  11.722 -0.5202 -0.7676 -0.1005
 9987TIP3    H251453   5.648   5.436  11.679 -0.2965  4.7116  1.1427
 9988TIP3   OH251454   6.524   3.660   3.544 -0.3326 -0.0020  0.2680
 9988TIP3    H151455   6.560   3.594   3.603  0.8355 -0.5256 -0.9945
 9988TIP3    H251456   6.468   3.714   3.601  0.2768 -0.8343  1.7243
 9989TIP3   OH251457   1.842   1.782   0.883  0.0398  0.0415 -0.1428
 9989TIP3    H151458   1.899   1.705   0.878 -0.3967 -0.2103 -2.4237
 9989TIP3    H251459   1.886   1.847   0.828 -0.8190  0.5572 -0.2362
 9990TIP3   OH251460   2.891   4.891   1.333  0.2408 -0.0556  0.3987
 9990TIP3    H151461   2.910   4.798   1.327 -0.6241 -0.1400 -2.8132
 9990TIP3    H251462   2.970   4.929   1.373 -0.2238 -2.2648  3.8303
 9991TIP3   OH251463   6.812   0.384   4.269 -0.2410  0.4730 -0.1273
 9991TIP3    H151464   6.806   0.320   4.199 -1.7133  1.9416 -1.4267
 9991TIP3    H251465   6.750   0.353   4.335 -0.8893  0.4919 -0.7121
 9992TIP3   OH251466   1.114   0.676  15.029  0.4985 -0.0090 -0.0848
 9992TIP3    H151467   1.062   0.748  15.063  0.2083 -1.2326  2.2256
 9992TIP3    H251468   1.050   0.613  14.994  0.7466  0.7674 -2.0514
 9993TIP3   OH251469   5.466   1.225   2.007  0.1202 -0.3824  0.2530
 9993TIP3    H151470   5.415   1.276   2.070 -0.5414 -0.1749 -0.4310
 9993TIP3    H251471   5.401   1.190   1.947  0.6263 -1.5802  0.3817
 9994TIP3   OH251472   2.394   2.468   2.071 -0.0645 -0.1331 -0.1976
 9994TIP3    H151473   2.333   2.436   2.138 -0.6361  1.6378  0.1829
 9994TIP3    H251474   2.435   2.545   2.110  0.3639  0.3298 -1.4911
 9995TIP3   OH251475   3.353   0.484   4.442 -0.2822  0.1545 -0.3266
 9995TIP3    H151476   3.413   0.475   4.517 -2.1025  0.2753  1.2351
 9995TIP3    H251477   3.411   0.496   4.367  1.6561 -0.4180  0.9759
 9996TIP3   OH251478   0.765   5.476   5.921 -0.0525 -0.5438 -0.4054
 9996TIP3    H151479   0.730   5.388   5.938  0.0766 -0.7239 -1.0363
 9996TIP3    H251480   0.687   5.532   5.916 -0.1471 -0.6552 -0.1828
 9997TIP3   OH251481   0.010   3.199  14.815 -0.5083  0.1186  0.3045
 9997TIP3    H151482   0.072   3.239  14.754  0.9493  0.4768  1.9331
 9997TIP3    H251483  -0.058   3.162  14.759 -0.0058  1.6696 -1.4624
 9998TIP3   OH251484   2.534   1.892   1.667 -0.3449  0.1940  0.9627
 9998TIP3    H151485   2.479   1.828   1.621 -0.8399 -0.8953  2.9319
 9998TIP3    H251486   2.501   1.977   1.637 -1.1260 -0.4425 -0.1009
 9999TIP3   OH251487   4.557   5.531  11.184 -0.3112 -0.8316  0.3678
 9999TIP3    H151488   4.463   5.537  11.168 -0.4948 -0.2751  1.4998
 9999TIP3    H251489   4.569   5.574  11.269  1.6364  3.4934 -1.8260
10000TIP3   OH251490   2.740   2.660   2.832 -0.5658 -0.4300  0.0322
10000TIP3    H151491   2.717   2.697   2.917  0.4122  0.1405  0.0620
10000TIP3    H251492   2.801   2.722   2.794  0.1858 -1.4194 -0.4318
10001TIP3   OH251493   2.412   4.643   3.709 -0.3078  0.4484  0.5007
10001TIP3    H151494   2.403   4.553   3.677  0.8560  0.4561  0.1076
10001TIP3    H251495   2.381   4.697   3.637  0.2174  0.3977  0.2345
10002TIP3   OH251496   4.668   1.915   3.228 -0.4518  0.0079 -0.1199
10002TIP3    H151497   4.667   1.981   3.158 -0.5308  1.9232  1.5861
10002TIP3    H251498   4.686   1.833   3.183 -1.2229  1.0366 -2.4763
10003TIP3   OH251499   0.097   2.322  12.778  0.1637  0.4185  0.0560
10003TIP3    H151500   0.087   2.268  12.856  0.9621 -0.0519 -0.1599
10003TIP3    H251501   0.190   2.317  12.757 -0.2852 -0.7667 -1.8577
10004TIP3   OH251502   0.630   5.623  15.038 -0.2564  0.2112  0.1932
10004TIP3    H151503   0.657   5.668  14.958  0.8704  2.1997  1.6257
10004TIP3    H251504   0.697   5.556  15.053 -0.1411  0.2464 -0.1671
10005TIP3   OH251505   2.606   1.608   5.638 -0.1745  0.0205  0.7403
10005TIP3    H151506   2.693   1.570   5.652  0.6758  1.0298 -1.3558
10005TIP3    H251507   2.622   1.686   5.584 -2.4867 -0.4177 -0.7220
10006TIP3   OH251508   1.833   4.284   2.116  0.6811  0.3530  0.2351
10006TIP3    H151509   1.900   4.280   2.048  0.8016  1.0211  0.3002
10006TIP3    H251510   1.752   4.303   2.069  0.6942  0.4202  0.2392
10007TIP3   OH251511   4.845   4.307  14.734 -0.7970 -0.5714 -0.2187
10007TIP3    H151512   4.830   4.332  14.825 -0.1282 -0.5462 -0.1135
10007TIP3    H251513   4.809   4.379  14.683  1.3259  0.7788  0.0797
10008TIP3   OH251514   3.646   4.453   2.917  0.0321 -0.1590 -0.5260
10008TIP3    H151515   3.712   4.507   2.875 -0.1878  0.7512  0.2691
10008TIP3    H251516   3.693   4.409   2.988 -0.0982  0.0839 -0.2881
10009TIP3   OH251517   2.210   6.087  12.019 -0.0953  0.1603 -0.0049
10009TIP3    H151518   2.132   6.037  11.994 -0.1242  0.0088  0.3775
10009TIP3    H251519   2.250   6.035  12.089  0.4688  0.1267 -0.3463
10010TIP3   OH251520   4.899   6.533  12.875  0.3723  0.3246  0.2680
10010TIP3    H151521   4.939   6.449  12.852 -0.2500  0.2019 -0.4021
10010TIP3    H251522   4.877   6.524  12.968  0.5539 -0.1512  0.2675
10011TIP3   OH251523   0.361   2.348   2.014  0.2270 -0.9264  0.1254
10011TIP3    H151524   0.293   2.410   2.039  1.5564  0.3415  0.7308
10011TIP3    H251525   0.387   2.374   1.926  0.2728 -1.0868  0.0910
10012TIP3   OH251526   1.354   3.396  13.822 -0.6154 -0.1148  0.4332
10012TIP3    H151527   1.331   3.465  13.885 -0.3011  0.9670 -0.5921
10012TIP3    H251528   1.446   3.376  13.840 -0.8825 -0.7165  1.1400
10013TIP3   OH251529   0.081   0.222   1.749  0.3623  0.5611  0.3310
10013TIP3    H151530   0.171   0.192   1.764 -0.6094 -1.7333  2.3809
10013TIP3    H251531   0.029   0.142   1.747 -1.6364  1.8017 -1.1687
10014TIP3   OH251532   3.386   1.754  16.468 -0.0500 -0.3712  0.2225
10014TIP3    H151533   3.403   1.778  16.377  0.3613  1.1879  0.6827
10014TIP3    H251534   3.332   1.825  16.502 -0.7433 -1.2574  1.0383
10015TIP3   OH251535   6.374   4.134   3.817  0.1085 -0.1428 -0.1718
10015TIP3    H151536   6.412   4.096   3.738 -0.1290 -0.0306 -0.3403
10015TIP3    H251537   6.332   4.060   3.862  2.2376 -0.6952  1.0567
10016TIP3   OH251538   3.761   0.741  15.562  0.2550 -0.7375 -0.1410
10016TIP3    H151539   3.666   0.749  15.557 -0.1805 -2.6172  2.5364
10016TIP3    H251540   3.780   0.656  15.521  0.3697 -1.6924  1.8034
10017TIP3   OH251541   5.570   4.782  14.310 -0.9409  0.3303 -0.2465
10017TIP3    H151542   5.604   4.749  14.393 -1.1120 -0.4898 -0.4989
10017TIP3    H251543   5.643   4.776  14.250 -0.9777  0.3892 -0.2965
10018TIP3   OH251544   4.982   1.379  15.805  0.1404 -0.1710  0.1837
10018TIP3    H151545   5.002   1.455  15.750  0.8783  0.0619  0.7579
10018TIP3    H251546   5.061   1.366  15.857 -1.0930  0.6046  2.3547
10019TIP3   OH251547   3.872   0.142   3.004  0.2965 -0.0797  0.4482
10019TIP3    H151548   3.790   0.190   3.015  0.3355  0.1916 -0.3688
10019TIP3    H251549   3.930   0.204   2.961  0.0548 -1.1417 -1.5067
10020TIP3   OH251550   3.369   2.134  14.370  0.5030  0.6722  0.0625
10020TIP3    H151551   3.298   2.109  14.312  1.3528 -1.7151 -0.0299
10020TIP3    H251552   3.339   2.106  14.457  1.0462  0.2559  0.1165
10021TIP3   OH251553   3.951   4.290   0.928 -0.1094  0.4623  0.6794
10021TIP3    H151554   4.027   4.324   0.975  0.1526  2.0892 -0.8104
10021TIP3    H251555   3.876   4.327   0.973  0.0954  0.9949  0.5948
10022TIP3   OH251556   3.930   0.683   1.056  0.2973  0.1966 -0.1282
10022TIP3    H151557   3.976   0.706   1.137 -1.3475 -0.2137  0.9724
10022TIP3    H251558   3.948   0.757   0.997  1.3579  0.6048  0.6570
10023TIP3   OH251559   6.469   2.819  13.327  0.4163  0.1067  0.0750
10023TIP3    H151560   6.500   2.733  13.356 -0.6022 -0.4670 -0.4662
10023TIP3    H251561   6.395   2.838  13.385  2.3759  1.9947  2.1442
10024TIP3   OH251562   2.358   4.326   5.980 -0.1718  0.2615 -0.3368
10024TIP3    H151563   2.413   4.403   5.994 -0.8808  0.7702 -0.2803
10024TIP3    H251564   2.373   4.272   6.058  0.7903  0.0464 -0.6572
10025TIP3   OH251565   6.444   6.520   1.383 -0.1866 -0.2111  0.4680
10025TIP3    H151566   6.504   6.490   1.315 -0.2886 -0.9975  0.7185
10025TIP3    H251567   6.436   6.615   1.368  1.0923 -0.0958  0.4242
10026TIP3   OH251568   4.177   0.194   4.095 -0.2631  0.1910  0.5334
10026TIP3    H151569   4.264   0.235   4.101 -0.1368 -0.2086  1.6608
10026TIP3    H251570   4.195   0.102   4.075 -0.3205 -0.2569  2.3688
10027TIP3   OH251571   3.256   2.460  17.089 -0.3164  0.1208  0.0656
10027TIP3    H151572   3.322   2.463  17.020  0.3946 -0.8086  0.6888
10027TIP3    H251573   3.254   2.369  17.117 -1.8104  0.1481  0.1301
10028TIP3   OH251574   0.948   4.344   3.099 -0.4140  0.3092  0.9203
10028TIP3    H151575   0.983   4.268   3.145 -2.2059 -0.5010  1.0155
10028TIP3    H251576   0.975   4.330   3.008 -0.1048 -0.0544  1.0619
10029TIP3   OH251577   4.400   2.008  10.405  0.4282 -0.0301 -0.5994
10029TIP3    H151578   4.396   2.103  10.398 -1.1817 -0.0623 -0.5452
10029TIP3    H251579   4.420   1.977  10.317  1.7431  0.3699 -0.4580
10030TIP3   OH251580   0.309   0.163   0.935 -0.6744 -0.2064  0.3477
10030TIP3    H151581   0.335   0.167   1.027  0.4622  0.0072  0.0284
10030TIP3    H251582   0.339   0.246   0.898 -1.9993  0.1425 -0.0154
10031TIP3   OH251583   5.625   3.447  14.298  0.6962 -0.2765  0.4288
10031TIP3    H151584   5.576   3.367  14.279  0.7122 -0.8210  2.4692
10031TIP3    H251585   5.582   3.514  14.245 -1.6386 -0.9484  1.3435
10032TIP3   OH251586   5.085   0.607   0.661  0.7541  0.0785  0.0618
10032TIP3    H151587   5.163   0.574   0.706  0.9346  1.3269  0.7350
10032TIP3    H251588   5.063   0.540   0.597  2.3517 -0.3208 -0.1019
10033TIP3   OH251589   0.494   2.660  17.049  0.0995  0.4076  0.4498
10033TIP3    H151590   0.482   2.664  17.143  1.0111  2.0212  0.5293
10033TIP3    H251591   0.406   2.650  17.013 -0.3794  1.0768  1.4225
10034TIP3   OH251592   4.968   5.868  10.331 -0.1880 -0.5117  0.3698
10034TIP3    H151593   5.053   5.910  10.316 -1.2285  0.9237 -2.0549
10034TIP3    H251594   4.985   5.775  10.320  0.6717 -0.0876 -2.8113
10035TIP3   OH251595   3.792   2.782   1.389 -0.1573  0.1789  0.9485
10035TIP3    H151596   3.804   2.714   1.324 -0.4675 -0.5881  1.6722
10035TIP3    H251597   3.782   2.735   1.472 -0.2614  1.1052  1.4814
10036TIP3   OH251598   3.306   5.458   1.717 -0.0034 -0.3501  0.0699
10036TIP3    H151599   3.377   5.398   1.695 -0.0576 -0.9159  1.3638
10036TIP3    H251600   3.235   5.436   1.656  0.3500 -0.8928 -0.1440
10037TIP3   OH251601   5.368   4.918  12.224  0.3017 -0.1506  0.9595
10037TIP3    H151602   5.346   4.903  12.316 -1.9901 -0.9678  0.3622
10037TIP3    H251603   5.284   4.909  12.178  1.2449  1.0075 -1.1309
10038TIP3   OH251604   5.528   6.805   4.472 -0.1282  0.0464  0.0919
10038TIP3    H151605   5.542   6.855   4.553 -0.9527  0.5205 -0.0396
10038TIP3    H251606   5.538   6.714   4.498  2.8471  0.2902  0.0417
10039TIP3   OH251607   2.548   1.026   5.939 -0.3231 -0.0905  0.0216
10039TIP3    H151608   2.583   0.937   5.944 -0.1017  0.0315  0.7425
10039TIP3    H251609   2.539   1.054   6.030 -1.4981  0.2012 -0.1652
10040TIP3   OH251610   6.732   5.847   0.315 -0.1607  0.0219  0.0181
10040TIP3    H151611   6.669   5.877   0.250 -0.0248  1.5890  0.5499
10040TIP3    H251612   6.808   5.904   0.302 -0.3458  0.7937  1.8842
10041TIP3   OH251613   4.203   3.797  11.289 -0.3035  0.0591 -0.0301
10041TIP3    H151614   4.276   3.833  11.239  1.5099  0.4474  2.6614
10041TIP3    H251615   4.222   3.704  11.296 -0.4208  0.0443  0.1023
10042TIP3   OH251616   0.623   2.314  12.246 -0.2148  0.2474  0.3674
10042TIP3    H151617   0.648   2.254  12.176  1.2818  3.2343 -1.8998
10042TIP3    H251618   0.535   2.342  12.224 -0.7901 -0.7984  1.2482
10043TIP3   OH251619   2.496   2.040  12.877  0.2761 -0.6386  0.0282
10043TIP3    H151620   2.519   1.982  12.805 -2.1770 -2.5709  0.6608
10043TIP3    H251621   2.427   2.097  12.840 -0.5406 -1.2168  0.6230
10044TIP3   OH251622   6.264   1.157  10.835 -0.1669 -0.0623  0.5102
10044TIP3    H151623   6.205   1.110  10.776 -2.6837  1.3673  1.7362
10044TIP3    H251624   6.347   1.158  10.789 -1.4056 -1.0378 -1.9338
10045TIP3   OH251625   3.058   1.489   2.646 -0.3524 -0.2492  0.1132
10045TIP3    H151626   3.068   1.584   2.649 -0.3315 -0.1901 -1.0935
10045TIP3    H251627   3.106   1.457   2.722 -3.1457  0.8679  2.4888
10046TIP3   OH251628   3.345   6.791  14.003  0.0259 -0.4971 -0.1031
10046TIP3    H151629   3.276   6.798  13.937  1.1443  0.5295 -1.2074
10046TIP3    H251630   3.398   6.870  13.991  2.2428 -1.9102 -0.2636
10047TIP3   OH251631   1.787   1.962  12.999  0.2601  0.4101 -0.1640
10047TIP3    H151632   1.877   1.932  13.011  0.1133  0.8424  2.6889
10047TIP3    H251633   1.796   2.052  12.967  0.9033  0.7060  0.7851
10048TIP3   OH251634   3.919   2.564   1.900  0.1617  0.3052  0.1769
10048TIP3    H151635   3.923   2.642   1.955  1.5747  0.6285 -0.3424
10048TIP3    H251636   3.991   2.509   1.931 -0.1579 -0.3094 -0.1615
10049TIP3   OH251637   0.945   0.548  15.836 -0.1603  0.5835  0.2662
10049TIP3    H151638   0.905   0.473  15.880 -2.1295  0.6736 -1.1942
10049TIP3    H251639   0.906   0.625  15.878  0.6540  0.7669  0.7050
10050TIP3   OH251640   1.245   3.617  14.503  0.6480 -0.2625 -0.2122
10050TIP3    H151641   1.242   3.536  14.452  0.2018  0.4452 -1.3227
10050TIP3    H251642   1.336   3.623  14.533  0.5405 -1.5024  0.4372
10051TIP3   OH251643   0.609   0.919   0.426 -0.4439  0.5714 -0.3633
10051TIP3    H151644   0.597   0.942   0.518 -0.9097  1.4126 -0.6296
10051TIP3    H251645   0.694   0.874   0.424  0.4083  2.0744  0.2129
10052TIP3   OH251646   4.135   1.817   4.456 -0.1068  0.3482  0.2695
10052TIP3    H151647   4.208   1.760   4.434 -0.2254  0.2451  0.1340
10052TIP3    H251648   4.070   1.759   4.496  0.0932  0.5321  0.8568
10053TIP3   OH251649   5.917   4.838   1.441  0.2664  0.2079 -0.2501
10053TIP3    H151650   5.933   4.924   1.403  0.1617  1.1010  1.6385
10053TIP3    H251651   5.860   4.855   1.516 -1.3903 -1.7462 -0.9842
10054TIP3   OH251652   5.876   4.272  13.878  0.0265 -0.4455 -0.2584
10054TIP3    H151653   5.856   4.217  13.802 -0.8004 -2.0858  1.1061
10054TIP3    H251654   5.970   4.292  13.868 -0.2494  0.1539 -2.1506
10055TIP3   OH251655   0.898   1.701  15.410  0.5391  0.4180  0.3634
10055TIP3    H151656   0.950   1.636  15.458  1.0790 -0.5606 -1.4233
10055TIP3    H251657   0.813   1.659  15.397  0.0917  1.0385  1.1947
10056TIP3   OH251658   1.525   4.426   0.114  0.1975  0.0162 -0.1964
10056TIP3    H151659   1.554   4.468   0.195  0.0168  1.8402 -1.0246
10056TIP3    H251660   1.606   4.412   0.064  0.3181 -1.1837  0.2996
10057TIP3   OH251661   1.788   1.481   5.508 -0.3219  0.1043 -0.2393
10057TIP3    H151662   1.697   1.465   5.482 -0.1461 -1.0819 -0.1966
10057TIP3    H251663   1.802   1.574   5.491 -1.4874  0.2613 -0.4170
10058TIP3   OH251664   4.966   6.334  16.446 -0.1175  0.1925 -0.1330
10058TIP3    H151665   5.057   6.337  16.474  0.0833  0.2494 -0.7823
10058TIP3    H251666   4.964   6.386  16.365 -0.8188  0.6139  0.1443
10059TIP3   OH251667   0.701   4.476  16.366 -0.0710  0.2710 -0.5319
10059TIP3    H151668   0.721   4.569  16.373  0.8619  0.0026  0.7843
10059TIP3    H251669   0.784   4.432  16.388 -0.8669 -0.8764  0.3107
10060TIP3   OH251670   6.094   0.584   3.910  0.2776 -0.5139 -0.6452
10060TIP3    H151671   6.144   0.565   3.831 -0.7752  1.9499 -2.0193
10060TIP3    H251672   6.153   0.638   3.963  0.1719 -0.1739 -0.8669
10061TIP3   OH251673   3.496   6.579  13.756  0.7890  0.0358 -0.1579
10061TIP3    H151674   3.490   6.502  13.699 -2.1879 -0.1008  0.1800
10061TIP3    H251675   3.453   6.649  13.707 -0.4806  0.2992  1.2660
10062TIP3   OH251676   3.996   2.812  16.723  0.2891  0.2664  0.6418
10062TIP3    H151677   4.091   2.813  16.724  0.3510  0.8303 -1.3732
10062TIP3    H251678   3.970   2.884  16.780  1.0514  0.1142  1.1980
10063TIP3   OH251679   6.210   4.531   1.148  0.3155  0.0041 -0.1137
10063TIP3    H151680   6.141   4.576   1.195  1.3165 -0.6628  2.1173
10063TIP3    H251681   6.188   4.438   1.156  0.4061 -0.1310 -1.1837
10064TIP3   OH251682   1.243   1.026  16.070  0.3374 -0.2691 -0.6077
10064TIP3    H151683   1.327   0.989  16.097 -0.4788 -2.4535 -0.8694
10064TIP3    H251684   1.199   0.955  16.022 -2.1557  0.3620  0.5592
10065TIP3   OH251685   2.490   2.279   3.284  0.3015 -0.4641  0.7387
10065TIP3    H151686   2.561   2.342   3.297 -0.4714  0.7460 -0.5957
10065TIP3    H251687   2.529   2.209   3.232  1.0488 -0.9151  1.8506
10066TIP3   OH251688   3.193   3.796  15.557 -0.1350  0.0282  0.7143
10066TIP3    H151689   3.269   3.758  15.603 -0.3006  2.3966  3.2170
10066TIP3    H251690   3.118   3.758  15.602 -0.3631  0.3933  0.6389
10067TIP3   OH251691   0.015   2.985  11.777 -0.4432 -0.9575 -0.6410
10067TIP3    H151692   0.031   3.053  11.842 -3.6870 -0.9187  0.2939
10067TIP3    H251693   0.066   3.012  11.701 -0.0083  1.4171  0.4023
10068TIP3   OH251694   0.192   0.526  14.685 -0.3507  0.4456 -0.0243
10068TIP3    H151695   0.099   0.501  14.683 -0.2729  0.1523 -1.7779
10068TIP3    H251696   0.223   0.509  14.596  1.1876  1.3447  0.3048
10069TIP3   OH251697   5.418   0.416   1.491  0.5133  0.1138 -0.5077
10069TIP3    H151698   5.367   0.458   1.561  0.5265  0.8940 -0.9604
10069TIP3    H251699   5.365   0.428   1.412  1.7470  1.6640 -1.1512
10070TIP3   OH251700   3.117   3.582  17.279 -0.0176  0.6552 -0.7252
10070TIP3    H151701   3.142   3.514  17.217  1.9519  0.4154  0.2403
10070TIP3    H251702   3.156   3.554  17.362  2.5636  3.8038 -0.6729
10071TIP3   OH251703   5.561   5.931  10.456  0.2640 -0.0672  0.4142
10071TIP3    H151704   5.538   6.024  10.465 -2.3652 -0.6914  1.2975
10071TIP3    H251705   5.651   5.931  10.425 -0.0812  2.7972 -0.9072
10072TIP3   OH251706   4.142   4.589   5.754  0.7838 -0.0719  0.2416
10072TIP3    H151707   4.109   4.599   5.665  2.4581 -1.2494 -0.5414
10072TIP3    H251708   4.141   4.678   5.790 -0.9694  0.2583 -0.5203
10073TIP3   OH251709   1.470   5.548  14.146 -0.8256 -0.1693  0.3907
10073TIP3    H151710   1.446   5.551  14.053 -0.4789 -1.5043  0.2302
10073TIP3    H251711   1.390   5.572  14.193 -1.2163 -0.2214 -0.2361
10074TIP3   OH251712   6.253   6.266   5.977  0.0496  0.2014 -0.9381
10074TIP3    H151713   6.252   6.333   6.045 -0.3919 -0.5571 -0.1842
10074TIP3    H251714   6.179   6.287   5.920  0.4579  0.8705 -1.2325
10075TIP3   OH251715   2.590   5.090  14.013  0.0243  0.1307 -0.4779
10075TIP3    H151716   2.563   5.007  14.053  1.1185 -0.8481 -1.7030
10075TIP3    H251717   2.511   5.143  14.013 -0.5367 -0.6446  0.9513
10076TIP3   OH251718   2.043   5.325  17.236 -0.0769  0.3704 -0.3436
10076TIP3    H151719   2.009   5.334  17.325  0.9792  0.0474  0.1116
10076TIP3    H251720   1.967   5.338  17.179 -1.2457 -1.6413  0.6581
10077TIP3   OH251721   6.177   6.760  12.916  0.2492  0.3013  0.2109
10077TIP3    H151722   6.240   6.802  12.858 -0.7685  1.5181 -0.0607
10077TIP3    H251723   6.220   6.758  13.001  0.6344  1.1908  0.0460
10078TIP3   OH251724   1.273   0.045  12.715  0.8522  0.0547 -0.0667
10078TIP3    H151725   1.299   0.014  12.802 -1.4482 -0.8185  0.3660
10078TIP3    H251726   1.290  -0.030  12.657 -1.5899 -0.9409  0.4116
10079TIP3   OH251727   3.271   3.010  14.564 -0.5603 -0.0853  0.0840
10079TIP3    H151728   3.313   2.927  14.541  0.6333  0.3329  0.6572
10079TIP3    H251729   3.267   3.010  14.659  0.4925  0.9766  0.1542
10080TIP3   OH251730   3.679   2.897  14.748 -0.0102  0.1717 -0.0025
10080TIP3    H151731   3.770   2.927  14.747 -0.2908  1.0384 -1.2474
10080TIP3    H251732   3.672   2.840  14.672 -0.6428  0.5573 -0.2356
10081TIP3   OH251733   0.203   1.401  13.722  0.2722 -0.0292  0.0009
10081TIP3    H151734   0.223   1.419  13.814  2.5913 -2.1076 -0.0110
10081TIP3    H251735   0.244   1.473  13.674  0.0678  0.4334  0.5080
10082TIP3   OH251736   0.701   1.174  12.652 -0.3592  0.2904 -0.1959
10082TIP3    H151737   0.688   1.080  12.649 -0.0422  0.1841  1.1360
10082TIP3    H251738   0.697   1.196  12.745  2.0005  1.2092 -0.2318
10083TIP3   OH251739   5.970   0.952   1.106  0.3461 -0.8668  0.0403
10083TIP3    H151740   5.952   0.918   1.194  0.3797 -1.8574 -0.3170
10083TIP3    H251741   5.884   0.971   1.070  0.0533 -3.3748 -0.8054
10084TIP3   OH251742   5.465   5.964  14.302 -0.1738 -0.4759  0.1107
10084TIP3    H151743   5.381   5.921  14.285 -0.4092  0.1902 -0.5115
10084TIP3    H251744   5.468   5.976  14.397 -0.9034 -0.2858  0.1163
10085TIP3   OH251745   6.348   2.453   4.093  0.5251  0.1477 -0.0051
10085TIP3    H151746   6.359   2.383   4.158 -1.1687  0.0924  0.2666
10085TIP3    H251747   6.430   2.452   4.043  0.4368 -2.2284 -0.2078
10086TIP3   OH251748   1.691   5.963  12.444 -1.2931  0.0449 -0.0694
10086TIP3    H151749   1.775   6.009  12.456 -0.0020 -1.2902 -2.9371
10086TIP3    H251750   1.631   6.032  12.415 -0.3536  0.5592 -0.8742
10087TIP3   OH251751   2.422   0.810  10.924  1.0695 -0.0229  0.7606
10087TIP3    H151752   2.332   0.778  10.915  0.9697 -0.3231  2.3622
10087TIP3    H251753   2.455   0.763  11.001  2.5254  0.2461  0.3139
10088TIP3   OH251754   3.333   3.010   3.017  0.2137  0.2126 -0.2337
10088TIP3    H151755   3.328   3.104   3.035  0.0388  0.1876 -0.1455
10088TIP3    H251756   3.273   2.970   3.080 -0.6905  0.1527 -1.0971
10089TIP3   OH251757   0.707   1.559   2.364 -0.3031  0.1393  0.0740
10089TIP3    H151758   0.794   1.576   2.329 -0.7596  1.3957 -0.5376
10089TIP3    H251759   0.706   1.603   2.449  0.1616 -1.2241  0.7988
10090TIP3   OH251760   4.861   0.208  13.665  0.7154  0.4290  0.0907
10090TIP3    H151761   4.830   0.158  13.590  1.9898 -0.4479  0.1142
10090TIP3    H251762   4.783   0.250  13.701 -0.2794 -1.0181 -0.3293
10091TIP3   OH251763   6.815   1.390  14.290 -0.5788 -0.3277  0.4910
10091TIP3    H151764   6.813   1.295  14.307 -2.2217 -0.4766 -0.2932
10091TIP3    H251765   6.723   1.413  14.276 -0.1342  1.2732  0.0351
10092TIP3   OH251766   5.208   4.626  16.397 -0.3196  0.5645  0.2572
10092TIP3    H151767   5.132   4.612  16.452 -0.8732  2.7528  0.1526
10092TIP3    H251768   5.273   4.665  16.455  0.9264 -1.6018  0.4288
10093TIP3   OH251769   4.487   4.088  16.859 -0.4101 -0.6435 -0.0019
10093TIP3    H151770   4.580   4.092  16.879 -0.8626  0.4326  2.1005
10093TIP3    H251771   4.473   4.159  16.796  0.2028 -0.9881 -0.5443
10094TIP3   OH251772   6.484   0.222   4.654  0.9779  0.1291  0.1584
10094TIP3    H151773   6.420   0.209   4.725  1.5075  0.3916  0.6932
10094TIP3    H251774   6.446   0.176   4.579  1.0703 -1.4197  1.0043
10095TIP3   OH251775   0.857   5.463  15.098  0.6663 -0.3509  0.1187
10095TIP3    H151776   0.920   5.491  15.165  0.8823  0.6749 -0.4918
10095TIP3    H251777   0.817   5.384  15.134  0.0817  0.6919  1.9148
10096TIP3   OH251778   2.913   0.632  14.322  0.4255 -0.2679  0.0133
10096TIP3    H151779   2.958   0.714  14.339  0.9185 -0.5926  0.2969
10096TIP3    H251780   2.972   0.564  14.355  0.6083 -0.8187 -1.3648
10097TIP3   OH251781   0.484   6.728   5.757 -0.6019  0.2086  0.1496
10097TIP3    H151782   0.404   6.685   5.785 -0.8322  0.9342  0.6301
10097TIP3    H251783   0.535   6.741   5.837 -0.3041  0.3490 -0.0585
10098TIP3   OH251784   4.303   3.987  11.767  0.6964  0.5627 -0.2081
10098TIP3    H151785   4.354   3.954  11.693  1.8392 -0.8680  1.1338
10098TIP3    H251786   4.217   3.946  11.758  0.8791  0.2771 -0.6630
10099TIP3   OH251787   1.712   2.850  17.270  0.0073 -0.3244  0.1488
10099TIP3    H151788   1.728   2.800  17.190 -0.8373 -1.0498  0.4156
10099TIP3    H251789   1.783   2.914  17.273  1.8892 -2.3181  0.4638
10100TIP3   OH251790   4.455   3.864  14.072  0.4681  0.2218 -0.5328
10100TIP3    H151791   4.397   3.859  14.147  0.8433  0.6646 -0.2071
10100TIP3    H251792   4.532   3.813  14.097  0.5114  0.2021 -0.6982
10101TIP3   OH251793   5.373   3.592   3.511 -0.0523 -0.3011  0.6018
10101TIP3    H151794   5.468   3.603   3.514 -0.1762  0.7205  1.8906
10101TIP3    H251795   5.348   3.571   3.602 -1.0411 -0.7823  0.2414
10102TIP3   OH251796   1.090   6.086   0.855 -0.2400 -0.0151 -0.4070
10102TIP3    H151797   1.104   6.176   0.883  1.3980 -0.5592  0.6512
10102TIP3    H251798   1.123   6.084   0.765 -1.7741  0.7815 -1.0287
10103TIP3   OH251799   0.281   6.392   0.963  0.6968  0.2788  0.3186
10103TIP3    H151800   0.294   6.333   1.037 -0.1824  0.4961  0.6537
10103TIP3    H251801   0.249   6.335   0.893  0.9755  0.1689  0.2784
10104TIP3   OH251802   3.600   0.801   3.324 -0.3075  0.2401 -0.3959
10104TIP3    H151803   3.532   0.734   3.314 -0.6404  0.6087 -0.6021
10104TIP3    H251804   3.674   0.753   3.360 -1.0169  0.0232  0.8543
10105TIP3   OH251805   2.627   3.657   0.722  0.3606  0.2289 -0.6714
10105TIP3    H151806   2.708   3.605   0.727  1.1805  1.5198 -0.1066
10105TIP3    H251807   2.595   3.642   0.633 -0.2570 -2.4127 -0.0954
10106TIP3   OH251808   3.070   0.700   4.742  0.0788  0.4569  0.3884
10106TIP3    H151809   3.087   0.614   4.704  0.7907  0.7428  0.0411
10106TIP3    H251810   2.997   0.686   4.803  0.2280 -0.3993  0.3758
10107TIP3   OH251811   1.537   3.437   4.774  0.4876  0.2575 -0.6207
10107TIP3    H151812   1.559   3.356   4.820 -1.0987  0.7404  1.0957
10107TIP3    H251813   1.480   3.409   4.703 -2.8570  0.0428  1.9294
10108TIP3   OH251814   4.301   0.600   0.852  0.1449  0.3586  0.0353
10108TIP3    H151815   4.393   0.619   0.834  0.2111 -2.0988 -2.9824
10108TIP3    H251816   4.254   0.635   0.777 -1.2453  0.3324  0.8566
10109TIP3   OH251817   4.380   1.031   3.417  0.2675  0.1331 -0.8869
10109TIP3    H151818   4.356   0.983   3.338  1.6899 -0.5221 -0.9684
10109TIP3    H251819   4.375   0.966   3.487 -0.4673  0.5764 -0.5169
10110TIP3   OH251820   6.368   1.397  15.222  0.3696 -0.1975 -0.6700
10110TIP3    H151821   6.347   1.305  15.238 -0.8114  0.2299  0.4261
10110TIP3    H251822   6.375   1.404  15.127  0.4235 -1.4050 -0.7697
10111TIP3   OH251823   4.457   0.380  12.443 -0.1819 -0.0408 -0.0587
10111TIP3    H151824   4.459   0.447  12.511 -1.6731  0.5048 -0.5282
10111TIP3    H251825   4.540   0.332  12.454 -0.6831 -0.4435  2.6109
10112TIP3   OH251826   4.935   0.719  14.637  0.3019 -0.6202  0.0868
10112TIP3    H151827   4.986   0.785  14.590  0.8559  1.7849  3.6414
10112TIP3    H251828   4.845   0.748  14.629  0.4254 -0.0453  0.6728
10113TIP3   OH251829   1.693   0.928   6.102 -0.0562  0.3283  0.2104
10113TIP3    H151830   1.624   0.876   6.143 -1.1584  0.8470 -0.8976
10113TIP3    H251831   1.652   1.013   6.086  1.0728  0.8815  0.1563
10114TIP3   OH251832   2.209   1.945   0.037  0.1608 -0.1343  0.0099
10114TIP3    H151833   2.273   1.999   0.083 -0.6992 -0.4660  1.6527
10114TIP3    H251834   2.249   1.858   0.034  0.2946 -0.0722 -0.0568
10115TIP3   OH251835   1.527   4.392   1.528 -0.7197  0.8032  0.0007
10115TIP3    H151836   1.462   4.402   1.597 -1.4833  3.2268 -0.9605
10115TIP3    H251837   1.478   4.359   1.453 -0.5920  1.4361 -0.3657
10116TIP3   OH251838   0.819   3.470  12.440 -0.0571 -0.2439  0.8625
10116TIP3    H151839   0.912   3.464  12.460  1.6377  3.2126 -3.9421
10116TIP3    H251840   0.796   3.561  12.457 -1.7604 -0.3555 -0.4839
10117TIP3   OH251841   6.538   6.422   1.758 -0.2225  0.5844  0.0344
10117TIP3    H151842   6.604   6.437   1.690  1.5113  1.1587  1.7314
10117TIP3    H251843   6.530   6.327   1.762  1.0084  0.4661  0.2028
10118TIP3   OH251844   2.760   2.346   5.408 -0.3402 -0.0099  0.1700
10118TIP3    H151845   2.726   2.388   5.328 -0.3555 -1.7174 -0.7698
10118TIP3    H251846   2.804   2.417   5.455 -1.6739  1.3940 -0.5718
10119TIP3   OH251847   4.337   1.902  16.596 -0.4827 -0.3463  0.4289
10119TIP3    H151848   4.319   1.814  16.562  0.8274 -0.4019 -0.1744
10119TIP3    H251849   4.268   1.957  16.558  0.2372 -0.6374 -1.3889
10120TIP3   OH251850   3.529   1.314   1.882 -0.4424  0.0399  0.3102
10120TIP3    H151851   3.612   1.306   1.837 -0.9784  1.2052 -0.9303
10120TIP3    H251852   3.517   1.229   1.925  1.5407 -0.0223  0.8502
10121TIP3   OH251853   0.186   3.854  14.488  0.2340  0.0530 -0.2338
10121TIP3    H151854   0.233   3.889  14.565  2.2134  1.3367 -1.9084
10121TIP3    H251855   0.175   3.930  14.431  1.3342 -1.3332 -2.4186
10122TIP3   OH251856   3.771   1.338  12.969  0.3999  0.3448  0.2477
10122TIP3    H151857   3.750   1.431  12.965  0.5126  0.3426 -0.7999
10122TIP3    H251858   3.864   1.333  12.946  0.9069  0.1159  2.1518
10123TIP3   OH251859   2.545   5.712   3.232 -0.1376 -0.0579 -0.2580
10123TIP3    H151860   2.457   5.743   3.212  0.2773  0.2156 -1.8815
10123TIP3    H251861   2.553   5.629   3.185  0.6725  0.2401 -0.6742
10124TIP3   OH251862   1.041   0.922   5.265  0.3942  0.2637 -0.0647
10124TIP3    H151863   0.954   0.948   5.295  1.1059  0.0343  2.3809
10124TIP3    H251864   1.037   0.826   5.259  0.3881  0.2782 -0.3339
10125TIP3   OH251865   1.022   1.006  13.195 -0.5626 -0.3326  0.6824
10125TIP3    H151866   1.008   0.974  13.284  0.5756  1.8887  1.7530
10125TIP3    H251867   1.081   1.081  13.205  2.0276 -1.7544 -2.2348
10126TIP3   OH251868   2.625   5.776   2.479 -0.2292  0.4560 -0.1875
10126TIP3    H151869   2.668   5.740   2.557 -0.0055  0.1126 -0.4636
10126TIP3    H251870   2.693   5.825   2.434 -0.7213  1.8880  0.5745
10127TIP3   OH251871   4.871   2.410  10.529  0.2810  0.5713 -0.4764
10127TIP3    H151872   4.920   2.488  10.556  0.0881  0.9329 -1.1355
10127TIP3    H251873   4.877   2.411  10.433 -0.8538  0.5254 -0.5608
10128TIP3   OH251874   3.495   5.760   0.757 -0.3733  0.2636 -0.5170
10128TIP3    H151875   3.579   5.806   0.757 -0.8157  1.0852 -0.3121
10128TIP3    H251876   3.431   5.827   0.780 -1.0987 -0.3375 -0.7524
10129TIP3   OH251877   3.817   2.899   0.485  0.2482  0.3079  0.6522
10129TIP3    H151878   3.831   2.820   0.536  2.6166 -0.4911 -1.0411
10129TIP3    H251879   3.904   2.939   0.477 -0.0957  0.7495 -2.0473
10130TIP3   OH251880   2.665   5.519  12.967  0.3473 -0.2672  0.2431
10130TIP3    H151881   2.581   5.485  12.937  0.4129 -1.2948  1.1561
10130TIP3    H251882   2.653   5.614  12.967 -0.7707 -0.3888  0.2103
10131TIP3   OH251883   2.152   1.998  17.055 -0.1044  0.3875  0.1415
10131TIP3    H151884   2.209   2.061  17.012  1.9135 -1.8520 -0.6425
10131TIP3    H251885   2.173   2.005  17.148  0.8498  0.1821 -0.0538
10132TIP3   OH251886   1.846   1.256   0.418 -0.2090 -0.0820  0.0969
10132TIP3    H151887   1.866   1.225   0.330  0.5219 -1.5793  0.7469
10132TIP3    H251888   1.784   1.327   0.405 -2.1381 -1.9310 -1.5235
10133TIP3   OH251889   4.184   6.169  12.844 -0.3087  0.2550  0.5449
10133TIP3    H151890   4.093   6.163  12.814  0.2185  0.1822 -1.1351
10133TIP3    H251891   4.233   6.195  12.766  1.1873 -0.1808  1.3080
10134TIP3   OH251892   0.119   3.136   4.964 -0.4350 -0.1277 -0.1333
10134TIP3    H151893   0.076   3.062   4.922 -0.7987  0.6863 -1.2424
10134TIP3    H251894   0.068   3.151   5.044  1.2891 -2.7784  1.6403
10135TIP3   OH251895   1.764   3.969  11.813  0.2982  0.3849  0.3316
10135TIP3    H151896   1.807   4.004  11.735 -1.1041 -1.3534 -1.3526
10135TIP3    H251897   1.819   3.895  11.839 -0.3286 -0.3574 -0.3709
10136TIP3   OH251898   1.912   3.934  14.317  0.1044 -0.2557  0.4545
10136TIP3    H151899   1.829   3.949  14.270  0.8813 -1.5952 -1.4666
10136TIP3    H251900   1.948   3.855  14.277  1.9909 -0.1070  1.7449
10137TIP3   OH251901   0.649   0.654   4.349  0.2089 -0.0430 -0.2087
10137TIP3    H151902   0.606   0.654   4.264 -1.1647 -0.1003  0.4464
10137TIP3    H251903   0.619   0.573   4.391  0.5186  0.1886  0.4826
10138TIP3   OH251904   6.077   2.250   1.383  0.2121 -0.0443  0.4096
10138TIP3    H151905   6.078   2.168   1.434  0.2717  0.4913  1.2972
10138TIP3    H251906   6.047   2.316   1.446  0.0138  0.5895 -0.3455
10139TIP3   OH251907   0.536   5.395  15.431 -0.2686  0.3637 -0.4883
10139TIP3    H151908   0.624   5.420  15.460  0.4393 -0.5665 -1.7658
10139TIP3    H251909   0.519   5.313  15.477 -0.6766  0.7807  0.1186
10140TIP3   OH251910   5.680   0.288   3.398 -0.0964  0.1785  0.0849
10140TIP3    H151911   5.727   0.217   3.355 -2.0316 -0.7584 -0.6328
10140TIP3    H251912   5.742   0.324   3.461  1.7631 -0.5027 -1.2857
10141TIP3   OH251913   2.628   2.990  13.207 -0.2563  0.0384  0.5831
10141TIP3    H151914   2.589   3.032  13.284  0.2669  0.7364  0.4755
10141TIP3    H251915   2.722   3.004  13.217  0.0156 -1.8401  0.9706
10142TIP3   OH251916   5.241   1.650  14.470 -0.3523 -0.3399  0.2047
10142TIP3    H151917   5.296   1.714  14.516 -1.6868 -0.2139  1.7096
10142TIP3    H251918   5.181   1.704  14.418 -0.8576 -0.3664  0.7429
10143TIP3   OH251919   2.122   4.931  13.089 -0.3365  0.2484  0.6227
10143TIP3    H151920   2.157   5.019  13.106 -0.3677  0.3156  0.3436
10143TIP3    H251921   2.050   4.945  13.027 -0.4151  0.0381  0.6660
10144TIP3   OH251922   2.259   4.860  11.349 -0.1682 -0.0312 -0.3410
10144TIP3    H151923   2.171   4.866  11.313 -0.0087 -1.4107 -1.0424
10144TIP3    H251924   2.245   4.836  11.441 -0.5379 -0.4363 -0.4950
10145TIP3   OH251925   2.258   3.163   6.038  0.2826 -0.8317 -0.4789
10145TIP3    H151926   2.337   3.199   6.079 -0.7660  0.9479  0.0722
10145TIP3    H251927   2.224   3.101   6.103 -1.6012  2.2631  1.8241
10146TIP3   OH251928   2.948   1.926   2.703 -0.1155  0.6940 -0.5302
10146TIP3    H151929   2.973   1.954   2.791  1.2332 -0.5867 -0.4641
10146TIP3    H251930   2.962   2.004   2.648 -0.2617  1.2885  0.2692
10147TIP3   OH251931   0.879   6.670  11.271  0.3072  0.2520 -0.1281
10147TIP3    H151932   0.873   6.669  11.175  1.9402  1.3970 -0.2691
10147TIP3    H251933   0.959   6.621  11.290  0.2845  0.5103  0.6300
10148TIP3   OH251934   6.252   4.786   3.222 -0.0170  0.3828 -0.0790
10148TIP3    H151935   6.311   4.857   3.247 -0.2905  0.4083  0.5070
10148TIP3    H251936   6.306   4.707   3.226 -0.3676  0.1936  1.9591
10149TIP3   OH251937   6.771   5.179   0.646 -0.9493  0.2865 -0.2952
10149TIP3    H151938   6.729   5.094   0.658  1.7854 -1.1237 -0.0588
10149TIP3    H251939   6.803   5.177   0.556  0.7600  0.2624  0.2930
10150TIP3   OH251940   3.241   1.973  16.542  0.1362  0.1510 -0.2505
10150TIP3    H151941   3.171   1.930  16.591  1.4293 -0.7445  0.8815
10150TIP3    H251942   3.207   2.060  16.524 -1.1339 -0.1465  0.5625
10151TIP3   OH251943   4.128   0.051   1.838 -0.4690 -0.5631 -0.7025
10151TIP3    H151944   4.134   0.142   1.867 -0.9962 -1.6186  3.3224
10151TIP3    H251945   4.069   0.053   1.763 -0.9203  2.3327 -0.3700
10152TIP3   OH251946   4.384   4.584   1.849 -0.5587  0.2578  0.3314
10152TIP3    H151947   4.352   4.495   1.838 -1.2365  0.5414 -0.0831
10152TIP3    H251948   4.328   4.637   1.791  0.0501  0.9010  0.3172
10153TIP3   OH251949   1.515   5.701  15.589  0.0911 -0.2276 -0.1624
10153TIP3    H151950   1.497   5.695  15.683  2.7377 -0.1853  0.4164
10153TIP3    H251951   1.478   5.619  15.554 -0.7004 -0.3760  0.9273
10154TIP3   OH251952   2.900   0.549  12.597  0.1200 -0.5132 -0.0067
10154TIP3    H151953   2.913   0.613  12.527 -3.0215 -0.0705 -0.3253
10154TIP3    H251954   2.958   0.579  12.667  1.2080  0.7031 -1.3369
10155TIP3   OH251955   6.253   1.224  13.670  0.6748  0.4410 -0.0559
10155TIP3    H151956   6.290   1.137  13.675  1.3153  0.6384 -1.0849
10155TIP3    H251957   6.281   1.268  13.750  3.7602  0.9812 -1.2952
10156TIP3   OH251958   3.399   1.912  12.016  0.0372  0.2962  0.0312
10156TIP3    H151959   3.346   1.930  12.093 -1.0570  1.4637 -0.9618
10156TIP3    H251960   3.375   1.823  11.990 -0.7807  0.4865  0.1150
10157TIP3   OH251961   2.718   3.522   4.973 -0.3692  0.3358 -0.3796
10157TIP3    H151962   2.626   3.515   4.947 -0.2986  0.6247 -0.7160
10157TIP3    H251963   2.765   3.539   4.892 -0.0401  0.3974 -0.1795
10158TIP3   OH251964   2.679   4.372  10.997 -0.3439 -0.1873  0.1238
10158TIP3    H151965   2.647   4.373  10.907 -2.7476  0.0787  0.9027
10158TIP3    H251966   2.644   4.290  11.034  0.6408 -0.3111  0.8233
10159TIP3   OH251967   0.400   2.069  13.050  0.2045  0.2413 -0.0383
10159TIP3    H151968   0.388   2.094  13.142 -0.5703 -3.6286  1.0770
10159TIP3    H251969   0.322   2.104  13.006  0.5558  2.1098  0.7330
10160TIP3   OH251970   3.138   4.935  11.628  0.1467 -0.1591  0.2972
10160TIP3    H151971   3.045   4.915  11.617  0.1503  0.5684 -1.3894
10160TIP3    H251972   3.151   4.934  11.722 -1.3825 -1.0871  0.5442
10161TIP3   OH251973   6.552   4.967   2.602  0.5621 -0.3223  0.1704
10161TIP3    H151974   6.583   5.052   2.570  1.1942 -0.4051  0.5515
10161TIP3    H251975   6.587   4.904   2.538 -0.3349 -0.2631 -0.4018
10162TIP3   OH251976   3.069   2.285  11.432  0.4281 -0.3679  0.1770
10162TIP3    H151977   3.139   2.229  11.398 -0.0218 -0.3971 -0.7503
10162TIP3    H251978   3.055   2.350  11.363 -1.8109 -1.5709 -0.5748
10163TIP3   OH251979   1.930   2.065  16.535 -0.1138  0.0284 -0.1137
10163TIP3    H151980   1.950   1.971  16.526  0.1868  0.1495 -0.7543
10163TIP3    H251981   1.998   2.109  16.485 -0.9019  0.5339 -0.7653
10164TIP3   OH251982   2.527   0.647   4.734  0.0700  0.0303  0.4882
10164TIP3    H151983   2.493   0.571   4.781 -1.1104  0.8856  1.0829
10164TIP3    H251984   2.485   0.643   4.648  1.0219 -0.6771  0.0321
10165TIP3   OH251985   1.618   5.115  15.761 -0.3957  0.1392 -0.0979
10165TIP3    H151986   1.643   5.143  15.673 -0.0565  1.9256  0.5239
10165TIP3    H251987   1.653   5.026  15.769 -1.1335 -0.3639 -2.0239
10166TIP3   OH251988   6.670   6.724  11.144  0.2264  0.0491 -0.1187
10166TIP3    H151989   6.579   6.710  11.121  0.6138  0.5625 -2.1851
10166TIP3    H251990   6.718   6.662  11.089  1.0683 -1.5458  2.2763
10167TIP3   OH251991   2.853   6.630   2.359  0.5539  0.6794 -0.5323
10167TIP3    H151992   2.793   6.691   2.403  1.2021  1.9396 -1.3296
10167TIP3    H251993   2.797   6.583   2.296  0.3731  1.9112 -1.3396
10168TIP3   OH251994   2.819   4.582  14.583  0.1334 -0.4482 -0.0842
10168TIP3    H151995   2.806   4.506  14.640 -0.5822 -0.6685 -0.5332
10168TIP3    H251996   2.904   4.568  14.543  0.3215 -0.6529  0.3835
10169TIP3   OH251997   1.924   3.735  15.707 -0.2478  0.1589  0.2847
10169TIP3    H151998   1.909   3.794  15.633  0.4894  0.2493  0.1932
10169TIP3    H251999   1.838   3.702  15.729 -0.3381 -0.9815 -1.5434
10170TIP3   OH252000   1.860   2.327   0.938 -0.5387  0.0009 -0.2299
10170TIP3    H152001   1.770   2.345   0.911 -0.4859  1.0281  0.2450
10170TIP3    H252002   1.905   2.411   0.929  0.5761 -0.6876 -1.2347
10171TIP3   OH252003   6.087   5.083   0.608 -0.1159  0.1058  0.5130
10171TIP3    H152004   6.157   5.025   0.578 -1.0830  0.4257 -2.7396
10171TIP3    H252005   6.133   5.155   0.651  1.4035 -0.7527  0.4187
10172TIP3   OH252006   4.447   1.678  11.451  0.3649  0.1494 -0.6072
10172TIP3    H152007   4.512   1.714  11.511  0.4108 -0.8913 -0.0129
10172TIP3    H252008   4.495   1.615  11.398 -0.4994 -2.1924  1.2320
10173TIP3   OH252009   6.674   4.175   1.087 -0.4528  0.2219 -0.8561
10173TIP3    H152010   6.766   4.153   1.073 -0.5110 -0.2988 -0.4470
10173TIP3    H252011   6.635   4.176   0.999 -0.2863 -0.6020 -0.9493
10174TIP3   OH252012   0.025   0.078   4.946 -0.2166  0.6043  0.7650
10174TIP3    H152013   0.019   0.044   5.035 -1.9234 -0.4730  0.3013
10174TIP3    H252014  -0.047   0.140   4.938 -0.6372  0.0386 -0.0948
10175TIP3   OH252015   0.278   4.789   6.347 -0.2894  0.1298  0.2782
10175TIP3    H152016   0.328   4.751   6.419  1.2583  1.0087 -0.3002
10175TIP3    H252017   0.243   4.713   6.300 -1.2044 -0.4626  1.8246
10176TIP3   OH252018   4.930   5.364   0.853  0.3147 -0.1052  0.3104
10176TIP3    H152019   4.974   5.431   0.800  0.9248 -1.6184 -1.2195
10176TIP3    H252020   4.840   5.366   0.822  0.6918 -1.0620 -0.9775
10177TIP3   OH252021   5.354   4.492   2.926 -0.4330  0.2057 -0.4805
10177TIP3    H152022   5.308   4.562   2.972  0.5156  0.6250 -0.1285
10177TIP3    H252023   5.402   4.537   2.856 -0.9402 -0.2782 -1.1484
10178TIP3   OH252024   5.753   3.851   3.503 -0.6552 -0.1107  0.2043
10178TIP3    H152025   5.729   3.897   3.422  0.5280  0.2042  0.0115
10178TIP3    H252026   5.716   3.905   3.573 -2.3156 -0.7691 -0.1190
10179TIP3   OH252027   3.349   6.178   3.190  0.3124 -0.2470  0.0965
10179TIP3    H152028   3.443   6.172   3.177  0.1953 -0.7492 -0.5887
10179TIP3    H252029   3.313   6.190   3.102 -0.1817  1.2085  0.4767
10180TIP3   OH252030   5.485   3.760  12.144 -0.1144 -0.2782  0.3867
10180TIP3    H152031   5.454   3.848  12.163  0.5514 -0.0057  0.2433
10180TIP3    H252032   5.562   3.748  12.201 -1.4317 -1.5701  1.9955
10181TIP3   OH252033   2.506   0.417  15.408  0.2554  0.5719  0.9554
10181TIP3    H152034   2.441   0.467  15.357  0.6033 -0.7163 -0.8576
10181TIP3    H252035   2.589   0.432  15.362  0.5975 -0.5388  1.1874
10182TIP3   OH252036   1.526   4.930  16.592  0.2284 -0.6642  0.2729
10182TIP3    H152037   1.516   5.024  16.574  0.1107 -0.4991  1.1718
10182TIP3    H252038   1.526   4.890  16.505 -1.3775 -0.0078 -0.0785
10183TIP3   OH252039   3.305   2.712  15.744  0.3205 -0.5919  0.2176
10183TIP3    H152040   3.307   2.693  15.838 -1.5691  0.3091  0.4889
10183TIP3    H252041   3.284   2.806  15.739 -0.0346 -0.7186 -1.1015
10184TIP3   OH252042   3.326   3.865   1.849 -0.2209 -0.1149 -0.0933
10184TIP3    H152043   3.314   3.829   1.761 -0.5038 -1.8357  0.6236
10184TIP3    H252044   3.291   3.799   1.907 -0.8208  1.3694  1.3084
10185TIP3   OH252045   0.704   3.095  14.047  0.5021 -0.3008 -0.1045
10185TIP3    H152046   0.642   3.034  14.007 -1.5668 -0.5352  3.1051
10185TIP3    H252047   0.664   3.181  14.034  1.1910 -0.0753 -0.8063
10186TIP3   OH252048   1.484   1.155   1.566 -0.4623  0.3490  0.3097
10186TIP3    H152049   1.441   1.131   1.648 -1.3169 -0.3012 -0.3244
10186TIP3    H252050   1.416   1.196   1.514  0.4352  2.2079  0.4976
10187TIP3   OH252051   3.881   0.727  14.872  0.1387 -0.7857 -0.1290
10187TIP3    H152052   3.883   0.819  14.845 -1.2187 -0.5084  0.6077
10187TIP3    H252053   3.806   0.690  14.825  0.4385 -1.4121 -0.1179
10188TIP3   OH252054   3.953   0.712   4.563 -0.8275 -0.3711 -0.3403
10188TIP3    H152055   4.043   0.687   4.584 -0.5698 -0.8253 -1.8413
10188TIP3    H252056   3.922   0.643   4.504 -1.5408  0.6856 -1.2484
10189TIP3   OH252057   2.568   4.656  15.158  0.4130  0.1655 -0.0411
10189TIP3    H152058   2.516   4.735  15.173  0.3861 -0.0338  1.0123
10189TIP3    H252059   2.547   4.629  15.069  0.3780  1.3104 -0.3912
10190TIP3   OH252060   1.512   5.950  13.399 -0.6791  0.2941 -0.1763
10190TIP3    H152061   1.492   6.042  13.385 -0.2487  0.4670  0.3183
10190TIP3    H252062   1.525   5.914  13.310 -1.9667  0.4366 -0.4415
10191TIP3   OH252063   3.108   2.383   0.035 -0.1891  0.0203  0.0034
10191TIP3    H152064   3.115   2.407  -0.057  0.3589  1.5571  0.4135
10191TIP3    H252065   3.190   2.415   0.074 -0.4161 -0.6034  1.0235
10192TIP3   OH252066   0.277   3.353   0.169 -0.1399  0.8428 -0.2251
10192TIP3    H152067   0.299   3.427   0.225 -2.7230  1.1936  0.4667
10192TIP3    H252068   0.222   3.298   0.224 -0.1418 -0.4294 -1.4656
10193TIP3   OH252069   2.728   0.533  14.588  0.3817  0.0537 -0.1487
10193TIP3    H152070   2.820   0.556  14.584  0.7897 -1.5419 -0.6326
10193TIP3    H252071   2.705   0.537  14.681  0.6159  1.5901 -0.1459
10194TIP3   OH252072   4.994   6.394  13.581  0.2465  0.1265 -0.7190
10194TIP3    H152073   4.952   6.448  13.648 -0.2542  2.5399 -2.8333
10194TIP3    H252074   5.082   6.430  13.573  0.2962 -0.1236 -1.3632
10195TIP3   OH252075   4.710   4.813   5.203  0.6227  0.1738 -0.9471
10195TIP3    H152076   4.635   4.809   5.263  1.8685  1.8716  0.8496
10195TIP3    H252077   4.686   4.881   5.140 -0.5430 -1.3838 -2.3209
10196TIP3   OH252078   0.566   5.606  12.186  1.2387 -0.4118 -0.3711
10196TIP3    H152079   0.490   5.620  12.243  1.2370 -0.5574 -0.3394
10196TIP3    H252080   0.611   5.530  12.223  0.9214 -0.8611 -0.8925
10197TIP3   OH252081   2.921   6.285   5.961  0.4291  0.1065 -0.0843
10197TIP3    H152082   2.875   6.266   6.043  1.5182  1.3774  0.8668
10197TIP3    H252083   2.994   6.224   5.959  1.2082  0.9829  0.6220
10198TIP3   OH252084   0.880   0.270  13.518  0.4410  0.1224  0.4899
10198TIP3    H152085   0.945   0.202  13.501  0.5397  0.8587 -2.7364
10198TIP3    H252086   0.804   0.244  13.466  0.4636  2.3510 -0.8068
10199TIP3   OH252087   6.477   4.423  15.206 -0.4820 -0.1040  0.1172
10199TIP3    H152088   6.548   4.374  15.165 -1.3233  0.0744 -1.6375
10199TIP3    H252089   6.458   4.374  15.287 -0.6038 -2.1046 -1.0482
10200TIP3   OH252090   0.826   5.910   2.712 -0.0089  0.2489  0.7061
10200TIP3    H152091   0.863   5.831   2.673 -0.4849  0.6726 -0.6641
10200TIP3    H252092   0.857   5.909   2.803 -0.2283 -1.6410  0.7920
10201TIP3   OH252093   3.247   4.276   5.773  0.4788  0.1722 -0.1614
10201TIP3    H152094   3.311   4.346   5.784  1.2766 -0.3442 -1.2906
10201TIP3    H252095   3.282   4.203   5.823  1.8811 -0.7682 -2.3557
10202TIP3   OH252096   1.936   0.734   4.578 -0.0190  0.2230 -0.4097
10202TIP3    H152097   1.909   0.823   4.600  0.5714  0.4940 -0.7441
10202TIP3    H252098   1.865   0.678   4.608  1.0972  0.4487  3.0945
10203TIP3   OH252099   1.141   3.459   5.931 -0.1587 -0.4617 -0.1659
10203TIP3    H152100   1.122   3.549   5.904  0.2657 -0.5582 -0.8081
10203TIP3    H252101   1.073   3.438   5.995 -0.1619  0.3729  0.1135
10204TIP3   OH252102   6.538   2.562  12.670 -0.1647 -0.0618 -0.6774
10204TIP3    H152103   6.633   2.572  12.672 -0.1417 -0.2309  1.3618
10204TIP3    H252104   6.523   2.470  12.693 -0.8179  0.5133  1.4901
10205TIP3   OH252105   1.847   4.489   1.846  0.3214  0.0748 -0.7818
10205TIP3    H152106   1.873   4.427   1.778 -0.4055 -0.5363 -0.5112
10205TIP3    H252107   1.793   4.554   1.800 -1.1903 -1.0053 -0.6009
10206TIP3   OH252108   1.318   0.039  17.125 -1.0892 -0.8308 -0.1610
10206TIP3    H152109   1.408   0.012  17.142 -1.7236 -3.3748 -0.4877
10206TIP3    H252110   1.304   0.021  17.032 -1.0451  2.5452 -0.9621
10207TIP3   OH252111   0.211   2.979  13.232 -0.1876 -0.0135 -0.4627
10207TIP3    H152112   0.173   2.919  13.297  1.1962 -0.1029  0.2877
10207TIP3    H252113   0.173   3.064  13.253 -1.9014 -0.5149 -1.3225
10208TIP3   OH252114   6.124   2.380   5.458 -0.1528  0.3592 -0.0497
10208TIP3    H152115   6.158   2.466   5.483 -0.0421 -0.2497  2.0547
10208TIP3    H252116   6.187   2.318   5.493 -0.2365 -0.6100 -1.5390
10209TIP3   OH252117   6.405   5.837   2.183 -0.9654 -0.5236  1.3135
10209TIP3    H152118   6.369   5.924   2.166 -1.6683 -0.7733  1.4554
10209TIP3    H252119   6.431   5.805   2.097 -0.9779 -0.2843  1.2191
10210TIP3   OH252120   4.573   5.948  13.379  0.1541 -0.0165 -0.5444
10210TIP3    H152121   4.558   5.878  13.444  0.9486 -0.5464 -0.9060
10210TIP3    H252122   4.647   5.997  13.415 -0.1230  0.3820 -0.5097
10211TIP3   OH252123   3.668   2.284   5.061  0.3558 -0.3853 -0.2596
10211TIP3    H152124   3.680   2.253   4.971  0.2001 -0.1878 -0.3499
10211TIP3    H252125   3.754   2.276   5.102 -0.2508 -3.9355  0.6706
10212TIP3   OH252126   1.360   2.743   1.387  0.0430  0.2557  0.3515
10212TIP3    H152127   1.357   2.649   1.368  0.0978 -0.1643  2.2764
10212TIP3    H252128   1.452   2.766   1.375 -0.2606  0.5515 -2.0332
10213TIP3   OH252129   3.688   1.079  12.946 -0.0163 -0.7998 -0.0718
10213TIP3    H152130   3.698   1.173  12.960  0.2185 -0.6321 -1.2348
10213TIP3    H252131   3.627   1.073  12.872 -0.9563 -1.5960  0.7477
10214TIP3   OH252132   4.081   5.622   2.682  0.5569 -0.3059  0.0730
10214TIP3    H152133   4.141   5.551   2.657  0.8151 -0.8703  2.0960
10214TIP3    H252134   3.993   5.584   2.672  0.6695 -0.6301  0.2868
10215TIP3   OH252135   5.597   0.010  14.731 -0.6433  0.1452  0.0632
10215TIP3    H152136   5.650  -0.069  14.742  0.8485  0.7704 -2.0104
10215TIP3    H252137   5.509  -0.016  14.759  0.1950 -1.6782  1.1669
10216TIP3   OH252138   2.225   2.051   4.919  0.1601 -0.2772 -0.4976
10216TIP3    H152139   2.262   2.041   4.831  1.1222  0.4908 -0.1969
10216TIP3    H252140   2.234   1.965   4.959  0.6144 -0.3792 -0.8155
10217TIP3   OH252141   3.689   2.933   5.574 -0.6360 -0.2485 -0.3464
10217TIP3    H152142   3.625   2.966   5.510 -1.6812 -0.5221  0.5256
10217TIP3    H252143   3.675   2.839   5.576 -2.2263 -0.0381  1.9004
10218TIP3   OH252144   0.841   3.196   5.469  0.0352  0.1314 -0.2506
10218TIP3    H152145   0.904   3.152   5.526  0.1617  0.5142 -0.0896
10218TIP3    H252146   0.887   3.204   5.385  0.1828  0.3535 -0.1512
10219TIP3   OH252147   5.665   3.644  12.808 -0.2260 -0.0850  0.7867
10219TIP3    H152148   5.687   3.730  12.845  1.5242 -0.3583  0.4907
10219TIP3    H252149   5.574   3.630  12.834 -0.3111  1.4998  1.5262
10220TIP3   OH252150   4.703   4.800   3.951 -0.0641  0.0508  0.1909
10220TIP3    H152151   4.767   4.741   3.911  0.1784  0.8828 -0.6978
10220TIP3    H252152   4.700   4.775   4.043 -1.4941 -2.7337 -0.4847
10221TIP3   OH252153   5.483   2.143  11.474  0.2493 -0.4935  0.2375
10221TIP3    H152154   5.479   2.095  11.391 -1.5516  2.0575 -1.3075
10221TIP3    H252155   5.576   2.159  11.488  0.5691 -0.4087 -1.6963
10222TIP3   OH252156   3.930   2.363   0.718 -0.9162 -0.0410 -0.0228
10222TIP3    H152157   3.912   2.398   0.805 -0.5366  0.5491 -0.1755
10222TIP3    H252158   4.023   2.382   0.703 -0.9092 -0.3887 -0.4438
10223TIP3   OH252159   1.287   3.116  16.512 -0.3795 -0.1802 -0.1056
10223TIP3    H152160   1.317   3.121  16.603 -1.3093 -0.0949  0.2056
10223TIP3    H252161   1.207   3.064  16.516  1.9304 -4.2333 -1.5019
10224TIP3   OH252162   3.308   5.374   2.233 -0.0637 -0.0256 -0.3773
10224TIP3    H152163   3.301   5.283   2.203 -0.4958 -0.4756  1.0100
10224TIP3    H252164   3.305   5.425   2.152 -0.8635 -1.1918 -1.1331
10225TIP3   OH252165   0.992   0.442  11.667  0.0424  0.3186  0.0238
10225TIP3    H152166   1.057   0.376  11.645 -0.8468 -0.1982 -1.1499
10225TIP3    H252167   0.929   0.397  11.723  0.0733  0.4887  0.1943
10226TIP3   OH252168   4.304   3.657  10.885 -0.2541 -0.2508  0.4811
10226TIP3    H152169   4.283   3.745  10.917 -0.1620 -0.2187  0.4568
10226TIP3    H252170   4.224   3.626  10.844 -0.1324  0.0362  0.0149
10227TIP3   OH252171   5.491   6.265  16.704  0.3849 -0.1923 -0.4819
10227TIP3    H152172   5.450   6.334  16.652  0.3016 -1.3690 -2.0634
10227TIP3    H252173   5.539   6.212  16.640 -2.2544 -3.5486  0.0499
10228TIP3   OH252174   6.000   5.371   1.274 -0.0900 -0.1692 -0.6354
10228TIP3    H152175   6.015   5.396   1.183  0.6767 -0.1794 -0.5210
10228TIP3    H252176   6.088   5.366   1.312 -0.4304  0.3886  0.2513
10229TIP3   OH252177   5.016   2.335  12.936  0.3194  0.6727  0.0051
10229TIP3    H152178   4.991   2.256  12.887 -0.8561  1.1255 -0.1700
10229TIP3    H252179   4.975   2.324  13.022  1.2680  0.4953  0.4486
10230TIP3   OH252180   0.564   1.296  12.870 -0.3371 -0.2009  0.3616
10230TIP3    H152181   0.603   1.382  12.856  1.1837 -0.8537  0.3603
10230TIP3    H252182   0.535   1.297  12.961  1.1834 -0.2192  0.8773
10231TIP3   OH252183   3.808   4.648   4.293  0.5938 -0.6474 -0.2927
10231TIP3    H152184   3.792   4.593   4.216 -1.4282 -0.4371 -0.0826
10231TIP3    H252185   3.902   4.644   4.307  0.8348 -1.7261 -2.0100
10232TIP3   OH252186   6.411   3.051   0.921 -0.3663  0.4012 -0.2153
10232TIP3    H152187   6.473   3.018   0.856  0.2121 -0.7705  0.8818
10232TIP3    H252188   6.331   3.000   0.905 -1.1536  2.0018 -1.7140
10233TIP3   OH252189   1.976   0.861   2.069 -0.0349 -0.5860  0.0021
10233TIP3    H152190   1.899   0.810   2.094 -1.1042 -0.5480 -2.8287
10233TIP3    H252191   1.946   0.914   1.995  2.6433 -0.3474 -1.0179
10234TIP3   OH252192   3.121   3.882   1.372 -0.1261 -0.7308 -0.2568
10234TIP3    H152193   3.145   3.975   1.380 -1.5429 -0.4615  1.3553
10234TIP3    H252194   3.076   3.862   1.454  0.8498 -3.0875 -0.2168
10235TIP3   OH252195   1.060   4.680  14.586 -0.7409  0.2809 -0.0025
10235TIP3    H152196   1.151   4.688  14.615 -0.9651  1.8370  0.3613
10235TIP3    H252197   1.061   4.606  14.525  0.8565  0.5515 -0.3587
10236TIP3   OH252198   6.399   2.168   4.844 -0.1146  0.1408 -0.1986
10236TIP3    H152199   6.451   2.227   4.899 -0.6505  0.1279  0.3241
10236TIP3    H252200   6.341   2.226   4.795 -0.1216  0.1020 -0.2364
10237TIP3   OH252201   5.096   6.503  11.572 -0.6145 -0.5599  0.2911
10237TIP3    H152202   5.173   6.495  11.628 -0.6116  1.2882  0.5974
10237TIP3    H252203   5.131   6.503  11.483 -0.3822 -0.7832  0.3798
10238TIP3   OH252204   3.106   2.098   3.582 -0.2705 -0.3454  0.2110
10238TIP3    H152205   3.040   2.030   3.590 -0.4650 -0.0255  1.5199
10238TIP3    H252206   3.116   2.110   3.488 -1.4316 -1.0183 -0.0216
10239TIP3   OH252207   4.125   1.159  15.852  0.3233 -0.0689  0.3642
10239TIP3    H152208   4.187   1.175  15.923  0.5276 -0.1221  0.2000
10239TIP3    H252209   4.134   1.236  15.796 -0.0067  0.0814  0.5176
10240TIP3   OH252210   4.255   0.237  12.538  0.0847  0.1325  0.2839
10240TIP3    H152211   4.332   0.293  12.551  0.8794 -0.9561  0.3856
10240TIP3    H252212   4.272   0.193  12.455 -0.9215  0.6373 -0.2013
10241TIP3   OH252213   0.536   6.353  11.470  0.5850  0.5103  0.0759
10241TIP3    H152214   0.591   6.343  11.548  0.3582  0.5484  0.2428
10241TIP3    H252215   0.596   6.386  11.403  0.4078  2.3793  0.7638
10242TIP3   OH252216   3.456   1.510  14.672  0.1356 -0.4234 -0.0600
10242TIP3    H152217   3.545   1.515  14.707  0.5952 -1.4798 -1.0146
10242TIP3    H252218   3.457   1.433  14.615 -1.0150  0.3113 -1.1365
10243TIP3   OH252219   4.606   0.292  11.791 -0.6285 -0.6549  0.2540
10243TIP3    H152220   4.591   0.239  11.870 -0.4662 -0.7593  0.2154
10243TIP3    H252221   4.593   0.382  11.820 -3.8408 -0.8129 -0.3139
10244TIP3   OH252222   2.081   4.784   3.822  0.0380 -0.0312  0.6161
10244TIP3    H152223   2.000   4.734   3.833  0.7829 -2.5446 -3.3738
10244TIP3    H252224   2.136   4.758   3.896 -2.2082  0.7168  2.6558
10245TIP3   OH252225   4.479   6.592   5.902  0.4175  0.2665  0.1455
10245TIP3    H152226   4.435   6.674   5.921 -0.3190 -0.0735 -0.0693
10245TIP3    H252227   4.485   6.547   5.986  1.2354  0.7269  0.3471
10246TIP3   OH252228   0.368   2.446  11.395 -0.0654 -0.3724  0.4389
10246TIP3    H152229   0.432   2.406  11.454 -0.0322  0.2456  0.8260
10246TIP3    H252230   0.328   2.371  11.349 -1.2096 -1.0259  2.3506
10247TIP3   OH252231   5.375   2.675  10.659  0.2709 -0.0967  0.6548
10247TIP3    H152232   5.451   2.683  10.717 -0.6416 -0.1723  1.8969
10247TIP3    H252233   5.320   2.750  10.682 -0.5953 -0.7158  0.6389
10248TIP3   OH252234   2.192   6.012  11.549  0.3011 -0.5474  0.3419
10248TIP3    H152235   2.199   6.092  11.602  0.6877 -0.2965 -0.0789
10248TIP3    H252236   2.111   6.023  11.500  1.6170  0.8358 -1.6900
10249TIP3   OH252237   2.980   0.705  16.975 -0.3220  0.0931 -0.1157
10249TIP3    H152238   2.968   0.758  17.054 -0.7156 -1.2383  0.7487
10249TIP3    H252239   3.042   0.755  16.922  1.2089  0.2884  1.7500
10250TIP3   OH252240   1.411   4.985   2.562  0.2137 -0.1182 -0.0466
10250TIP3    H152241   1.501   5.013   2.574  0.8349 -2.1376  0.3411
10250TIP3    H252242   1.375   4.980   2.650 -0.6121  1.5579 -0.2453
10251TIP3   OH252243   1.057   5.155  10.552 -0.0460  0.5080 -0.1089
10251TIP3    H152244   0.996   5.229  10.552 -0.0135  0.5352  0.0372
10251TIP3    H252245   1.120   5.177  10.621 -0.0992  0.2912  0.0084
10252TIP3   OH252246   6.170   0.443   6.432 -0.1488  1.2058 -0.4208
10252TIP3    H152247   6.171   0.525   6.482  1.1112  0.5723  0.6105
10252TIP3    H252248   6.116   0.384   6.484 -0.9700  1.3122 -1.1166
10253TIP3   OH252249   0.383   0.346   1.318 -0.1019 -0.0726  0.4965
10253TIP3    H152250   0.305   0.322   1.367  0.3315  0.8711  1.7107
10253TIP3    H252251   0.417   0.264   1.284 -1.4466 -0.5278  0.2056
10254TIP3   OH252252   0.654   4.127   1.107 -0.2927  0.7920  0.7278
10254TIP3    H152253   0.677   4.046   1.060  1.5305  1.0665  1.0650
10254TIP3    H252254   0.585   4.167   1.054 -1.4305 -1.1004  0.6983
10255TIP3   OH252255   4.403   4.326   4.953  0.1206  0.3216 -0.1120
10255TIP3    H152256   4.464   4.392   4.919  0.2327  0.7654  0.9232
10255TIP3    H252257   4.363   4.367   5.030 -2.7223  0.6780 -1.6399
10256TIP3   OH252258   2.996   6.231   1.929  0.0193 -0.4921 -0.5302
10256TIP3    H152259   2.903   6.224   1.908 -0.5834  1.1264  1.3315
10256TIP3    H252260   3.009   6.324   1.947  1.6967 -0.9165  0.6283
10257TIP3   OH252261   3.817   6.608  14.437 -0.4174 -0.1253 -0.4020
10257TIP3    H152262   3.841   6.524  14.475  0.5813 -0.5816 -1.9353
10257TIP3    H252263   3.839   6.600  14.344 -0.9685  1.5853 -0.7317
10258TIP3   OH252264   4.349   3.009  12.485  0.1515  0.0770 -0.1760
10258TIP3    H152265   4.343   3.078  12.419 -2.0719  1.5629  1.4423
10258TIP3    H252266   4.405   3.045  12.554  1.2296 -0.8730 -0.5159
10259TIP3   OH252267   4.398   6.307  14.122 -0.0631  0.2321  0.2191
10259TIP3    H152268   4.305   6.328  14.131 -0.2342 -0.4344  0.0450
10259TIP3    H252269   4.442   6.370  14.178 -0.7318 -0.4610  1.5816
10260TIP3   OH252270   4.165   5.932   3.123  0.0179 -0.0415 -0.2010
10260TIP3    H152271   4.131   5.843   3.125 -2.8165  0.9414  0.7220
10260TIP3    H252272   4.145   5.963   3.035  1.6511 -0.4877 -0.7612
10261TIP3   OH252273   1.719   0.090  14.972  0.2564 -0.2162 -0.3199
10261TIP3    H152274   1.762   0.175  14.962  0.4830 -0.3221 -0.2556
10261TIP3    H252275   1.652   0.088  14.904 -0.0908  0.2257  0.0069
10262TIP3   OH252276   4.564   2.018  16.246 -0.0947 -0.5359  0.6050
10262TIP3    H152277   4.528   2.050  16.329  1.4051 -0.4268  1.2528
10262TIP3    H252278   4.549   1.923  16.248 -1.7134 -0.3174  0.1266
10263TIP3   OH252279   2.468   5.882   0.137 -0.7636 -0.0037  0.0638
10263TIP3    H152280   2.522   5.936   0.195  0.0032  0.8449 -1.3689
10263TIP3    H252281   2.379   5.916   0.147 -0.3356  1.4100 -0.6300
10264TIP3   OH252282   1.882   5.139   1.797 -0.5649  0.3488 -0.0533
10264TIP3    H152283   1.914   5.178   1.878 -0.3859 -1.2082  0.6695
10264TIP3    H252284   1.961   5.111   1.751 -0.7300 -0.1946 -0.0106
10265TIP3   OH252285   0.264   6.211   0.472  0.0080  0.0998 -0.4626
10265TIP3    H152286   0.358   6.199   0.487 -0.2593 -0.3232  1.0315
10265TIP3    H252287   0.257   6.301   0.439  0.8159  0.6666  0.8100
10266TIP3   OH252288   6.079   6.039  12.037 -0.6038  0.5797  0.2696
10266TIP3    H152289   6.159   6.012  11.992 -0.9106  1.5144 -0.8897
10266TIP3    H252290   6.070   5.977  12.109  0.1724 -0.6785 -0.6748
10267TIP3   OH252291   0.312   6.619  16.716 -0.6944  0.5223 -0.0963
10267TIP3    H152292   0.336   6.531  16.684  0.2042  0.6347  0.2273
10267TIP3    H252293   0.218   6.625  16.700 -0.3533  0.4874 -2.5079
10268TIP3   OH252294   5.128   5.220  12.420 -0.2844  0.0935  0.0919
10268TIP3    H152295   5.110   5.148  12.480 -2.1770  1.2369  0.9912
10268TIP3    H252296   5.093   5.190  12.336 -2.5278  0.5102  0.8176
10269TIP3   OH252297   0.593   3.076   5.525 -0.4407  0.1082 -0.7613
10269TIP3    H152298   0.675   3.126   5.525 -1.2138  1.4713  0.3908
10269TIP3    H252299   0.526   3.141   5.506 -1.2719 -1.0322 -1.9296
10270TIP3   OH252300   0.656   0.921   1.797 -0.2950  0.0169  0.0045
10270TIP3    H152301   0.586   0.898   1.736  0.2571 -0.6531 -0.3962
10270TIP3    H252302   0.715   0.846   1.794  1.7877  1.5818 -1.6116
10271TIP3   OH252303   6.052   6.753  11.768  0.7998  0.0261  0.1095
10271TIP3    H152304   5.993   6.742  11.842 -0.0964  1.3486 -0.3698
10271TIP3    H252305   6.139   6.730  11.802  0.3915  0.5167  1.5381
10272TIP3   OH252306   1.543   2.059   1.221  0.2092  0.0391  0.1600
10272TIP3    H152307   1.574   2.008   1.297 -0.5432 -2.4054 -1.0602
10272TIP3    H252308   1.611   2.046   1.155 -1.0084 -1.2461 -0.8868
10273TIP3   OH252309   5.821   4.599  14.959  0.0534 -0.0462 -0.4706
10273TIP3    H152310   5.754   4.563  14.901 -0.2452 -2.1888  1.0968
10273TIP3    H252311   5.777   4.670  15.005 -0.9825 -1.0376  0.1026
10274TIP3   OH252312   4.994   4.567   4.094 -0.7453  0.1682 -0.2781
10274TIP3    H152313   4.988   4.652   4.139  2.1183 -0.0436  0.7017
10274TIP3    H252314   4.990   4.589   4.001  0.8168  1.5322 -0.0717
10275TIP3   OH252315   3.669   5.115  12.530  0.1673 -0.3120 -0.1736
10275TIP3    H152316   3.639   5.166  12.455  0.1822  0.2593  0.1990
10275TIP3    H252317   3.765   5.120  12.526  0.2288  2.4360  1.6268
10276TIP3   OH252318   2.818   3.224   4.995  0.0696 -0.0586 -0.2166
10276TIP3    H152319   2.853   3.203   4.908  1.3038 -1.0201  0.4908
10276TIP3    H252320   2.808   3.319   4.994 -0.6005 -0.1143 -1.6375
10277TIP3   OH252321   2.621   2.682   3.464  0.2763  0.3689  0.1470
10277TIP3    H152322   2.534   2.678   3.504  0.2583  0.2198  0.0927
10277TIP3    H252323   2.682   2.681   3.538  0.2447  0.0359  0.1727
10278TIP3   OH252324   2.454   3.514  11.404  0.7402  0.0557 -0.5375
10278TIP3    H152325   2.454   3.541  11.495  2.0118  0.8651 -0.7475
10278TIP3    H252326   2.366   3.534  11.372  0.8827  1.6197 -0.0046
10279TIP3   OH252327   4.779   2.072  11.414  0.6071  0.5811 -0.6323
10279TIP3    H152328   4.841   2.144  11.399  0.6844  0.3375 -1.5040
10279TIP3    H252329   4.832   2.005  11.458  0.9967  0.3413 -1.4459
10280TIP3   OH252330   5.343   0.189   3.516 -0.2950  0.1531 -0.3594
10280TIP3    H152331   5.308   0.104   3.543  0.7692 -0.8966 -2.0600
10280TIP3    H252332   5.273   0.251   3.535 -1.6614 -1.3129 -0.3655
10281TIP3   OH252333   3.315   4.460   4.377  0.4857 -0.5980 -0.1299
10281TIP3    H152334   3.285   4.511   4.452  1.1088 -1.6448  0.8707
10281TIP3    H252335   3.409   4.448   4.391  1.0154  0.7523 -2.0655
10282TIP3   OH252336   5.643   2.390  16.936  0.2910  0.6659 -0.6102
10282TIP3    H152337   5.699   2.466  16.949  0.3997  0.6902 -1.1767
10282TIP3    H252338   5.648   2.342  17.018  2.2095 -0.0414 -1.0858
10283TIP3   OH252339   2.513   5.222   1.195  0.6712  0.4588 -0.7113
10283TIP3    H152340   2.605   5.194   1.192  0.5245 -0.1149 -0.1602
10283TIP3    H252341   2.468   5.162   1.135  0.3862 -0.3986  0.3260
10284TIP3   OH252342   6.594   4.916   2.875 -0.0654  0.0522  0.6147
10284TIP3    H152343   6.543   4.993   2.897  0.3972  0.5558 -0.0615
10284TIP3    H252344   6.553   4.881   2.797 -1.6013 -1.6411  2.0857
10285TIP3   OH252345   1.662   5.980   2.525 -0.0177 -0.1502 -0.1068
10285TIP3    H152346   1.586   5.923   2.516  0.7030 -0.9095 -1.7993
10285TIP3    H252347   1.685   6.004   2.435  2.1612 -0.5371  0.2955
10286TIP3   OH252348   4.922   4.634   3.541 -0.4181  0.0771  0.2105
10286TIP3    H152349   5.011   4.657   3.567 -0.6040  0.9892  0.0560
10286TIP3    H252350   4.932   4.550   3.496  0.3336  0.0701  0.3698
10287TIP3   OH252351   3.280   6.489  15.937  0.0366 -0.3183  0.3437
10287TIP3    H152352   3.350   6.488  16.002  1.5285 -0.7008 -1.1993
10287TIP3    H252353   3.289   6.407  15.889  0.4768  0.9153 -1.8374
10288TIP3   OH252354   0.793   3.734  14.452 -0.0956  0.4133  0.2196
10288TIP3    H152355   0.709   3.743  14.497 -0.5889  0.4387 -0.6910
10288TIP3    H252356   0.800   3.811  14.396 -0.1291 -0.2912 -0.7773
10289TIP3   OH252357   0.244   0.220   4.839  0.3604 -0.2445 -0.4702
10289TIP3    H152358   0.198   0.158   4.897  2.1421 -1.3622 -0.1704
10289TIP3    H252359   0.260   0.297   4.894 -1.2677  0.2617 -0.6423
10290TIP3   OH252360   5.411   0.778   1.091  0.3416  0.8372  0.0455
10290TIP3    H152361   5.486   0.728   1.124 -1.3100 -0.2725  2.3639
10290TIP3    H252362   5.392   0.842   1.159 -0.5373  1.4247 -0.7201
10291TIP3   OH252363   3.803   2.988   2.942 -0.5839  0.1974 -0.4020
10291TIP3    H152364   3.813   3.020   3.031  2.7256 -0.9278 -0.2381
10291TIP3    H252365   3.717   2.945   2.942 -0.2905 -0.6444  2.5665
10292TIP3   OH252366   3.565   3.179  10.669  0.2890  0.1274  0.0972
10292TIP3    H152367   3.501   3.209  10.604  0.2481  0.9545  0.5183
10292TIP3    H252368   3.645   3.229  10.650 -0.1722  1.5142  1.6384
10293TIP3   OH252369   4.605   6.409  12.536  0.2503 -0.2649  0.0843
10293TIP3    H152370   4.570   6.377  12.620  0.9603 -1.6027 -0.0926
10293TIP3    H252371   4.547   6.371  12.470  1.0728 -1.1992 -0.1287
10294TIP3   OH252372   3.896   4.797  12.519  0.0408  0.2667  0.3203
10294TIP3    H152373   3.903   4.883  12.562  1.7304  0.2181  0.2114
10294TIP3    H252374   3.885   4.818  12.427 -0.8952  0.3626  0.4482
10295TIP3   OH252375   0.472   1.090  16.511  0.3707 -0.5049 -0.2084
10295TIP3    H152376   0.469   0.995  16.524 -1.4652 -0.4455  0.1396
10295TIP3    H252377   0.433   1.127  16.591 -0.4192  0.4353 -0.9869
10296TIP3   OH252378   0.725   3.754  14.031 -0.0037 -0.1846 -0.5066
10296TIP3    H152379   0.682   3.692  14.090  0.7364  2.9956  3.8993
10296TIP3    H252380   0.691   3.733  13.944 -1.6198 -5.0002  0.9826
10297TIP3   OH252381   6.476   5.983  15.408  0.3377 -0.3246 -0.5939
10297TIP3    H152382   6.404   6.038  15.378 -0.9035 -2.4038 -1.6894
10297TIP3    H252383   6.451   5.958  15.497 -0.2178 -0.8118 -0.8709
10298TIP3   OH252384   1.107   2.954   6.505 -0.1887  0.6600 -0.3157
10298TIP3    H152385   1.130   2.892   6.574  0.3836  1.9349  0.6853
10298TIP3    H252386   1.158   2.926   6.430  0.3147  0.1107  0.2205
10299TIP3   OH252387   6.316   3.164  14.629  0.1806 -0.1165 -0.3943
10299TIP3    H152388   6.277   3.077  14.634 -0.6763  0.3341  3.0351
10299TIP3    H252389   6.246   3.224  14.652  1.5386  1.1773  0.6048
10300TIP3   OH252390   6.000   2.212   2.371  0.0359  0.9408 -0.1221
10300TIP3    H152391   5.915   2.248   2.347 -0.3995 -1.3938 -2.4946
10300TIP3    H252392   5.980   2.144   2.435  0.2354  1.0377  0.0466
10301TIP3   OH252393   5.905   0.722   0.219  0.2919  0.3351  0.1935
10301TIP3    H152394   5.829   0.685   0.264 -0.5000  1.5967 -0.0427
10301TIP3    H252395   5.877   0.727   0.127  0.4242  1.3926  0.2074
10302TIP3   OH252396   5.647   3.352  16.490 -0.0367 -0.0363  0.3818
10302TIP3    H152397   5.657   3.361  16.584  1.6085  1.2970  0.1392
10302TIP3    H252398   5.567   3.400  16.469 -1.1472 -1.4687  1.2129
10303TIP3   OH252399   3.328   1.930   5.580  0.0269 -0.1724 -0.2800
10303TIP3    H152400   3.318   1.859   5.516  1.7463 -0.2656 -0.4982
10303TIP3    H252401   3.312   1.888   5.664 -2.9275  0.0993 -0.6280
10304TIP3   OH252402   2.425   1.282  15.420  0.1001  0.1163  0.1107
10304TIP3    H152403   2.450   1.314  15.333 -0.2324  0.6945  0.2180
10304TIP3    H252404   2.486   1.211  15.438 -0.5189 -0.7642 -1.0694
10305TIP3   OH252405   3.813   6.765  14.935 -0.2059 -0.1566  0.9635
10305TIP3    H152406   3.793   6.859  14.933  0.1652 -0.0701  1.2121
10305TIP3    H252407   3.740   6.726  14.982 -0.8503 -0.1233  0.0216
10306TIP3   OH252408   1.149   3.613   3.973  0.0528 -0.3929 -0.3857
10306TIP3    H152409   1.179   3.607   4.064 -0.4407 -2.0041 -0.3013
10306TIP3    H252410   1.221   3.657   3.928 -0.1219  1.3858  0.9404
10307TIP3   OH252411   4.295   2.115   5.238 -0.0988 -0.0924  0.3266
10307TIP3    H152412   4.250   2.191   5.202 -0.6595 -0.9022 -0.7815
10307TIP3    H252413   4.230   2.045   5.232  0.9542 -1.0578 -0.3559
10308TIP3   OH252414   1.437   2.454  15.356 -0.0285  0.1845  0.1160
10308TIP3    H152415   1.421   2.474  15.264 -0.1219 -1.6395 -0.3028
10308TIP3    H252416   1.476   2.366  15.355  1.2258  0.6756  1.7329
10309TIP3   OH252417   2.496   3.634   0.447 -0.3291 -0.2688  0.0321
10309TIP3    H152418   2.409   3.597   0.436 -0.0728 -0.3608 -2.0562
10309TIP3    H252419   2.501   3.705   0.382  0.1559  1.6851  2.0788
10310TIP3   OH252420   5.016   2.962  11.925  0.1152 -0.1800  0.4114
10310TIP3    H152421   4.970   2.878  11.926 -0.8797  0.3031 -0.9438
10310TIP3    H252422   5.102   2.942  11.889 -0.6027 -0.4427 -1.2565
10311TIP3   OH252423   1.740   6.654   4.145  0.0321 -0.2329 -0.1641
10311TIP3    H152424   1.651   6.631   4.174  0.4565 -0.2625  1.1857
10311TIP3    H252425   1.729   6.680   4.054 -1.2375 -1.0307 -0.2695
10312TIP3   OH252426   2.734   5.560   1.756 -0.0812 -0.5982  0.3609
10312TIP3    H152427   2.735   5.466   1.771  0.4702 -0.5785  0.4507
10312TIP3    H252428   2.716   5.569   1.662 -0.1232 -0.7906  0.3496
10313TIP3   OH252429   4.980   4.857   5.258 -0.4048  0.3605  0.1693
10313TIP3    H152430   4.968   4.935   5.313  0.2158 -1.0568  2.4601
10313TIP3    H252431   4.892   4.828   5.237 -0.6636  2.5098 -2.0801
10314TIP3   OH252432   5.959   1.020  14.687 -0.4742  0.6667  0.2055
10314TIP3    H152433   6.004   1.104  14.678 -1.3390  1.1432  0.2537
10314TIP3    H252434   5.893   1.021  14.617  0.8108 -0.8403 -1.1225
10315TIP3   OH252435   3.616   3.589  16.272 -0.0202  0.0057 -0.1699
10315TIP3    H152436   3.696   3.545  16.244 -0.7155 -0.9523 -0.7245
10315TIP3    H252437   3.562   3.519  16.309 -0.6383  0.6174  0.1073
10316TIP3   OH252438   4.699   1.716   5.598  0.3761  0.0730  0.3676
10316TIP3    H152439   4.684   1.719   5.693 -1.2242 -0.0797  0.1519
10316TIP3    H252440   4.619   1.676   5.563  1.7352 -1.6738 -0.8910
10317TIP3   OH252441   6.303   3.488  12.455 -0.7419 -0.1910 -0.3101
10317TIP3    H152442   6.354   3.509  12.377 -1.3437  0.6372 -0.4957
10317TIP3    H252443   6.344   3.409  12.490 -0.0018 -0.1460 -1.0438
10318TIP3   OH252444   0.609   6.643  11.023  0.0405  0.2501 -0.0950
10318TIP3    H152445   0.627   6.552  11.002  0.3943 -0.1088  1.6125
10318TIP3    H252446   0.693   6.688  11.014 -0.2571  0.5526 -1.5325
10319TIP3   OH252447   2.158   0.317  13.274  0.5840 -0.1220 -0.2082
10319TIP3    H152448   2.121   0.360  13.350 -0.0307  2.6793 -1.9489
10319TIP3    H252449   2.122   0.228  13.276 -1.3251  0.6291  1.4377
10320TIP3   OH252450   4.355   2.088  15.519  0.3669 -0.6361 -1.2476
10320TIP3    H152451   4.377   2.176  15.487 -1.6806  0.0835 -0.8239
10320TIP3    H252452   4.361   2.096  15.614 -1.5294 -0.4221 -1.1183
10321TIP3   OH252453   0.031   4.434   2.999 -0.0942 -0.0771 -0.2276
10321TIP3    H152454   0.018   4.405   2.908  0.5776  1.5611 -0.8745
10321TIP3    H252455  -0.056   4.462   3.027 -0.2086 -0.1053 -0.5459
10322TIP3   OH252456   1.212   2.117   0.800  0.1153 -0.1756  0.3260
10322TIP3    H152457   1.192   2.045   0.740  2.3079 -0.9211  0.3781
10322TIP3    H252458   1.249   2.074   0.877  1.3343  0.9602  0.4236
10323TIP3   OH252459   6.012   1.112  13.826 -0.0396  0.0711 -0.5141
10323TIP3    H152460   6.004   1.207  13.836  0.8532  0.1232 -0.1837
10323TIP3    H252461   5.971   1.093  13.742 -0.2334  0.7537 -0.5793
10324TIP3   OH252462   2.003   0.229   4.429 -0.0582  0.8547 -0.6330
10324TIP3    H152463   2.010   0.324   4.425 -2.1108  1.0549 -0.3190
10324TIP3    H252464   1.918   0.212   4.470  0.3691 -1.1184 -0.4497
10325TIP3   OH252465   1.920   2.767   2.085  0.1422  0.2311  0.0615
10325TIP3    H152466   1.833   2.730   2.099  0.3936 -1.0233 -1.3550
10325TIP3    H252467   1.904   2.850   2.041 -0.3527 -0.4387 -1.0855
10326TIP3   OH252468   2.249   1.338   5.674  0.3196 -0.5517 -0.3995
10326TIP3    H152469   2.248   1.431   5.697  1.0170 -0.5312 -0.4567
10326TIP3    H252470   2.256   1.293   5.758  1.4890 -0.5086 -0.4571
10327TIP3   OH252471   1.101   0.301  15.979  0.5306  0.0145  0.2201
10327TIP3    H152472   1.149   0.275  15.900  0.6127  0.9359 -0.0448
10327TIP3    H252473   1.009   0.293  15.955  0.5218  2.1588 -0.6493
10328TIP3   OH252474   0.634   1.579   2.787 -0.0628  0.3196  0.5698
10328TIP3    H152475   0.688   1.620   2.719 -0.6215  0.3137  0.1225
10328TIP3    H252476   0.544   1.591   2.758 -0.2418 -1.6041  0.1991
10329TIP3   OH252477   1.823   6.515   2.251  0.0733 -0.2358 -0.3709
10329TIP3    H152478   1.805   6.443   2.191  0.8319 -0.3447 -0.4716
10329TIP3    H252479   1.876   6.477   2.321 -1.0942 -0.1917  0.5809
10330TIP3   OH252480   1.043   3.447  13.162 -0.2040  0.0940  0.0718
10330TIP3    H152481   1.040   3.486  13.249 -0.4737 -0.5619  0.3617
10330TIP3    H252482   1.129   3.405  13.157  0.0031  0.5441 -0.1610
10331TIP3   OH252483   3.061   4.971  14.013 -0.3764  0.1483  0.0247
10331TIP3    H152484   2.985   4.950  14.068 -0.2688  1.1343  0.5718
10331TIP3    H252485   3.024   4.998  13.929 -0.5302 -1.9260 -0.6524
10332TIP3   OH252486   6.222   1.665  13.322  0.1067  0.4439  0.0133
10332TIP3    H152487   6.235   1.698  13.234 -0.4047  0.2735 -0.1296
10332TIP3    H252488   6.130   1.681  13.341 -0.0827 -0.6175  0.0500
10333TIP3   OH252489   2.288   0.673   2.359 -0.6828 -0.7035  0.2439
10333TIP3    H152490   2.258   0.705   2.274 -1.2583 -1.1232  0.2825
10333TIP3    H252491   2.281   0.578   2.353 -2.4432 -0.6857  1.3541
10334TIP3   OH252492   6.006   3.146   2.698  0.1974  0.3319  0.2221
10334TIP3    H152493   6.054   3.188   2.627  0.0930  1.6756  0.9175
10334TIP3    H252494   6.025   3.199   2.775  0.3696 -1.1274  1.2418
10335TIP3   OH252495   4.441   5.803  16.895  0.5480  0.0110  0.1766
10335TIP3    H152496   4.469   5.807  16.803 -2.1872  1.0392 -0.7006
10335TIP3    H252497   4.427   5.710  16.912  0.7228 -0.1607 -0.5685
10336TIP3   OH252498   0.175   4.257  17.108  0.2797  0.0879 -0.2578
10336TIP3    H152499   0.162   4.320  17.038  2.5016 -0.2085 -1.0166
10336TIP3    H252500   0.209   4.309  17.181 -1.0313  0.2285  0.2883
10337TIP3   OH252501   5.360   5.338  12.463  0.2575 -0.5120  0.0861
10337TIP3    H152502   5.420   5.267  12.437 -0.4938 -0.5366 -1.6934
10337TIP3    H252503   5.278   5.316  12.420 -0.4022  0.7002  0.7027
10338TIP3   OH252504   6.778   5.916   4.419 -0.1369  0.0414  0.1597
10338TIP3    H152505   6.711   5.983   4.404 -0.0248  0.2070  0.3887
10338TIP3    H252506   6.763   5.851   4.350 -0.5225  0.0862  0.1969
10339TIP3   OH252507   2.784   6.769  14.274 -0.4925 -0.7243  0.4046
10339TIP3    H152508   2.803   6.843  14.332 -0.4346  1.1264 -1.7997
10339TIP3    H252509   2.868   6.749  14.233 -0.9081 -0.5417 -0.5701
10340TIP3   OH252510   3.136   0.964  11.765  0.3647 -0.6047  0.1067
10340TIP3    H152511   3.094   0.888  11.806  0.5820 -0.9112 -0.2305
10340TIP3    H252512   3.079   0.986  11.691  0.5835 -0.7769 -0.1160
10341TIP3   OH252513   6.519   3.797   0.404 -0.1072 -0.8760  0.0231
10341TIP3    H152514   6.595   3.771   0.456 -0.9390 -2.7809  0.3838
10341TIP3    H252515   6.444   3.781   0.461 -0.8525  0.1267 -0.6376
10342TIP3   OH252516   2.820   1.036   3.169 -0.0030  0.1729  0.0408
10342TIP3    H152517   2.761   1.007   3.238  0.1042  0.6276  0.3329
10342TIP3    H252518   2.768   1.032   3.089  0.5913 -2.8027 -0.3190
10343TIP3   OH252519   2.733   5.181  17.188  0.0922 -0.0874  0.1241
10343TIP3    H152520   2.781   5.115  17.137 -0.1712  1.1488 -1.8463
10343TIP3    H252521   2.801   5.241  17.219  0.3381 -1.2396  1.9602
10344TIP3   OH252522   6.081   4.114  16.666 -0.4878 -0.2906 -0.5685
10344TIP3    H152523   6.030   4.054  16.612 -0.9328 -1.4684  1.0892
10344TIP3    H252524   6.020   4.143  16.734  0.2924  0.4750 -0.1718
10345TIP3   OH252525   4.551   2.817  12.100  0.4314  0.4434  0.0077
10345TIP3    H152526   4.483   2.776  12.047 -0.0962  0.3698  0.7160
10345TIP3    H252527   4.528   2.909  12.102  0.8500  0.5613 -0.4660
10346TIP3   OH252528   4.767   3.493  13.120 -0.0358  0.1947  0.3571
10346TIP3    H152529   4.843   3.439  13.140 -0.7982 -0.9736  0.1678
10346TIP3    H252530   4.782   3.526  13.031  1.4352  2.0901  1.2304
10347TIP3   OH252531   0.638   5.984  12.597 -0.7031  0.6930 -0.4748
10347TIP3    H152532   0.640   6.080  12.606 -0.9567  0.7875 -1.3878
10347TIP3    H252533   0.711   5.954  12.652  0.9018  1.5760 -1.9888
10348TIP3   OH252534   5.409   2.418   1.960 -0.5321 -0.3488  0.0292
10348TIP3    H152535   5.430   2.339   2.010  0.4829  0.5329  1.0463
10348TIP3    H252536   5.453   2.489   2.007 -0.2300  0.6395 -1.6535
10349TIP3   OH252537   3.335   2.424  11.233 -0.5627 -0.3504  0.7247
10349TIP3    H152538   3.332   2.429  11.137 -0.3988 -0.3609  0.7180
10349TIP3    H252539   3.247   2.447  11.261 -0.9920 -1.6855  0.5246
10350TIP3   OH252540   2.689   3.831  11.945  0.3085  0.2224 -0.5582
10350TIP3    H152541   2.630   3.841  12.019 -0.7767 -1.7408 -1.1078
10350TIP3    H252542   2.748   3.906  11.952 -0.3886  0.6395  1.6895
10351TIP3   OH252543   6.752   2.943   6.093  0.3116  0.4594  0.1014
10351TIP3    H152544   6.712   2.871   6.140  0.4901  0.4044  0.1702
10351TIP3    H252545   6.835   2.908   6.061  0.2020  0.5004 -0.2370
10352TIP3   OH252546   4.543   3.313   1.123  0.1919  0.1744 -0.0685
10352TIP3    H152547   4.635   3.337   1.128  0.5902 -1.3437  0.1615
10352TIP3    H252548   4.535   3.235   1.177 -1.7054  1.5397  1.8201
10353TIP3   OH252549   2.709   2.960  16.174  0.2719 -0.3208  0.7278
10353TIP3    H152550   2.765   2.970  16.097  1.0393  0.8465  1.4010
10353TIP3    H252551   2.700   3.049  16.209 -1.5275 -0.5728  0.9872
10354TIP3   OH252552   1.380   4.751  15.902  0.1635  0.1522 -0.7739
10354TIP3    H152553   1.304   4.704  15.865  0.7270 -0.2964 -1.3799
10354TIP3    H252554   1.401   4.701  15.981 -0.4845  0.5830 -0.3155
10355TIP3   OH252555   2.559   2.864   3.759 -0.2800  0.2010  0.1033
10355TIP3    H152556   2.627   2.799   3.740 -3.0093 -2.9628  0.1982
10355TIP3    H252557   2.492   2.849   3.692 -1.5226  2.2562  0.7965
10356TIP3   OH252558   5.294   6.180   1.029 -0.1906  0.2203 -0.3238
10356TIP3    H152559   5.263   6.193   0.939  0.0627  0.5061 -0.3709
10356TIP3    H252560   5.385   6.208   1.027 -0.6253  1.7693  0.3930
10357TIP3   OH252561   0.111   4.036   1.015  0.0217 -0.5102 -0.4507
10357TIP3    H152562   0.084   3.947   1.035 -3.2432  0.5449  0.4756
10357TIP3    H252563   0.169   4.028   0.939  0.1678 -3.3970 -0.1329
10358TIP3   OH252564   0.327   5.593  14.409  0.0208  0.3168 -1.0324
10358TIP3    H152565   0.315   5.582  14.315 -0.1374  1.0411 -1.1048
10358TIP3    H252566   0.251   5.551  14.448  1.1783 -2.0080 -1.0895
10359TIP3   OH252567   2.513   5.133   0.612  0.3245  0.7654  0.0670
10359TIP3    H152568   2.596   5.165   0.574 -0.6605  0.8077 -2.1922
10359TIP3    H252569   2.494   5.195   0.682  2.4979  0.3928  1.0691
10360TIP3   OH252570   4.767   5.631   4.775  0.2228 -0.6803 -0.0935
10360TIP3    H152571   4.823   5.649   4.699 -1.2183 -1.3797 -1.3740
10360TIP3    H252572   4.689   5.590   4.738 -0.0593 -2.0695  1.8834
10361TIP3   OH252573   5.857   3.591   0.547  0.6657  0.2763 -0.2613
10361TIP3    H152574   5.875   3.640   0.466 -0.3997 -0.7046 -1.1289
10361TIP3    H252575   5.794   3.524   0.521  0.3129 -0.0815  1.3935
10362TIP3   OH252576   3.909   1.366  11.046  0.2817 -0.7075 -0.1129
10362TIP3    H152577   3.949   1.356  10.959  0.5437 -0.9155  0.0273
10362TIP3    H252578   3.825   1.408  11.029 -0.1071 -1.6201 -0.5753
10363TIP3   OH252579   0.009   4.782  15.584 -0.2008 -0.3071 -0.1584
10363TIP3    H152580   0.063   4.771  15.662  0.7123  0.7275 -0.6108
10363TIP3    H252581  -0.011   4.693  15.555 -0.1992 -0.6987  0.9984
10364TIP3   OH252582   5.585   4.219   2.337 -0.2232  0.6766  0.2165
10364TIP3    H152583   5.665   4.184   2.376  0.3786  3.0122  1.2512
10364TIP3    H252584   5.515   4.190   2.396 -0.0776 -0.7791 -0.2984
10365TIP3   OH252585   2.007   0.271   2.652  0.0059 -0.0690 -0.9647
10365TIP3    H152586   2.029   0.353   2.697 -2.3069  0.2073 -0.2107
10365TIP3    H252587   2.091   0.237   2.622  1.2015  1.7633  0.1148
10366TIP3   OH252588   6.211   6.598   2.130  0.1352 -0.3284  0.1127
10366TIP3    H152589   6.275   6.576   2.062  0.3236  1.2584 -0.2586
10366TIP3    H252590   6.263   6.604   2.211  0.3818  0.4572 -0.0985
10367TIP3   OH252591   2.422   6.379   4.239  0.5588 -0.0784  0.1357
10367TIP3    H152592   2.463   6.355   4.155  2.2357 -1.1062  1.1874
10367TIP3    H252593   2.338   6.333   4.238  1.5790 -2.0394 -0.0263
10368TIP3   OH252594   1.969   4.824  14.214  0.1028  0.3278 -0.0080
10368TIP3    H152595   1.891   4.769  14.206  0.5707 -0.5855  1.3124
10368TIP3    H252596   2.036   4.765  14.249  0.6273  1.7239  1.4556
10369TIP3   OH252597   1.372   6.498   3.743  0.2653 -0.4518 -0.1705
10369TIP3    H152598   1.412   6.423   3.700  1.0342 -0.6392  0.8301
10369TIP3    H252599   1.284   6.469   3.766  0.1774 -0.6655 -0.7682
10370TIP3   OH252600   1.767   4.681  15.991 -0.9256 -0.1754 -0.5122
10370TIP3    H152601   1.690   4.627  16.009  0.4638 -1.6968  1.2064
10370TIP3    H252602   1.784   4.727  16.073 -0.1908  0.3895 -0.9687
10371TIP3   OH252603   5.327   2.129   1.674 -0.1312 -0.3825 -0.4825
10371TIP3    H152604   5.337   2.054   1.732 -0.9936 -1.1356 -1.2625
10371TIP3    H252605   5.265   2.186   1.718 -0.0903 -0.5178 -0.2513
10372TIP3   OH252606   2.225   5.037   5.844  0.3887  0.1605 -0.0178
10372TIP3    H152607   2.285   4.971   5.809 -0.5130 -1.0842  0.7222
10372TIP3    H252608   2.262   5.061   5.929 -0.7494 -1.5332  1.0185
10373TIP3   OH252609   1.658   2.903   2.576  0.5010  0.0294  0.0556
10373TIP3    H152610   1.632   2.984   2.533 -1.1250 -0.5184 -0.0395
10373TIP3    H252611   1.749   2.890   2.549  0.2027  0.8436 -1.4361
10374TIP3   OH252612   2.368   4.400   2.627 -0.6405 -0.4576 -0.0616
10374TIP3    H152613   2.320   4.344   2.565 -0.5385  0.7345 -1.2789
10374TIP3    H252614   2.457   4.365   2.626 -0.6177 -0.4068 -0.6715
10375TIP3   OH252615   1.313   6.430  14.194  0.4471  0.3218 -0.0005
10375TIP3    H152616   1.335   6.475  14.275 -0.1424  1.0691 -0.2465
10375TIP3    H252617   1.381   6.364  14.184 -0.8058 -1.4646  2.3605
10376TIP3   OH252618   0.619   5.085   1.096 -0.2941 -0.2470  0.3701
10376TIP3    H152619   0.578   5.110   1.013 -2.0356 -0.5131  1.0980
10376TIP3    H252620   0.598   5.157   1.156  1.2022  0.0853  0.5216
10377TIP3   OH252621   2.915   2.467  13.913 -0.1082  0.3767  0.3835
10377TIP3    H152622   2.857   2.404  13.870  0.2730 -0.0114  0.4334
10377TIP3    H252623   2.868   2.493  13.992 -1.2638  1.8505 -0.7495
10378TIP3   OH252624   2.168   6.197  14.520  0.4063  0.3140 -0.1262
10378TIP3    H152625   2.192   6.108  14.542  1.0367  0.8101  1.2934
10378TIP3    H252626   2.072   6.196  14.518  0.4194 -0.5795 -1.0379
10379TIP3   OH252627   2.475   5.642  13.215  0.5277  0.2858  0.3089
10379TIP3    H152628   2.489   5.736  13.209 -0.3225  0.4616  0.9040
10379TIP3    H252629   2.456   5.626  13.308  1.3399 -0.5736  0.3438
10380TIP3   OH252630   3.894   0.411  12.407 -0.0539  0.7412 -0.0400
10380TIP3    H152631   3.924   0.356  12.334 -1.3557 -0.1189  0.0409
10380TIP3    H252632   3.974   0.452  12.440  0.5546  1.3948 -2.1207
10381TIP3   OH252633   4.218   2.998   1.965  0.5457 -0.2768 -0.2545
10381TIP3    H152634   4.244   2.909   1.943 -0.0024  0.0718 -2.6366
10381TIP3    H252635   4.131   2.988   2.004  0.5769 -0.7980 -0.3089
10382TIP3   OH252636   2.102   0.108   0.622  0.5761 -0.1382 -0.0648
10382TIP3    H152637   2.139   0.171   0.683  1.8270 -1.0220  0.1078
10382TIP3    H252638   2.082   0.031   0.675  2.1523 -1.1059 -0.8004
10383TIP3   OH252639   0.270   6.690   3.183 -0.1664  0.0962 -0.3652
10383TIP3    H152640   0.352   6.736   3.200 -1.5339  1.7511  2.4892
10383TIP3    H252641   0.253   6.640   3.262 -1.4674 -1.0005 -1.2819
10384TIP3   OH252642   1.104   3.303  12.175 -0.3365 -0.0835  0.5003
10384TIP3    H152643   1.152   3.330  12.096 -1.0991  2.2857  0.7533
10384TIP3    H252644   1.159   3.331  12.247 -0.6922 -0.1662  0.8045
10385TIP3   OH252645   0.964   3.867   1.111 -0.1672 -0.1281 -0.2300
10385TIP3    H152646   1.050   3.908   1.101 -0.3874  0.6984  1.0584
10385TIP3    H252647   0.964   3.834   1.201  0.0120 -3.0619 -1.1712
10386TIP3   OH252648   4.943   4.926   3.642  0.1152  0.2183  0.4016
10386TIP3    H152649   4.915   4.848   3.594  1.0808 -1.3587  2.2403
10386TIP3    H252650   4.990   4.979   3.577  0.0865 -1.1046 -0.7310
10387TIP3   OH252651   1.036   2.900  17.251  0.4683  0.4294 -0.0729
10387TIP3    H152652   0.941   2.892  17.249  0.5553 -1.6145  1.0200
10387TIP3    H252653   1.066   2.861  17.169  0.4386 -1.9960  0.9825
10388TIP3   OH252654   0.500   5.178   4.431  0.3575  0.0671  0.3463
10388TIP3    H152655   0.463   5.141   4.351 -3.3583  1.7034  1.1441
10388TIP3    H252656   0.563   5.111   4.461  0.4041 -1.4799 -2.8052
10389TIP3   OH252657   6.077   5.936  17.165  0.0001 -0.4437  0.3951
10389TIP3    H152658   6.165   5.947  17.127  0.5348 -2.2087  0.9895
10389TIP3    H252659   6.040   5.863  17.116 -1.2656  0.4283  0.0085
10390TIP3   OH252660   4.408   4.947   3.883 -0.0518 -0.2126  0.3706
10390TIP3    H152661   4.350   5.012   3.845 -1.1318  0.7303  3.4019
10390TIP3    H252662   4.360   4.864   3.875 -0.4390  0.0358  0.1024
10391TIP3   OH252663   0.223   5.895  15.059  0.1982 -0.2535 -0.5786
10391TIP3    H152664   0.228   5.824  14.994 -0.2325 -2.1167  1.2953
10391TIP3    H252665   0.137   5.934  15.044 -0.1920 -1.1225 -0.7120
10392TIP3   OH252666   3.861   0.094  13.892 -0.5130 -0.6764 -0.6590
10392TIP3    H152667   3.900   0.157  13.831  0.4639 -0.5884  0.0434
10392TIP3    H252668   3.809   0.148  13.952 -1.2895 -0.7421 -1.2546
10393TIP3   OH252669   1.714   0.627  13.406  1.0289 -0.2616  0.0900
10393TIP3    H152670   1.764   0.708  13.407  1.3529  0.0841 -5.8104
10393TIP3    H252671   1.642   0.644  13.346 -0.5299 -3.5647  0.8152
10394TIP3   OH252672   6.691   3.634  14.152 -0.6436 -0.4110  0.5360
10394TIP3    H152673   6.617   3.579  14.125 -0.6285 -0.3134  0.3015
10394TIP3    H252674   6.734   3.582  14.220 -0.9489 -0.4525  0.7019
10395TIP3   OH252675   6.310   3.450   6.024  0.1946 -0.2497  0.3381
10395TIP3    H152676   6.297   3.442   6.118 -1.2301 -0.3840  0.1450
10395TIP3    H252677   6.405   3.448   6.013  0.3551 -1.1194  1.6841
10396TIP3   OH252678   4.441   1.016  14.693  0.1545  0.1276  0.0862
10396TIP3    H152679   4.462   0.993  14.784 -1.9518 -1.4449  0.2467
10396TIP3    H252680   4.526   1.039  14.654  1.0457  1.3699  2.5591
10397TIP3   OH252681   1.098   4.592   0.988 -0.0156  0.1173 -0.2875
10397TIP3    H152682   1.042   4.521   1.019 -0.2873 -0.0519 -1.1327
10397TIP3    H252683   1.172   4.593   1.049  0.6086 -1.7095 -0.9653
10398TIP3   OH252684   4.312   3.964  16.675  0.3411 -0.1621 -0.6178
10398TIP3    H152685   4.310   3.886  16.730  0.5227 -0.0608 -0.4648
10398TIP3    H252686   4.357   4.030  16.729 -0.7651  0.3702 -0.3037
10399TIP3   OH252687   6.050   4.897   4.814  0.3140 -0.2346 -0.8810
10399TIP3    H152688   6.003   4.815   4.827 -0.2704  0.4489  2.0958
10399TIP3    H252689   5.986   4.965   4.833  1.7348  0.7882  0.5704
10400TIP3   OH252690   2.672   5.601   1.496  0.1512 -0.8532  0.6031
10400TIP3    H152691   2.625   5.518   1.485 -1.9974  0.5152 -1.7736
10400TIP3    H252692   2.681   5.635   1.407  0.4414  1.7191  1.5265
10401TIP3   OH252693   4.681   3.150   2.549 -0.1019 -0.0490 -0.3901
10401TIP3    H152694   4.745   3.214   2.518 -1.2674  0.6285 -1.4570
10401TIP3    H252695   4.688   3.154   2.645  1.8657 -0.4553 -0.4694
10402TIP3   OH252696   4.804   6.026   2.610  0.3193  0.3928 -0.1571
10402TIP3    H152697   4.881   6.083   2.605  1.5477 -1.2090 -0.3704
10402TIP3    H252698   4.805   5.978   2.527 -1.2657  0.7642 -0.4073
10403TIP3   OH252699   0.197   3.421   5.139  0.4328 -0.3168  0.4400
10403TIP3    H152700   0.276   3.368   5.131  0.0322 -0.7008 -1.6768
10403TIP3    H252701   0.125   3.358   5.142 -0.4377 -0.3620 -6.0359
10404TIP3   OH252702   3.341   2.132   5.283 -0.2656 -0.1580 -0.1099
10404TIP3    H152703   3.434   2.149   5.292 -0.3443  0.2397 -0.0420
10404TIP3    H252704   3.312   2.107   5.370  0.0239 -1.5374 -0.3854
10405TIP3   OH252705   2.360   5.958  16.755  0.2623  0.1601  0.2584
10405TIP3    H152706   2.354   5.952  16.660 -1.7754  0.3476  0.3320
10405TIP3    H252707   2.365   6.052  16.772 -0.7666  0.2116  0.3602
10406TIP3   OH252708   2.109   3.961  16.111  0.4675 -0.6946 -0.1501
10406TIP3    H152709   2.027   4.004  16.085  0.4983 -0.5696 -0.0418
10406TIP3    H252710   2.129   3.901  16.039 -0.9011 -2.3891  0.7901
10407TIP3   OH252711   0.493   1.542  12.766 -0.2940  0.3739 -0.5077
10407TIP3    H152712   0.470   1.502  12.682 -1.7461 -3.1243  1.3421
10407TIP3    H252713   0.419   1.522  12.824  1.7624  0.2208  2.3027
10408TIP3   OH252714   5.291   1.388  11.724  0.5136  0.6320  0.0786
10408TIP3    H152715   5.199   1.413  11.715  0.6155  0.6398 -1.1112
10408TIP3    H252716   5.338   1.453  11.673  1.3004  1.2868  1.5976
10409TIP3   OH252717   3.081   0.830   2.087 -0.9050  0.3661 -0.0687
10409TIP3    H152718   3.117   0.892   2.150 -1.0419  1.3188 -0.9131
10409TIP3    H252719   3.065   0.881   2.008 -0.7740 -0.7997 -0.8810
10410TIP3   OH252720   4.744   2.704   3.483  0.3392 -0.1585 -0.0094
10410TIP3    H152721   4.650   2.700   3.501 -0.1250 -1.8147 -2.3672
10410TIP3    H252722   4.775   2.614   3.500  0.8835 -0.3862 -2.0026
10411TIP3   OH252723   2.510   5.372  10.931 -0.0048 -0.2294  0.4860
10411TIP3    H152724   2.455   5.401  10.859  0.4285  1.1649  0.6972
10411TIP3    H252725   2.557   5.450  10.959  2.9723 -1.5768 -0.4218
10412TIP3   OH252726   0.708   1.563   1.700 -0.0458 -0.2164 -0.1884
10412TIP3    H152727   0.676   1.651   1.679  0.0217 -0.0180  0.5074
10412TIP3    H252728   0.632   1.519   1.739 -0.3401 -0.7746 -1.3534
10413TIP3   OH252729   1.461   2.771   2.209 -0.2982  0.0451 -0.1233
10413TIP3    H152730   1.397   2.798   2.143  0.3227  0.5905 -0.5165
10413TIP3    H252731   1.518   2.710   2.162 -0.9731 -1.0508  0.4331
10414TIP3   OH252732   6.577   2.515   3.527 -0.3066  0.3738 -0.4861
10414TIP3    H152733   6.634   2.445   3.559  0.1948  0.6493 -0.7615
10414TIP3    H252734   6.563   2.571   3.603 -0.8662 -0.1178 -0.2128
10415TIP3   OH252735   1.915   2.884  14.615  0.1727 -0.4413  0.2683
10415TIP3    H152736   1.995   2.872  14.666 -0.3360  0.4465  1.3208
10415TIP3    H252737   1.942   2.935  14.539  0.6543 -0.3388  0.5061
10416TIP3   OH252738   0.963   4.721   0.001  0.2246  0.0528  0.1562
10416TIP3    H152739   1.012   4.666  -0.060 -0.1561  0.6921 -0.7479
10416TIP3    H252740   1.016   4.799   0.011  0.5450 -0.2707  1.0841
10417TIP3   OH252741   3.970   6.479   3.858 -0.3673  0.2406 -0.2244
10417TIP3    H152742   4.041   6.415   3.861 -0.6554 -0.2929 -2.7768
10417TIP3    H252743   4.006   6.553   3.811 -0.2472  1.8076  2.1588
10418TIP3   OH252744   5.973   4.731   5.092  0.5955 -0.1553  0.2371
10418TIP3    H152745   5.914   4.732   5.017  0.5349  1.2579  0.2765
10418TIP3    H252746   6.050   4.682   5.063  0.2971 -0.1753 -0.5241
10419TIP3   OH252747   4.435   6.734   4.681  0.1228  0.0837  0.4226
10419TIP3    H152748   4.496   6.808   4.679  0.4092 -0.1533 -1.0716
10419TIP3    H252749   4.348   6.774   4.679  0.2520  0.3941  0.8800
10420TIP3   OH252750   1.694   4.164   5.845 -0.1354 -0.2804  0.0995
10420TIP3    H152751   1.626   4.114   5.799 -0.7258 -0.2149  0.8734
10420TIP3    H252752   1.659   4.174   5.934  1.0069 -0.4660  0.5830
10421TIP3   OH252753   1.496   1.563  13.202 -0.3778 -0.1907  1.2062
10421TIP3    H152754   1.511   1.481  13.250 -0.1518 -0.7517  0.1994
10421TIP3    H252755   1.471   1.626  13.270  0.7358 -0.7471  2.1629
10422TIP3   OH252756   6.346   2.478   5.600 -0.0741 -1.0696 -0.0320
10422TIP3    H152757   6.425   2.425   5.614  1.3219  0.9523  0.2542
10422TIP3    H252758   6.368   2.563   5.637 -2.6092 -0.5700  0.4863
10423TIP3   OH252759   1.077   1.553  15.624 -0.0061  1.0155  0.0230
10423TIP3    H152760   1.163   1.517  15.603 -0.1623  1.1907 -1.0181
10423TIP3    H252761   1.088   1.595  15.709  0.8144  0.6298  0.1133
10424TIP3   OH252762   0.271   5.556   1.559 -0.1306 -0.6795  0.1393
10424TIP3    H152763   0.288   5.489   1.493  1.0713 -0.5261  0.2663
10424TIP3    H252764   0.353   5.605   1.565 -0.7865  0.4226  0.4911
10425TIP3   OH252765   2.724   2.393   2.784  0.9946  0.0413 -0.1860
10425TIP3    H152766   2.639   2.372   2.823  0.1773 -0.7741 -2.3034
10425TIP3    H252767   2.739   2.484   2.808 -1.0016  0.5424 -0.6459
10426TIP3   OH252768   6.506   4.738   3.904 -0.6113 -0.3985  0.0806
10426TIP3    H152769   6.513   4.809   3.968 -3.1506 -1.2598  1.4397
10426TIP3    H252770   6.568   4.672   3.934  1.5835  1.0059 -1.0483
10427TIP3   OH252771   4.898   0.398   2.078  0.1994  0.0219  0.4835
10427TIP3    H152772   4.977   0.443   2.108  1.4981 -1.5082 -0.4719
10427TIP3    H252773   4.864   0.454   2.008  0.4738  0.6477  0.8411
10428TIP3   OH252774   2.523   6.253  11.898  0.3537  0.1030  0.3876
10428TIP3    H152775   2.606   6.286  11.864  0.9351 -0.6337  1.0587
10428TIP3    H252776   2.503   6.309  11.973 -0.9035  1.6958 -1.0443
10429TIP3   OH252777   1.142   2.472  14.945  0.4909 -0.1247  0.1546
10429TIP3    H152778   1.197   2.533  14.895 -1.2268  1.1592 -0.2580
10429TIP3    H252779   1.080   2.437  14.881 -0.8464  0.4710  1.0930
10430TIP3   OH252780   4.916   2.601   4.541  0.0246 -0.6771 -0.0451
10430TIP3    H152781   4.907   2.664   4.612  2.0167 -0.5502  0.1650
10430TIP3    H252782   4.923   2.516   4.585 -0.2576 -0.7798 -0.1934
10431TIP3   OH252783   6.647   4.268  15.466 -0.1322  0.3282 -0.1851
10431TIP3    H152784   6.711   4.239  15.400  0.1449 -1.2260  0.7259
10431TIP3    H252785   6.614   4.187  15.504 -2.5307  1.0880 -0.4726
10432TIP3   OH252786   2.469   0.204  15.556 -0.2592 -0.1985  0.2265
10432TIP3    H152787   2.469   0.129  15.496 -2.9199 -0.2768  0.2147
10432TIP3    H252788   2.477   0.280  15.499  2.6891 -0.3762  0.2511
10433TIP3   OH252789   1.291   1.296   3.584  0.0470 -0.0470  0.4979
10433TIP3    H152790   1.267   1.270   3.673 -0.2430 -1.4190  0.0404
10433TIP3    H252791   1.296   1.214   3.536 -1.8757  0.8129 -1.2689
10434TIP3   OH252792   1.070   4.764   5.938  0.1728  0.5039 -0.1051
10434TIP3    H152793   1.043   4.770   5.846  2.2401 -0.3425 -0.8339
10434TIP3    H252794   0.990   4.742   5.985 -1.1643  2.0022 -1.5218
10435TIP3   OH252795   2.096   6.648  13.845 -0.0893  0.0431 -0.0904
10435TIP3    H152796   2.036   6.598  13.790  0.6799 -2.5331  1.2525
10435TIP3    H252797   2.042   6.683  13.916 -0.7939  2.0281 -1.5135
10436TIP3   OH252798   2.454   4.869   5.444 -0.4135  0.5875  0.4825
10436TIP3    H152799   2.370   4.833   5.474 -0.5189  1.6404  1.5042
10436TIP3    H252800   2.434   4.961   5.423  0.0323  0.3198 -1.3003
10437TIP3   OH252801   3.210   5.460   2.643  0.4119 -0.3505 -0.1451
10437TIP3    H152802   3.182   5.512   2.567  1.8627  2.2957  1.0012
10437TIP3    H252803   3.304   5.447   2.629  0.2239 -2.1338 -0.0105
10438TIP3   OH252804   3.618   1.948   3.799 -0.1539 -0.3751  0.1473
10438TIP3    H152805   3.624   1.937   3.704  2.2640  1.2098  0.0254
10438TIP3    H252806   3.586   1.864   3.831  3.1616 -2.6334 -1.7744
10439TIP3   OH252807   3.951   0.621  11.176  0.3533 -0.0652 -0.4206
10439TIP3    H152808   3.928   0.698  11.228  0.7923 -0.4990  0.4317
10439TIP3    H252809   3.932   0.647  11.086  0.8167  1.1706 -0.1927
10440TIP3   OH252810   6.508   5.690  15.470 -0.0239  0.1896 -0.3219
10440TIP3    H152811   6.481   5.749  15.399  0.8637  0.2622 -0.6145
10440TIP3    H252812   6.598   5.717  15.490 -0.2558  0.1418  0.8124
10441TIP3   OH252813   4.525   4.893  16.780  0.3026  0.2385 -0.2507
10441TIP3    H152814   4.506   4.824  16.844  1.6092  0.6768  0.6811
10441TIP3    H252815   4.475   4.870  16.703 -0.9461 -0.5955  0.7719
10442TIP3   OH252816   4.292   4.545   0.036  0.6255 -0.0943  0.5552
10442TIP3    H152817   4.235   4.577   0.107  1.9010  0.1085  1.5143
10442TIP3    H252818   4.307   4.622  -0.019 -0.1203 -0.1825  0.2074
10443TIP3   OH252819   5.668   1.037  15.412 -0.1770 -0.2393  0.2907
10443TIP3    H152820   5.756   1.011  15.387  0.6473  1.6195  1.0210
10443TIP3    H252821   5.646   1.108  15.351 -0.9674 -0.3685  0.4159
10444TIP3   OH252822   5.181   2.171  13.690  0.3567 -0.0205  0.0334
10444TIP3    H152823   5.176   2.247  13.633 -0.3579 -0.7196 -0.8699
10444TIP3    H252824   5.260   2.184  13.742  1.6910  0.0864 -1.9340
10445TIP3   OH252825   0.926   4.520   2.703  0.4025  0.0036 -0.3343
10445TIP3    H152826   1.011   4.539   2.664  0.5957  0.0900  0.1234
10445TIP3    H252827   0.891   4.606   2.729 -0.1830  0.0564 -1.2396
10446TIP3   OH252828   0.930   5.847  14.768  0.4274 -1.1504 -0.0570
10446TIP3    H152829   0.835   5.854  14.775  0.0047 -2.6223 -2.8886
10446TIP3    H252830   0.964   5.902  14.839 -2.4845  2.2996 -1.0663
10447TIP3   OH252831   4.625   0.334   0.771  0.4874 -0.0799 -0.1007
10447TIP3    H152832   4.603   0.423   0.797  1.6414 -0.4690  2.5430
10447TIP3    H252833   4.598   0.280   0.846  2.8309 -1.5114 -0.2077
10448TIP3   OH252834   6.152   1.795  13.635  0.2715  0.0245  0.2333
10448TIP3    H152835   6.094   1.792  13.559  0.4521 -1.3541  0.1150
10448TIP3    H252836   6.097   1.824  13.707  0.2511  2.0257 -0.5254
10449TIP3   OH252837   4.095   5.617  15.368 -0.2082  0.4311 -0.2355
10449TIP3    H152838   4.149   5.688  15.404 -0.4456  0.3606  0.2708
10449TIP3    H252839   4.010   5.628  15.411 -0.2308 -0.1939 -0.1125
10450TIP3   OH252840   3.705   0.039  13.156  0.0336  0.2332 -0.2510
10450TIP3    H152841   3.780  -0.007  13.192  0.2493  0.4001 -0.4804
10450TIP3    H252842   3.729   0.131  13.161  0.3280  0.2335 -1.3667
10451TIP3   OH252843   2.743   0.203  16.892  0.6384 -0.6497  0.5013
10451TIP3    H152844   2.712   0.286  16.926  0.7899  0.0333 -0.9327
10451TIP3    H252845   2.688   0.137  16.934 -0.3055  0.2674  0.7498
10452TIP3   OH252846   0.031   5.866  12.377 -1.1235  0.8526  0.1076
10452TIP3    H152847   0.124   5.849  12.361 -0.9466  1.0918  0.8251
10452TIP3    H252848  -0.001   5.905  12.296 -0.9635 -0.6193 -0.6946
10453TIP3   OH252849   4.471   2.795   5.884 -0.4060 -0.0288 -0.0485
10453TIP3    H152850   4.384   2.821   5.855  0.5140  1.0001 -2.0801
10453TIP3    H252851   4.456   2.717   5.937 -2.4501 -0.6351 -1.4000
10454TIP3   OH252852   4.693   2.121  15.625 -0.9468 -0.4873  0.5637
10454TIP3    H152853   4.647   2.203  15.643  1.0783  0.9738 -0.4659
10454TIP3    H252854   4.687   2.111  15.530  1.9877  0.5696  0.1714
10455TIP3   OH252855   0.449   5.304   0.237  0.5641 -0.0169 -0.9323
10455TIP3    H152856   0.443   5.363   0.312  0.5389 -0.5123 -0.5417
10455TIP3    H252857   0.405   5.225   0.265  0.6359 -0.2406 -1.4402
10456TIP3   OH252858   5.349   4.579   1.180 -0.3222 -0.9678  0.7918
10456TIP3    H152859   5.275   4.605   1.124  0.0096  0.2915  0.9053
10456TIP3    H252860   5.358   4.651   1.242  2.3080 -0.0269 -0.5231
10457TIP3   OH252861   0.507   1.908  13.445 -0.2651  0.0576 -0.1985
10457TIP3    H152862   0.546   1.822  13.432 -2.1031 -0.8055 -0.3618
10457TIP3    H252863   0.578   1.963  13.478  0.8038 -1.6820  0.5003
10458TIP3   OH252864   4.892   6.065  16.345 -0.1435 -0.0331 -0.1881
10458TIP3    H152865   4.862   6.014  16.270  1.7882 -2.2154  0.4111
10458TIP3    H252866   4.888   6.156  16.315 -1.2167 -0.6845 -2.2459
10459TIP3   OH252867   5.870   4.382   1.104 -0.0570 -0.2308  0.3877
10459TIP3    H152868   5.831   4.295   1.091 -1.8080  0.7690 -1.7379
10459TIP3    H252869   5.925   4.395   1.027  0.8416  0.2388  1.0974
10460TIP3   OH252870   0.078   6.584   4.062  0.1937 -0.5453 -0.0579
10460TIP3    H152871   0.166   6.548   4.074  0.5859  0.2427 -0.4743
10460TIP3    H252872   0.071   6.599   3.967  0.0187  0.3956  0.0948
10461TIP3   OH252873   1.927   6.791  16.307 -0.0605  0.0635  0.6745
10461TIP3    H152874   1.877   6.710  16.312  0.0871 -0.6180 -4.3244
10461TIP3    H252875   2.013   6.769  16.343 -0.6533 -1.3036  1.3159
10462TIP3   OH252876   3.274   0.550  16.286 -0.2851  0.0298  0.3596
10462TIP3    H152877   3.322   0.568  16.366  0.2279 -0.6054  0.1962
10462TIP3    H252878   3.185   0.582  16.304 -0.0578  0.3127  1.0057
10463TIP3   OH252879   3.797   6.600  12.369  0.4820 -0.0713  0.0089
10463TIP3    H152880   3.793   6.564  12.458  1.0923  0.2880  0.1914
10463TIP3    H252881   3.887   6.632  12.361  0.2300  0.5206 -0.4940
10464TIP3   OH252882   0.766   0.036  14.837 -0.0232 -0.0022  0.0605
10464TIP3    H152883   0.841  -0.012  14.874  0.3287  0.5167  0.0320
10464TIP3    H252884   0.764   0.009  14.745 -0.8921 -1.2844  0.4345
10465TIP3   OH252885   3.154   1.199  11.909 -0.6116  0.4000 -0.7666
10465TIP3    H152886   3.234   1.247  11.887  0.6502 -0.5926  1.3325
10465TIP3    H252887   3.147   1.132  11.841  0.0589  0.8091 -1.2499
10466TIP3   OH252888   2.679   4.826   5.601  0.0729 -0.4606 -0.6317
10466TIP3    H152889   2.756   4.818   5.545 -0.4748 -6.6693 -1.1750
10466TIP3    H252890   2.610   4.856   5.543  1.5117  4.5669 -0.2737
10467TIP3   OH252891   0.160   6.705   1.665 -0.2702  0.6523 -0.1459
10467TIP3    H152892   0.088   6.727   1.724  0.3535  1.6843  0.2575
10467TIP3    H252893   0.137   6.746   1.582 -0.3703  0.5931 -0.1465
10468TIP3   OH252894   3.743   5.834   3.578  0.3443 -0.2315  0.5385
10468TIP3    H152895   3.681   5.795   3.639 -0.9660  0.6922 -0.1695
10468TIP3    H252896   3.728   5.788   3.495  1.9752 -1.3394  0.7912
10469TIP3   OH252897   0.765   0.473  11.493  0.1103 -0.1614  0.4617
10469TIP3    H152898   0.739   0.386  11.523  2.3157 -1.8341 -2.0408
10469TIP3    H252899   0.856   0.482  11.522  0.2652  0.8228 -0.2829
10470TIP3   OH252900   0.860   4.589   2.234  0.5134 -0.4006 -0.2805
10470TIP3    H152901   0.847   4.496   2.251  1.7248 -0.7069 -0.8979
10470TIP3    H252902   0.803   4.609   2.160 -0.3383 -0.4642  0.3566
10471TIP3   OH252903   6.153   4.457   6.148  0.3184 -0.0971  0.0068
10471TIP3    H152904   6.198   4.376   6.172 -0.7351 -1.0853 -1.2156
10471TIP3    H252905   6.072   4.428   6.106  0.0160  1.5956 -0.6649
10472TIP3   OH252906   6.804   5.629   1.502  0.3329  0.2265 -0.0570
10472TIP3    H152907   6.892   5.608   1.532  0.0347 -1.8082 -0.5016
10472TIP3    H252908   6.747   5.569   1.551 -0.4319 -1.0837 -2.4101
10473TIP3   OH252909   1.896   1.342   5.230  0.0873 -0.3374 -0.4049
10473TIP3    H152910   1.942   1.409   5.281 -1.7342  0.5798  0.1085
10473TIP3    H252911   1.851   1.288   5.295 -1.0657 -0.0612 -0.9422
10474TIP3   OH252912   6.637   4.001  13.385  0.1993 -0.3085  0.2892
10474TIP3    H152913   6.633   3.937  13.456  3.5385 -1.0010  0.0336
10474TIP3    H252914   6.721   4.046  13.397 -0.5931  1.8633 -1.3852
10475TIP3   OH252915   2.355   0.844   0.983 -0.3035  0.1783 -0.1037
10475TIP3    H152916   2.273   0.844   1.032 -0.0157  1.2433  0.4172
10475TIP3    H252917   2.327   0.841   0.891 -0.8560 -1.3428  0.0974
10476TIP3   OH252918   6.492   4.210   3.527  0.2285 -0.1141 -0.9887
10476TIP3    H152919   6.440   4.290   3.536  1.2310  0.4213  0.3558
10476TIP3    H252920   6.489   4.190   3.434 -3.0206 -0.5547 -0.9235
10477TIP3   OH252921   6.063   0.831   6.367 -0.1708  0.5832 -0.3042
10477TIP3    H152922   6.122   0.901   6.341  2.7265 -1.6125 -0.0800
10477TIP3    H252923   6.102   0.795   6.446 -1.3420 -1.5576 -0.6268
10478TIP3   OH252924   1.938   3.358  15.914 -0.3608  0.0391 -0.4205
10478TIP3    H152925   1.953   3.439  15.963  2.1384 -1.0907  0.8703
10478TIP3    H252926   1.874   3.310  15.967  2.0897 -1.0376  1.7711
10479TIP3   OH252927   2.156   4.634   6.502 -0.2029 -0.0235 -0.2436
10479TIP3    H152928   2.066   4.615   6.531 -0.0743  0.5755  0.5839
10479TIP3    H252929   2.202   4.550   6.510 -0.8670 -0.5297 -1.4324
10480TIP3   OH252930   2.525   1.605   2.724  0.0490  0.2779  0.0274
10480TIP3    H152931   2.477   1.683   2.695 -2.1804 -0.8156  0.4974
10480TIP3    H252932   2.516   1.544   2.650  1.6412  0.3834 -0.2752
10481TIP3   OH252933   1.555   0.072  14.700 -0.3859  0.1858 -0.2074
10481TIP3    H152934   1.547   0.147  14.640 -0.2395  0.5448  0.2144
10481TIP3    H252935   1.488   0.088  14.767  0.6958  0.7884  0.7678
10482TIP3   OH252936   4.295   1.874  13.875 -0.0914 -0.0437  0.1383
10482TIP3    H152937   4.289   1.845  13.966  1.0484 -3.7387 -0.7836
10482TIP3    H252938   4.389   1.888  13.860 -0.2910  0.7943 -0.4212
10483TIP3   OH252939   6.780   1.336   2.237 -0.0016  0.2279 -0.5589
10483TIP3    H152940   6.811   1.395   2.168 -0.6212 -0.2932 -1.3065
10483TIP3    H252941   6.857   1.287   2.264  0.3955  0.9467 -0.3603
10484TIP3   OH252942   2.183   3.175   0.219  0.3674  0.6291 -0.0534
10484TIP3    H152943   2.227   3.215   0.144  2.3923 -1.6366 -0.1838
10484TIP3    H252944   2.225   3.215   0.295  0.0499  1.1169 -0.1270
10485TIP3   OH252945   1.708   3.758   2.406  0.0118 -0.1751  0.3650
10485TIP3    H152946   1.694   3.672   2.367 -2.2136  0.1637  0.2666
10485TIP3    H252947   1.649   3.816   2.358  0.2483  1.0741  1.5045
10486TIP3   OH252948   5.916   2.017  16.006 -0.0561  0.1309 -0.2871
10486TIP3    H152949   5.833   2.054  15.978  0.0987  0.5102 -0.2539
10486TIP3    H252950   5.981   2.085  15.986  0.0886  0.3102  0.7539
10487TIP3   OH252951   6.286   2.839  13.552 -0.1737  0.2062  0.0109
10487TIP3    H152952   6.320   2.809  13.636 -1.4461 -0.9241  0.1507
10487TIP3    H252953   6.260   2.930  13.567  0.5692  0.3458  0.5238
10488TIP3   OH252954   3.831   2.350  12.655  0.2487  0.2753 -0.6854
10488TIP3    H152955   3.835   2.415  12.585  1.4848  0.8237 -0.1374
10488TIP3    H252956   3.878   2.274  12.620  0.0287  0.1895 -0.7984
10489TIP3   OH252957   0.049   6.162  11.803 -0.5015  0.5891 -0.6985
10489TIP3    H152958   0.019   6.074  11.782  0.4585  0.1516 -0.2933
10489TIP3    H252959   0.110   6.185  11.732  1.3041 -0.1517  0.5550
10490TIP3   OH252960   4.957   5.799   0.734 -0.3892 -0.2085  0.3061
10490TIP3    H152961   4.932   5.892   0.738  0.6566  0.1106 -0.1024
10490TIP3    H252962   5.051   5.799   0.754 -0.2777 -1.1298 -0.1831
10491TIP3   OH252963   5.309   0.950  11.556  0.2655 -0.4130  0.4519
10491TIP3    H152964   5.332   0.890  11.486 -2.8775  1.1537 -2.1916
10491TIP3    H252965   5.290   1.033  11.512  0.8831  1.5352  3.5227
10492TIP3   OH252966   5.811   5.089  13.662 -0.6806 -0.0149  0.2648
10492TIP3    H152967   5.829   5.169  13.712 -0.9722 -0.1187  0.5401
10492TIP3    H252968   5.896   5.044  13.658 -0.7449 -0.2352  1.0816
10493TIP3   OH252969   6.661   1.137  15.287  0.2780 -0.2518 -0.2769
10493TIP3    H152970   6.724   1.126  15.216  0.0957 -0.2009 -0.4477
10493TIP3    H252971   6.585   1.087  15.258 -0.0204  0.2645 -0.3912
10494TIP3   OH252972   1.816   1.080   0.635  0.0461 -0.4061  0.5901
10494TIP3    H152973   1.806   1.123   0.550 -2.1780 -0.3007  0.8292
10494TIP3    H252974   1.861   1.144   0.689  0.5629 -0.0654 -0.2219
10495TIP3   OH252975   2.475   5.306   0.840 -0.2478  0.2322 -0.0781
10495TIP3    H152976   2.425   5.350   0.908 -0.1614 -0.6330  0.5557
10495TIP3    H252977   2.566   5.333   0.856 -0.2604  0.2307 -0.0048
10496TIP3   OH252978   3.358   0.425  11.221 -0.2270 -0.2172 -0.0692
10496TIP3    H152979   3.415   0.377  11.281  0.5500 -0.3446 -0.8992
10496TIP3    H252980   3.417   0.478  11.168 -0.7497 -1.2677 -1.7857
10497TIP3   OH252981   1.692   5.418  10.855  0.5798  0.1453 -0.2351
10497TIP3    H152982   1.737   5.452  10.777 -0.3641  0.7129 -0.5444
10497TIP3    H252983   1.763   5.389  10.912  1.3107  0.2112 -1.0753
10498TIP3   OH252984   0.670   3.632  11.319  0.1848  0.1238 -0.1106
10498TIP3    H152985   0.608   3.608  11.249 -0.9796 -3.2734  1.8327
10498TIP3    H252986   0.751   3.654  11.273 -0.7742 -1.1280 -2.5763
10499TIP3   OH252987   6.611   4.024   0.246  0.0306 -0.6387 -0.4207
10499TIP3    H152988   6.579   3.972   0.320  0.2579  1.6922  1.4524
10499TIP3    H252989   6.706   4.011   0.247  0.0841 -0.2493  0.0214
10500TIP3   OH252990   4.214   3.938  15.616  0.3311 -0.2203 -0.7321
10500TIP3    H152991   4.137   3.888  15.642  0.3070 -0.5265 -1.3772
10500TIP3    H252992   4.216   4.013  15.676  0.3326 -0.9577  0.2002
10501TIP3   OH252993   3.196   4.955  15.545 -0.3916  0.2170  0.3148
10501TIP3    H152994   3.165   4.864  15.546 -0.0974  0.1125  0.1670
10501TIP3    H252995   3.120   5.007  15.572 -0.4744 -0.1021  0.7018
10502TIP3   OH252996   2.069   5.868   0.355  0.0683  0.6779  0.0073
10502TIP3    H152997   2.062   5.774   0.375 -0.8918  1.0603  1.6161
10502TIP3    H252998   2.125   5.871   0.277  1.3885 -1.1320  0.7984
10503TIP3   OH252999   4.965   2.729  13.820  0.2772 -1.3104 -0.5055
10503TIP3    H153000   4.914   2.649  13.813  0.3436 -1.2689 -1.7657
10503TIP3    H253001   5.034   2.720  13.754 -0.3355  0.2023 -1.4106
10504TIP3   OH253002   0.042   6.406  16.489 -0.6186 -0.2826  0.4041
10504TIP3    H153003   0.007   6.341  16.549  1.7850 -3.5515 -1.4378
10504TIP3    H253004   0.134   6.415  16.514 -0.4308  0.9745 -0.6251
10505TIP3   OH253005   0.557   3.357  16.471 -0.3115 -0.1251 -0.2059
10505TIP3    H153006   0.633   3.413  16.486  0.2413  0.0092 -2.9348
10505TIP3    H253007   0.485   3.417  16.453 -0.1301 -0.2547 -1.4179
10506TIP3   OH253008   1.964   5.067   5.371 -0.5395 -0.2722  0.0559
10506TIP3    H153009   1.926   5.083   5.458 -1.7872  0.0222 -0.5222
10506TIP3    H253010   2.029   5.136   5.360  0.4383 -0.9700  1.1987
10507TIP3   OH253011   5.480   2.993  11.958  0.0301  0.1936 -0.2681
10507TIP3    H153012   5.461   2.908  11.997 -0.5064 -0.3497 -1.6581
10507TIP3    H253013   5.419   3.000  11.884 -1.6435  2.8271  1.1860
10508TIP3   OH253014   2.852   4.065   2.734  0.2630  1.1170 -0.6886
10508TIP3    H153015   2.876   4.059   2.642  1.6435 -0.5271 -0.2758
10508TIP3    H253016   2.922   4.117   2.773  1.7539 -1.2345  0.0036
10509TIP3   OH253017   3.238   0.372  12.978 -0.0655 -0.0048 -0.1450
10509TIP3    H153018   3.243   0.465  13.003  0.1547  0.2483 -1.0915
10509TIP3    H253019   3.329   0.346  12.966 -0.1927  0.2689 -2.0020
10510TIP3   OH253020   3.258   5.284   0.645  0.2895 -0.3568 -0.4677
10510TIP3    H153021   3.270   5.281   0.740  1.8560 -0.1999 -0.6407
10510TIP3    H253022   3.293   5.370   0.619  0.8031 -0.8011 -1.2948
10511TIP3   OH253023   3.565   6.070   0.179  0.1111  0.0949  0.0157
10511TIP3    H153024   3.567   6.018   0.260 -0.2343 -1.1375 -0.7336
10511TIP3    H253025   3.476   6.106   0.176  0.0937  0.0638  0.1432
10512TIP3   OH253026   3.958   4.651   3.737 -0.1607  0.4226 -0.5803
10512TIP3    H153027   3.989   4.720   3.678 -1.7924 -1.1159 -3.4969
10512TIP3    H253028   4.016   4.577   3.721  0.7808  0.6142  1.5697
10513TIP3   OH253029   2.545   0.964   5.258 -0.6232 -0.0330  0.4920
10513TIP3    H153030   2.614   0.977   5.194 -1.0034 -0.3134  0.0199
10513TIP3    H253031   2.549   1.042   5.314 -1.4115  1.0816 -0.9255
10514TIP3   OH253032   3.052   1.910  11.154  0.1935 -0.2569 -0.7406
10514TIP3    H153033   3.085   1.888  11.066  0.9225  0.5596 -0.6866
10514TIP3    H253034   3.080   2.000  11.168 -1.3977  0.2093 -0.3451
10515TIP3   OH253035   3.511   0.573  10.982 -0.0525  0.1147 -0.6190
10515TIP3    H153036   3.516   0.586  10.887  2.9793 -0.7719 -0.6740
10515TIP3    H253037   3.544   0.654  11.020 -1.2643  0.4703 -0.2740
10516TIP3   OH253038   0.069   6.728  16.645  0.2608 -0.4444 -0.1601
10516TIP3    H153039   0.023   6.644  16.646  0.4404 -0.5495  0.5599
10516TIP3    H253040   0.111   6.732  16.559  0.3018 -1.1274 -0.1799
10517TIP3   OH253041   2.144   3.811  15.236 -0.0449 -0.1140  0.3239
10517TIP3    H153042   2.050   3.793  15.224 -0.5695  0.9960  2.2537
10517TIP3    H253043   2.160   3.889  15.183 -1.4811  2.6510  3.5545
10518TIP3   OH253044   0.770   1.114  13.113 -0.0681  0.0681  0.0802
10518TIP3    H153045   0.857   1.077  13.126  0.1831  1.3685  2.9119
10518TIP3    H253046   0.743   1.084  13.026  3.6475  0.5562 -1.4053
10519TIP3   OH253047   5.207   4.029  12.438 -0.5312  0.4022  0.1850
10519TIP3    H153048   5.145   4.076  12.382 -1.0618 -1.4036 -0.8162
10519TIP3    H253049   5.292   4.041  12.395 -0.7301  0.1287 -0.2990
10520TIP3   OH253050   0.048   4.875   5.049  0.1249  0.2113  0.1533
10520TIP3    H153051   0.112   4.841   4.986  0.3434 -1.9712  1.4720
10520TIP3    H253052  -0.009   4.932   4.996  1.5329  0.1011 -1.5768
10521TIP3   OH253053   4.810   4.322   4.610  0.4344 -0.3536  0.0526
10521TIP3    H153054   4.719   4.300   4.592  0.3502 -0.6702  0.8414
10521TIP3    H253055   4.859   4.279   4.540 -0.1889  1.9322 -1.9153
10522TIP3   OH253056   0.173   4.717  15.791 -0.2265  0.0673  0.1958
10522TIP3    H153057   0.179   4.785  15.858 -1.6048  1.8215 -1.3582
10522TIP3    H253058   0.264   4.697  15.769  0.2112  0.6814  1.3714
10523TIP3   OH253059   2.034   3.299   3.521 -0.2469 -0.3134 -0.1166
10523TIP3    H153060   1.978   3.357   3.469 -0.9628 -0.7883  0.1108
10523TIP3    H253061   2.025   3.330   3.611 -0.0656 -0.3392 -0.0876
10524TIP3   OH253062   1.206   0.381   2.273 -0.1318  0.2765 -0.1744
10524TIP3    H153063   1.217   0.439   2.198  1.9836  0.6630  0.3646
10524TIP3    H253064   1.218   0.293   2.237  0.4284  0.4348 -0.3891
10525TIP3   OH253065   5.153   0.665  13.381 -0.1342  0.2126  0.3787
10525TIP3    H153066   5.121   0.582  13.344 -0.7304 -0.3930  2.1437
10525TIP3    H253067   5.116   0.732  13.323  1.0596 -0.7353 -1.5923
10526TIP3   OH253068   2.532   5.609  15.758  0.4461  0.2052  0.3375
10526TIP3    H153069   2.469   5.557  15.709 -0.7332  0.3405  1.6536
10526TIP3    H253070   2.608   5.551  15.767 -0.0924 -0.5547  0.0934
10527TIP3   OH253071   6.033   1.378   2.389 -0.2723 -0.1282  0.3869
10527TIP3    H153072   5.959   1.318   2.382 -1.1794  0.8270  1.4611
10527TIP3    H253073   6.109   1.325   2.365 -1.5707 -0.2568 -4.3456
10528TIP3   OH253074   0.729   0.544  16.127  0.4569  0.7718  0.4648
10528TIP3    H153075   0.652   0.594  16.154  0.4929  0.5871  0.9193
10528TIP3    H253076   0.798   0.609  16.116 -0.3047  1.2713 -2.1839
10529TIP3   OH253077   4.469   0.357  15.844  0.2112 -0.1697  0.1261
10529TIP3    H153078   4.416   0.326  15.770 -0.1991  0.7117  0.0456
10529TIP3    H253079   4.425   0.320  15.921  0.7797 -1.2921 -0.0719
10530TIP3   OH253080   4.315   1.017   1.278  0.9064 -0.7915  0.2938
10530TIP3    H153081   4.293   0.990   1.189  1.0396 -0.1160  0.0522
10530TIP3    H253082   4.303   0.938   1.330  0.8354 -1.1964 -0.3223
10531TIP3   OH253083   4.139   6.503  13.098 -0.5233  0.1419  0.7336
10531TIP3    H153084   4.052   6.486  13.062 -0.6013  0.9417  0.5238
10531TIP3    H253085   4.164   6.588  13.063  1.3227 -1.0458 -1.0434
10532TIP3   OH253086   2.893   6.298  14.660  0.5354  0.2262  0.2687
10532TIP3    H153087   2.889   6.248  14.742 -0.4603  0.2084  0.2167
10532TIP3    H253088   2.986   6.322  14.652  1.4470 -3.0489 -0.5893
10533TIP3   OH253089   5.455   0.363  12.865  0.4044  0.3624 -0.3283
10533TIP3    H153090   5.509   0.388  12.790  0.1127 -1.8302 -1.3573
10533TIP3    H253091   5.499   0.286  12.902 -0.7811 -0.0688  0.2372
10534TIP3   OH253092   4.916   0.042  12.753  0.4357 -0.1105  0.6476
10534TIP3    H153093   4.883  -0.042  12.721  0.6018 -0.1079  0.4639
10534TIP3    H253094   4.997   0.056  12.704 -1.3400  1.8625 -2.0197
10535TIP3   OH253095   4.046   0.977  11.804 -0.1068  0.3709  0.4883
10535TIP3    H153096   4.138   0.971  11.779 -0.6147  0.9856 -1.7490
10535TIP3    H253097   4.032   1.070  11.822 -0.3189  0.3015  0.6859
10536TIP3   OH253098   0.494   0.152   2.184  0.6734  0.4581  0.1964
10536TIP3    H153099   0.476   0.244   2.201  0.9099  0.2210  1.8335
10536TIP3    H253100   0.557   0.126   2.251  1.3647 -0.6630 -0.8307
10537TIP3   OH253101   0.089   5.681   4.118 -0.2560 -0.3769  0.4623
10537TIP3    H153102   0.097   5.590   4.145 -0.3475 -0.2010  1.1162
10537TIP3    H253103   0.008   5.711   4.158 -0.6087 -0.2090 -0.3638
10538TIP3   OH253104   1.222   6.168  13.871 -0.3504  0.3969  0.2658
10538TIP3    H153105   1.240   6.081  13.906 -1.5367 -0.9494 -2.1962
10538TIP3    H253106   1.306   6.199  13.838  0.0413  0.1471  0.9953
10539TIP3   OH253107   2.152   2.409   1.737 -0.1478  0.6976 -0.1157
10539TIP3    H153108   2.125   2.463   1.663 -0.2920 -0.9411 -1.3220
10539TIP3    H253109   2.143   2.466   1.813 -1.3474  2.0211 -1.1880
10540TIP3   OH253110   3.484   1.513  16.512 -0.1617  0.2098  0.7444
10540TIP3    H153111   3.439   1.482  16.591 -0.4319  0.9797  0.8977
10540TIP3    H253112   3.447   1.599  16.495 -1.1397 -0.5253 -1.0617
10541TIP3   OH253113   2.878   0.498   0.500  0.0362  0.9027  0.1686
10541TIP3    H153114   2.812   0.542   0.554 -0.4449  1.2246 -0.6809
10541TIP3    H253115   2.869   0.537   0.414  2.4154  2.1414  0.3869
10542TIP3   OH253116   2.263   5.214  13.795  0.0578 -0.1067 -0.1689
10542TIP3    H153117   2.355   5.241  13.797  0.4695 -1.4287 -0.3878
10542TIP3    H253118   2.232   5.245  13.710 -0.0230  1.2930  0.3449
10543TIP3   OH253119   2.200   0.450   0.858 -0.0281  0.1481  0.1390
10543TIP3    H153120   2.222   0.489   0.943 -0.9209  1.9926 -0.4417
10543TIP3    H253121   2.274   0.472   0.802  1.3693 -2.4714  0.7504
10544TIP3   OH253122   4.107   6.410   5.606  0.1501  0.0263 -0.4234
10544TIP3    H153123   4.134   6.403   5.697 -0.4372  0.5786 -0.2008
10544TIP3    H253124   4.012   6.423   5.610  0.1246  0.0833 -1.1109
10545TIP3   OH253125   3.059   3.804  13.570  0.4740  0.0274 -0.4186
10545TIP3    H153126   3.069   3.709  13.574  3.1111  0.2490  0.2324
10545TIP3    H253127   3.132   3.833  13.514 -0.1085  1.6878 -0.3722
10546TIP3   OH253128   0.414   6.223   4.101 -0.3265  0.5669  0.1012
10546TIP3    H153129   0.413   6.202   4.194 -0.4782  0.0337 -0.0156
10546TIP3    H253130   0.473   6.158   4.062  0.9164  1.6846  0.0187
10547TIP3   OH253131   2.643   5.602  10.984 -0.6951 -0.0682 -0.5005
10547TIP3    H153132   2.678   5.648  10.907  0.6406 -0.4073 -0.1143
10547TIP3    H253133   2.713   5.608  11.049 -1.2730 -0.9794  0.2178
10548TIP3   OH253134   3.007   5.327  14.177 -0.5307 -0.4887  0.4172
10548TIP3    H153135   2.977   5.417  14.189 -1.0139 -0.6672  0.5693
10548TIP3    H253136   2.937   5.285  14.126 -0.7004 -0.9945  1.0544
10549TIP3   OH253137   5.334   6.329   4.818 -0.2590  0.1032  0.1112
10549TIP3    H153138   5.308   6.301   4.730  0.7617  2.2707 -0.9855
10549TIP3    H253139   5.429   6.318   4.819 -0.2918 -0.1588  1.0582
10550TIP3   OH253140   0.061   3.770  16.770 -0.8571 -0.7520  0.2222
10550TIP3    H153141   0.040   3.843  16.828  0.4571 -0.6965  0.6616
10550TIP3    H253142   0.085   3.699  16.829  3.4931  0.1694 -0.0849
10551TIP3   OH253143   5.578   1.507   1.510 -0.1478  0.4071  0.2694
10551TIP3    H153144   5.529   1.577   1.468  2.8016  1.4343 -1.8006
10551TIP3    H253145   5.644   1.553   1.563  2.1128 -0.6835 -1.4415
10552TIP3   OH253146   5.662   6.252  11.859 -0.4338 -0.0793  0.2997
10552TIP3    H153147   5.605   6.223  11.930 -2.1249  2.8925  0.3259
10552TIP3    H253148   5.608   6.243  11.780 -1.2721  3.1288  0.3724
10553TIP3   OH253149   1.215   4.947  10.772 -0.2192  0.4799  0.4965
10553TIP3    H153150   1.219   5.010  10.701  1.8019 -1.1345 -0.9759
10553TIP3    H253151   1.229   4.862  10.729 -1.7850 -0.8806  2.4951
10554TIP3   OH253152   4.330   3.715   2.804 -0.3573  0.2404  0.1163
10554TIP3    H153153   4.410   3.662   2.811 -0.1710  0.3629 -0.9128
10554TIP3    H253154   4.260   3.655   2.829 -0.0435 -0.1959 -0.0301
10555TIP3   OH253155   1.068   5.618   3.652  0.3654  0.1699 -0.1640
10555TIP3    H153156   1.096   5.704   3.622 -0.7824  1.3197  1.8162
10555TIP3    H253157   1.128   5.596   3.723  0.8098 -0.8263 -0.8147
10556TIP3   OH253158   3.353   2.086   0.624 -0.3099 -0.5426 -0.0712
10556TIP3    H153159   3.334   2.118   0.712 -1.3675  1.2300 -0.8899
10556TIP3    H253160   3.377   1.994   0.637 -2.6786 -0.9848  1.8378
10557TIP3   OH253161   4.513   5.989  17.142  0.0609 -0.4008  0.1249
10557TIP3    H153162   4.467   5.994  17.058 -1.8077  3.1907  1.1799
10557TIP3    H253163   4.470   5.917  17.188  0.3831 -1.7078 -1.4913
10558TIP3   OH253164   0.358   0.114  14.661  0.5570  0.2276 -0.5725
10558TIP3    H153165   0.432   0.107  14.601  0.9900  0.1826 -0.0505
10558TIP3    H253166   0.281   0.105  14.606  0.9480 -0.0390 -1.0895
10559TIP3   OH253167   2.500   5.714  16.239  0.6913 -0.0765 -0.1013
10559TIP3    H153168   2.539   5.728  16.325  1.5393 -0.6771 -0.3728
10559TIP3    H253169   2.537   5.631  16.209 -0.3086 -0.3449 -0.6537
10560TIP3   OH253170   6.582   1.964   6.088  0.4054 -0.1308 -0.0926
10560TIP3    H153171   6.567   1.949   6.181  0.1449 -1.3539 -0.3206
10560TIP3    H253172   6.511   2.023   6.061  0.7493  0.6054  0.5630
10561TIP3   OH253173   5.646   1.936   1.857  0.0666  0.1398 -0.6491
10561TIP3    H153174   5.672   1.872   1.924  2.0011 -1.5360 -2.8521
10561TIP3    H253175   5.722   1.992   1.846 -0.9606  1.7201 -0.0851
10562TIP3   OH253176   2.746   1.084  14.317  0.6634  0.0849  0.3131
10562TIP3    H153177   2.840   1.068  14.305  0.6653  0.5896 -0.3858
10562TIP3    H253178   2.738   1.114  14.408  1.2664  0.6976  0.1690
10563TIP3   OH253179   0.216   0.497   4.860 -0.4821 -0.0868  0.6122
10563TIP3    H153180   0.232   0.449   4.778  0.2559 -0.4248  0.9415
10563TIP3    H253181   0.150   0.562   4.837 -0.5550 -0.4208 -0.1644
10564TIP3   OH253182   4.299   1.002   4.695  0.0303  0.0808 -0.0347
10564TIP3    H153183   4.276   0.943   4.767  0.9001  1.1275  1.1408
10564TIP3    H253184   4.287   1.090   4.731  0.9477  0.6321 -1.0107
10565TIP3   OH253185   6.068   3.773  11.505 -0.1511 -0.0454  0.9631
10565TIP3    H153186   6.058   3.831  11.581  0.3684 -2.0202  2.6354
10565TIP3    H253187   6.162   3.753  11.502 -0.5003 -1.8458  1.2816
10566TIP3   OH253188   6.377   5.105   2.833 -0.7120 -0.7407 -0.0525
10566TIP3    H153189   6.403   5.189   2.794  0.3537 -0.2235  1.6691
10566TIP3    H253190   6.314   5.068   2.771 -0.3513  0.8032 -1.4021
10567TIP3   OH253191   4.028   0.093  14.799  0.5297  0.0121 -0.0727
10567TIP3    H153192   3.977   0.153  14.854  0.6448  0.5275 -0.5127
10567TIP3    H253193   3.991   0.103  14.712  0.8785 -0.1896 -0.2481
10568TIP3   OH253194   2.911   0.660  12.346  0.1419 -0.0093  0.6590
10568TIP3    H153195   2.976   0.731  12.341  0.4603 -0.3325  0.0925
10568TIP3    H253196   2.873   0.656  12.258  0.2045 -0.6134  0.6566
10569TIP3   OH253197   3.758   2.086  14.763 -0.0528 -0.0616  0.2202
10569TIP3    H153198   3.772   1.995  14.734  2.2152  0.2235  0.2349
10569TIP3    H253199   3.800   2.090  14.849 -1.4000  0.6707  0.8733
10570TIP3   OH253200   3.055   0.523  13.176 -0.0631  0.2418 -0.3782
10570TIP3    H153201   2.983   0.553  13.120  0.2994  1.2844 -0.3198
10570TIP3    H253202   3.031   0.435  13.203  0.0833 -0.5820 -2.7624
10571TIP3   OH253203   3.808   4.614  15.690 -0.6505  0.0229  0.0153
10571TIP3    H153204   3.852   4.626  15.606 -1.3647  2.4762 -0.1185
10571TIP3    H253205   3.846   4.535  15.727  0.9607 -0.1406 -1.8269
10572TIP3   OH253206   0.317   0.628   2.066  0.4401 -0.7670 -0.0639
10572TIP3    H153207   0.231   0.587   2.074 -1.0087  2.0338  0.0421
10572TIP3    H253208   0.373   0.575   2.122 -1.7399 -1.4188  1.6780
10573TIP3   OH253209   6.671   2.338  15.548  0.2158 -0.0307  0.4952
10573TIP3    H153210   6.726   2.400  15.500  0.6960 -0.3553  0.6207
10573TIP3    H253211   6.677   2.366  15.639 -1.9804  1.5868  0.2485
10574TIP3   OH253212   4.333   0.035   3.466  0.2898 -0.0040  0.0976
10574TIP3    H153213   4.322   0.029   3.371 -0.4341 -2.3976  0.2725
10574TIP3    H253214   4.290   0.117   3.489  0.3044  0.5335 -1.6024
10575TIP3   OH253215   6.089   5.089  16.889  0.5235  0.1403  0.4942
10575TIP3    H153216   6.104   5.105  16.796 -0.3341 -0.8965  0.1538
10575TIP3    H253217   6.176   5.074  16.925  0.7765 -0.7523 -0.4165
10576TIP3   OH253218   1.157   4.649  14.931  0.2749  0.5569 -0.3859
10576TIP3    H153219   1.224   4.598  14.886  0.5405  0.4861  0.0915
10576TIP3    H253220   1.205   4.710  14.986 -0.0432 -0.0736  0.6165
10577TIP3   OH253221   4.866   4.745  14.555  0.2356  0.3552 -0.6008
10577TIP3    H153222   4.898   4.828  14.519 -0.2141  1.1704  0.8002
10577TIP3    H253223   4.900   4.743  14.644 -2.0494  0.4001  0.3442
10578TIP3   OH253224   1.944   4.976   0.726  0.0165 -0.3826  0.3053
10578TIP3    H153225   2.028   4.990   0.770  0.4299  0.8279 -0.7938
10578TIP3    H253226   1.904   5.063   0.722 -0.2636 -0.5434 -1.1520
10579TIP3   OH253227   2.684   3.345   4.489 -0.2766  0.1217 -0.0752
10579TIP3    H153228   2.760   3.296   4.457  0.4470  1.2263 -0.1191
10579TIP3    H253229   2.715   3.387   4.570 -0.2150  2.0962 -1.0645
10580TIP3   OH253230   2.189   2.009  16.685  0.2929  0.3411 -0.0966
10580TIP3    H153231   2.183   2.077  16.752 -0.0600 -0.5865  0.8388
10580TIP3    H253232   2.098   1.986  16.666  0.4112  0.0163 -0.2849
10581TIP3   OH253233   1.995   6.465   3.787  0.1180  0.2681 -0.2390
10581TIP3    H153234   1.901   6.480   3.771  0.0340 -0.1038 -0.1121
10581TIP3    H253235   2.039   6.509   3.714 -0.1645  0.3040 -0.3900
10582TIP3   OH253236   3.085   4.031   1.822 -0.4204 -0.3871 -0.4066
10582TIP3    H153237   3.123   3.956   1.868  1.7843  0.4824 -0.7051
10582TIP3    H253238   3.046   4.084   1.892  1.7622  0.2763  0.3997
10583TIP3   OH253239   5.553   0.150  16.115 -0.2478 -0.4704 -0.0682
10583TIP3    H153240   5.631   0.105  16.085 -1.6080 -1.1583 -2.9131
10583TIP3    H253241   5.510   0.088  16.174  0.3089 -0.9338 -0.1453
10584TIP3   OH253242   1.736   5.734   0.078  0.1517  0.0329 -1.2298
10584TIP3    H153243   1.764   5.799   0.143  3.0390 -1.8444 -0.4289
10584TIP3    H253244   1.684   5.671   0.128  0.0767  0.0332 -1.3078
10585TIP3   OH253245   6.577   3.554   1.761 -0.0233  0.2664  0.0341
10585TIP3    H153246   6.491   3.578   1.795 -0.1379  0.7425 -0.5644
10585TIP3    H253247   6.560   3.479   1.704  0.0896 -0.1872  0.5883
10586TIP3   OH253248   3.258   2.639   6.166 -0.0453  0.0234 -0.0370
10586TIP3    H153249   3.177   2.590   6.149 -0.2086  0.9347 -2.2510
10586TIP3    H253250   3.241   2.685   6.249 -1.7421  0.0630 -0.3672
10587TIP3   OH253251   3.375   0.895   3.704 -0.1257  0.1422 -0.1637
10587TIP3    H153252   3.394   0.802   3.712  0.2357  0.0878 -1.5554
10587TIP3    H253253   3.460   0.938   3.713 -0.3753  0.4177  1.1930
10588TIP3   OH253254   2.750   2.847  17.012 -0.2246 -0.2642  0.1656
10588TIP3    H153255   2.731   2.921  17.071 -1.0143 -0.2411 -0.1028
10588TIP3    H253256   2.844   2.853  16.996 -0.2554  0.6067  0.2548
10589TIP3   OH253257   6.285   1.379   6.554  0.8854 -0.2395 -0.5206
10589TIP3    H153258   6.221   1.309   6.543  0.6245 -0.4444  1.7494
10589TIP3    H253259   6.237   1.459   6.534  0.1168 -0.4554  0.3777
10590TIP3   OH253260   4.450   5.497   0.939  0.4074  0.0921 -0.1443
10590TIP3    H153261   4.415   5.583   0.961  2.1086  1.3838 -2.1347
10590TIP3    H253262   4.502   5.472   1.016 -0.4902  0.5890  0.6473
10591TIP3   OH253263   2.007   2.856  12.495  0.2762 -0.1283  0.3677
10591TIP3    H153264   1.916   2.872  12.469  0.0546  0.2845  1.3387
10591TIP3    H253265   2.057   2.921  12.445  0.3505 -1.8670 -1.9571
10592TIP3   OH253266   0.172   2.715   2.926 -0.4208 -0.1880  0.3712
10592TIP3    H153267   0.127   2.725   2.842 -0.3946 -2.1908  0.0771
10592TIP3    H253268   0.106   2.675   2.983  0.2726 -1.0504  0.5874
10593TIP3   OH253269   6.205   1.487  15.662  0.6272 -0.1235 -0.6552
10593TIP3    H153270   6.238   1.397  15.658 -0.0822 -0.3423 -2.9720
10593TIP3    H253271   6.204   1.516  15.571 -0.9196  1.5928 -0.1415
10594TIP3   OH253272   1.888   1.079  14.809 -0.1278  0.1148  0.3599
10594TIP3    H153273   1.885   1.106  14.901  1.2199  0.7880  0.2281
10594TIP3    H253274   1.901   1.160  14.760  1.1338 -0.4491 -0.2669
10595TIP3   OH253275   0.339   2.443   0.140 -0.1648  0.3839 -0.0401
10595TIP3    H153276   0.316   2.351   0.125  0.0293  0.3979 -0.4472
10595TIP3    H253277   0.281   2.471   0.211  1.5597 -0.7720  1.9327
10596TIP3   OH253278   1.908   0.373  11.806  0.0496  0.0717  0.3179
10596TIP3    H153279   1.899   0.289  11.762 -1.2441 -0.5811  1.7611
10596TIP3    H253280   1.948   0.430  11.740 -0.1452 -1.3358 -1.0750
10597TIP3   OH253281   2.787   5.745  10.777  0.1572  0.2763 -0.2000
10597TIP3    H153282   2.867   5.788  10.806 -0.2608  1.0784 -0.2192
10597TIP3    H253283   2.740   5.811  10.726 -0.6337 -0.1002  0.0108
10598TIP3   OH253284   2.275   3.728  14.876  0.6368 -0.2914 -0.0161
10598TIP3    H153285   2.184   3.698  14.880 -0.3434  2.3790 -0.4653
10598TIP3    H253286   2.311   3.706  14.962 -0.9783  0.1504  0.8149
10599TIP3   OH253287   1.514   3.095  14.486 -0.3611 -0.0610  0.3523
10599TIP3    H153288   1.588   3.129  14.435  0.4978 -1.2756  0.7584
10599TIP3    H253289   1.500   3.161  14.554  2.6461 -1.3602  2.4208
10600TIP3   OH253290   6.410   1.326  12.505 -0.0271 -0.5828  0.0862
10600TIP3    H153291   6.466   1.308  12.581 -0.8195  0.8342  1.0686
10600TIP3    H253292   6.470   1.344  12.434  0.7843  0.1548  0.9281
10601TIP3   OH253293   6.326   5.605  13.709 -0.6151  0.3848  0.2496
10601TIP3    H153294   6.245   5.651  13.732 -0.6827 -0.5275  1.9883
10601TIP3    H253295   6.304   5.512  13.712  0.4709  0.1227  0.6941
10602TIP3   OH253296   3.426   6.744  14.240 -0.0149 -0.0080 -0.7560
10602TIP3    H153297   3.436   6.650  14.260 -2.3899 -0.0633  0.5629
10602TIP3    H253298   3.390   6.746  14.151 -0.3032 -0.3801 -0.6517
10603TIP3   OH253299   2.799   4.230   0.817 -0.3148  0.1043 -0.4826
10603TIP3    H153300   2.802   4.284   0.738  0.6119 -0.7349 -1.0534
10603TIP3    H253301   2.891   4.209   0.835 -0.2698  1.9308  2.0186
10604TIP3   OH253302   5.908   5.772  16.634  0.0152 -0.1711  0.0927
10604TIP3    H153303   5.983   5.797  16.688  0.6914 -1.8469 -0.0046
10604TIP3    H253304   5.923   5.679  16.614 -1.2850 -0.1253 -1.2408
10605TIP3   OH253305   2.048   6.814   0.190  0.3238  0.2016 -0.3302
10605TIP3    H153306   2.096   6.770   0.121  1.3226  1.0470 -0.1954
10605TIP3    H253307   2.067   6.907   0.177  0.0051  0.4201  0.6896
10606TIP3   OH253308   6.438   1.376  15.967  0.0372 -0.3567 -0.1221
10606TIP3    H153309   6.447   1.297  16.020  2.1215  0.0214  0.1718
10606TIP3    H253310   6.518   1.380  15.916 -0.1772  1.3805 -0.3811
10607TIP3   OH253311   4.391   0.826  15.634  0.2258  0.6204 -0.4021
10607TIP3    H153312   4.311   0.843  15.683  1.1699  0.7113  1.1607
10607TIP3    H253313   4.439   0.762  15.687  1.2415  0.6430 -1.2457
10608TIP3   OH253314   0.023   4.338  16.263 -0.5313 -0.4573 -0.1078
10608TIP3    H153315   0.039   4.401  16.333  0.3559 -1.1055  0.2931
10608TIP3    H253316  -0.040   4.276  16.300 -0.5505 -0.4360 -0.1054
10609TIP3   OH253317   0.295   2.649   4.525 -0.2324  0.1238  0.3472
10609TIP3    H153318   0.326   2.624   4.438 -0.4982  1.4711 -0.1528
10609TIP3    H253319   0.204   2.676   4.511  0.0440  1.3618  0.8438
10610TIP3   OH253320   5.294   4.207  13.389  0.5547  0.1778 -0.4396
10610TIP3    H153321   5.238   4.138  13.354 -0.0365  1.0137 -1.1978
10610TIP3    H253322   5.303   4.186  13.482 -0.8771 -0.0836 -0.3352
10611TIP3   OH253323   3.639   6.153  14.926 -0.6092  0.1013  0.3518
10611TIP3    H153324   3.615   6.240  14.957  1.2314  0.8716 -0.2639
10611TIP3    H253325   3.706   6.123  14.988 -1.6037 -1.1242  0.8751
10612TIP3   OH253326   3.397   0.900   2.731  0.5449 -0.0469  0.2128
10612TIP3    H153327   3.323   0.891   2.670  2.5566  4.8174 -3.7168
10612TIP3    H253328   3.361   0.949   2.805 -0.6292  0.4607 -0.6570
10613TIP3   OH253329   1.457   5.162  16.875 -0.2352  0.2290  0.6361
10613TIP3    H153330   1.477   5.144  16.784  1.3106 -1.1279  1.2018
10613TIP3    H253331   1.373   5.119  16.891 -1.4391  1.9898 -0.5592
10614TIP3   OH253332   6.121   0.328  13.937 -0.3568 -0.1276  0.2097
10614TIP3    H153333   6.067   0.380  13.997 -0.7876  1.5010 -1.5114
10614TIP3    H253334   6.082   0.241  13.940 -2.1153  0.6102  0.2390
10615TIP3   OH253335   3.403   6.010  13.111  0.6287 -0.2872  0.0346
10615TIP3    H153336   3.373   5.989  13.199  0.7675  1.0524  0.4212
10615TIP3    H253337   3.437   6.099  13.117  1.5956 -0.5481 -1.1503
10616TIP3   OH253338   5.260   0.361  16.836  0.2552 -0.4845  0.1811
10616TIP3    H153339   5.225   0.326  16.754  0.5514 -0.4066  0.0197
10616TIP3    H253340   5.347   0.395  16.813 -0.1233  0.5704  0.2826
10617TIP3   OH253341   6.628   0.949   4.681  0.2158 -0.2393 -0.2574
10617TIP3    H153342   6.559   1.015   4.674  0.5580  0.0807 -0.6498
10617TIP3    H253343   6.693   0.987   4.740  0.3948 -0.2338 -0.4535
10618TIP3   OH253344   5.933   5.037   5.680 -0.7878  0.0638  0.4838
10618TIP3    H153345   6.019   5.002   5.702 -0.7653 -0.4232 -0.3205
10618TIP3    H253346   5.952   5.110   5.620 -0.8324  1.5065  2.1535
10619TIP3   OH253347   1.477   1.567  17.104 -0.3283 -0.4700 -0.0835
10619TIP3    H153348   1.476   1.517  17.185 -0.0578  0.2863  0.3995
10619TIP3    H253349   1.469   1.501  17.035  1.8911 -1.3960  0.4448
10620TIP3   OH253350   6.487   2.190  11.682  0.3801 -0.0328  0.1312
10620TIP3    H153351   6.461   2.265  11.734 -0.1019  1.3668 -1.9905
10620TIP3    H253352   6.577   2.209  11.656  0.0641  0.1377 -0.8937
10621TIP3   OH253353   2.429   4.698   0.064  0.3660 -0.9832  0.2316
10621TIP3    H153354   2.497   4.735   0.008 -1.3596  2.1306 -0.0438
10621TIP3    H253355   2.476   4.638   0.122  2.7914 -1.4024 -1.9690
10622TIP3   OH253356   6.696   2.527  13.223 -0.1623 -0.8013 -0.2410
10622TIP3    H153357   6.791   2.521  13.223  0.1418  2.4566 -0.7853
10622TIP3    H253358   6.675   2.590  13.292 -1.9022 -1.0492 -0.4768
10623TIP3   OH253359   0.061   1.419  14.892 -0.4328 -0.5042  0.6590
10623TIP3    H153360   0.008   1.493  14.923  0.1856 -0.2835  1.2083
10623TIP3    H253361   0.023   1.397  14.807  0.9225  2.0983 -0.7650
10624TIP3   OH253362   6.102   3.274  17.012 -0.2577 -0.1721  0.1100
10624TIP3    H153363   6.170   3.257  17.077  2.0327  0.5753 -1.9150
10624TIP3    H253364   6.058   3.353  17.043  0.0923 -0.4123  1.2505
10625TIP3   OH253365   1.958   5.789   1.417 -0.5812  0.4307 -0.1573
10625TIP3    H153366   2.001   5.807   1.334  0.7963 -0.1515  0.3918
10625TIP3    H253367   1.977   5.865   1.472  1.7906 -0.7633  0.8304
10626TIP3   OH253368   3.168   6.529  16.353 -0.1502  0.4014  0.0231
10626TIP3    H153369   3.191   6.553  16.442 -0.7368 -0.1137  0.3235
10626TIP3    H253370   3.245   6.552  16.301  0.7030 -0.4922  0.8565
10627TIP3   OH253371   5.042   6.543   3.547 -0.0756  0.1702  0.2336
10627TIP3    H153372   4.990   6.615   3.511 -0.0001  0.4788  0.7334
10627TIP3    H253373   5.014   6.536   3.638  1.1557  0.7187  0.6700
10628TIP3   OH253374   6.201   0.846  13.360 -0.0963 -0.5949 -0.3224
10628TIP3    H153375   6.236   0.907  13.425  0.9257 -1.0535 -0.4215
10628TIP3    H253376   6.106   0.848  13.373  0.0390 -0.0626  0.6272
10629TIP3   OH253377   5.235   4.767   1.974  0.0029 -0.0394  0.2475
10629TIP3    H153378   5.218   4.852   1.933  0.6235 -0.4717 -0.9755
10629TIP3    H253379   5.218   4.781   2.067  0.3027  1.4787  0.1000
10630TIP3   OH253380   4.684   1.364  15.675 -0.3381 -0.0036  0.2518
10630TIP3    H153381   4.749   1.400  15.614 -0.7261 -1.7225 -1.2811
10630TIP3    H253382   4.624   1.436  15.693  1.2625  1.2725  0.7228
10631TIP3   OH253383   5.067   0.091  14.941 -0.6229 -0.1232  0.2648
10631TIP3    H153384   5.079   0.024  14.875  0.1890  0.2464  0.0175
10631TIP3    H253385   5.039   0.044  15.019  1.0063 -0.9186  0.4214
10632TIP3   OH253386   3.442   2.264  13.679  0.5408  0.3161  0.1138
10632TIP3    H153387   3.380   2.196  13.654  1.8319 -0.4495 -1.1746
10632TIP3    H253388   3.388   2.335  13.712 -1.1105  0.0814 -1.9062
10633TIP3   OH253389   1.183   0.787  12.537 -0.0987 -0.5808 -0.0883
10633TIP3    H153390   1.164   0.878  12.562  0.9074 -1.0961  2.9424
10633TIP3    H253391   1.233   0.795  12.455 -1.9045  1.4079 -1.1272
10634TIP3   OH253392   1.472   4.345   3.031 -0.0470 -0.0321 -0.2330
10634TIP3    H153393   1.391   4.377   3.071 -0.6706 -1.5073 -0.2574
10634TIP3    H253394   1.542   4.386   3.082 -0.7285  2.4443 -1.1144
10635TIP3   OH253395   6.661   4.292  15.078  0.1158  0.0268  0.3571
10635TIP3    H153396   6.716   4.270  15.153  1.2604  0.2465 -0.3889
10635TIP3    H253397   6.630   4.208  15.045 -1.3648 -0.0223  1.7418
10636TIP3   OH253398   6.061   5.071  12.069 -0.5503  0.3773  0.4642
10636TIP3    H153399   6.134   5.131  12.084  0.5492 -0.2689 -1.7667
10636TIP3    H253400   5.987   5.127  12.047 -0.3743  0.9999  1.4127
10637TIP3   OH253401   2.159   5.420   3.796  0.3588 -0.1001 -0.0642
10637TIP3    H153402   2.154   5.501   3.745  0.7419 -0.5665 -0.8641
10637TIP3    H253403   2.219   5.441   3.867  1.6124 -0.0812 -1.0817
10638TIP3   OH253404   5.346   5.530   0.136  0.0886  0.7085  0.1599
10638TIP3    H153405   5.316   5.587   0.065 -0.0447  0.7845  0.2765
10638TIP3    H253406   5.279   5.538   0.204  1.1822  2.2363  1.1506
10639TIP3   OH253407   4.532   3.458  15.013 -0.1154 -0.5867  0.5643
10639TIP3    H153408   4.576   3.459  14.928  3.0203 -0.0202  2.0454
10639TIP3    H253409   4.490   3.372  15.017  1.8007 -1.6606 -0.6156
10640TIP3   OH253410   4.978   0.603  15.691  0.2050  0.2038  0.7108
10640TIP3    H153411   4.948   0.679  15.641  0.5107  0.6144  1.1481
10640TIP3    H253412   4.924   0.531  15.659 -0.8522  0.8168  1.0769
10641TIP3   OH253413   0.493   2.744  13.493 -0.1533  0.0309 -0.2823
10641TIP3    H153414   0.489   2.794  13.574  1.0316 -0.4152  0.0795
10641TIP3    H253415   0.543   2.799  13.433 -1.6330  0.6723 -0.9713
10642TIP3   OH253416   5.160   0.327   3.861  1.2284  0.0332  0.0350
10642TIP3    H153417   5.158   0.317   3.766  2.1619  1.0448 -0.1156
10642TIP3    H253418   5.238   0.380   3.878  0.0981  1.4385  1.1923
10643TIP3   OH253419   4.939   0.758  14.908  0.5361 -0.0444  0.0282
10643TIP3    H153420   4.865   0.798  14.863 -0.3299 -1.0696  0.4968
10643TIP3    H253421   4.981   0.703  14.842  0.6478  0.2322 -0.1312
10644TIP3   OH253422   1.153   2.716  13.395 -0.8169 -0.1187 -0.1281
10644TIP3    H153423   1.093   2.686  13.463 -0.7204  0.9342  0.4445
10644TIP3    H253424   1.107   2.696  13.313 -0.6561 -1.9745  0.2011
10645TIP3   OH253425   3.600   2.217   4.368 -0.4440 -0.5205  0.1781
10645TIP3    H153426   3.606   2.147   4.303  1.3843 -0.6070  0.3849
10645TIP3    H253427   3.526   2.192   4.424 -0.4671 -1.7402 -0.3695
10646TIP3   OH253428   4.560   4.788   2.366 -0.7435  0.0555 -0.0387
10646TIP3    H153429   4.552   4.805   2.272  0.3087 -1.0647 -0.3613
10646TIP3    H253430   4.614   4.861   2.399  1.9629 -1.3475 -1.0113
10647TIP3   OH253431   0.653   0.703   0.120 -0.1487 -0.1911  0.0246
10647TIP3    H153432   0.717   0.668   0.182 -0.3271  0.7312  0.7600
10647TIP3    H253433   0.706   0.749   0.055 -0.0508  0.7916  0.7746
10648TIP3   OH253434   2.233   1.386   1.035 -0.3701 -0.2628  0.8756
10648TIP3    H153435   2.209   1.322   1.101 -2.3501 -0.3739  0.1015
10648TIP3    H253436   2.252   1.334   0.956 -2.0567  0.0506  0.2229
10649TIP3   OH253437   3.552   0.128  10.506 -0.0908  0.1698 -0.5683
10649TIP3    H153438   3.462   0.117  10.537 -0.4839  1.0013 -1.3748
10649TIP3    H253439   3.543   0.171  10.421  1.0599 -0.0390 -0.8102
10650TIP3   OH253440   3.893   0.865  16.683  0.0876 -0.0195  0.3526
10650TIP3    H153441   3.901   0.949  16.639  0.4303  0.2399  0.8999
10650TIP3    H253442   3.947   0.874  16.762 -0.9926 -0.2547  1.1396
10651TIP3   OH253443   3.253   2.595  10.710  0.2088 -0.7422 -0.2595
10651TIP3    H153444   3.166   2.560  10.692  0.9175 -2.3169 -0.8938
10651TIP3    H253445   3.238   2.683  10.743 -1.5770 -0.7093 -1.0639
10652TIP3   OH253446   1.068   0.245  13.714 -0.0974  0.4511 -0.7409
10652TIP3    H153447   1.001   0.308  13.687 -1.3444  0.5240  2.1253
10652TIP3    H253448   1.151   0.289  13.695 -0.8904  1.7452 -1.3998
10653TIP3   OH253449   6.703   2.964  14.204  0.1829 -0.2961  0.5986
10653TIP3    H153450   6.613   2.981  14.176  1.5094  3.8084 -2.0205
10653TIP3    H253451   6.719   3.026  14.276  1.0367 -0.6929  0.7707
10654TIP3   OH253452   6.474   2.381   0.294  0.7804 -0.4203 -0.2556
10654TIP3    H153453   6.483   2.411   0.385 -0.1035  0.1439 -0.3495
10654TIP3    H253454   6.387   2.342   0.290 -0.6353  2.5224 -1.6384
10655TIP3   OH253455   0.263   0.301  14.820  0.4783 -0.0334 -0.2587
10655TIP3    H153456   0.250   0.377  14.764 -0.8747  0.0730  0.1598
10655TIP3    H253457   0.292   0.232  14.760  2.2262  0.9073 -0.5657
10656TIP3   OH253458   0.822   5.544   3.727 -0.5372  0.3204  0.0922
10656TIP3    H153459   0.910   5.582   3.723 -0.0036 -0.7841  0.9636
10656TIP3    H253460   0.804   5.533   3.820 -1.2969 -0.1457 -0.0990
10657TIP3   OH253461   0.671   3.272   5.238  0.6587  0.3943 -0.3839
10657TIP3    H153462   0.739   3.303   5.297  0.0782  1.7454 -0.3842
10657TIP3    H253463   0.663   3.178   5.257  0.2639  0.8406  1.9324
10658TIP3   OH253464   0.751   5.239  10.787 -0.2348  0.6052  0.5825
10658TIP3    H153465   0.712   5.308  10.839 -0.7581  0.6684  0.1118
10658TIP3    H253466   0.812   5.285  10.728 -0.7579  0.6951  0.1068
10659TIP3   OH253467   6.543   0.718   2.432  0.3253  0.7353  0.2150
10659TIP3    H153468   6.595   0.643   2.401  0.9405  0.6760  1.3556
10659TIP3    H253469   6.523   0.698   2.523 -1.2536  1.0300 -0.0406
10660TIP3   OH253470   1.978   6.556  15.675  0.3299 -0.0708 -0.0736
10660TIP3    H153471   2.035   6.485  15.644 -2.0572 -2.9167  1.5532
10660TIP3    H253472   1.971   6.615  15.600  1.3639 -2.2509 -2.0407
10661TIP3   OH253473   0.112   1.067   0.638 -0.1073  0.0556 -0.5767
10661TIP3    H153474   0.132   1.159   0.652 -0.4560 -0.1198  1.4458
10661TIP3    H253475   0.197   1.025   0.624  0.2329  0.4242  0.3485
10662TIP3   OH253476   5.810   0.315   2.167 -0.1369  0.4544 -0.9347
10662TIP3    H153477   5.798   0.285   2.077 -1.2978  0.0660 -0.6673
10662TIP3    H253478   5.905   0.326   2.177  0.2270 -1.6544 -1.5201
10663TIP3   OH253479   4.631   6.743  15.514 -0.0696  1.1228  0.7318
10663TIP3    H153480   4.586   6.667  15.551 -0.9545  0.7528 -1.0033
10663TIP3    H253481   4.570   6.816  15.528  1.1722  1.7785  3.2376
10664TIP3   OH253482   3.461   1.611  13.817  0.2754  0.3730  0.5469
10664TIP3    H153483   3.438   1.518  13.825 -2.4520  0.8759 -0.6876
10664TIP3    H253484   3.547   1.610  13.774  0.0965 -1.5500  0.1312
10665TIP3   OH253485   3.201   3.769   2.958  0.2402  0.1033 -0.3373
10665TIP3    H153486   3.119   3.804   2.992  1.8543  1.6581  2.2323
10665TIP3    H253487   3.223   3.828   2.885 -0.7665 -0.1989 -0.9109
10666TIP3   OH253488   6.324   6.509   5.367 -0.1017  0.1705  0.5230
10666TIP3    H153489   6.273   6.433   5.396  3.4775 -1.8146  2.1961
10666TIP3    H253490   6.350   6.489   5.278 -0.1110 -0.0235  0.5638
10667TIP3   OH253491   6.802   3.529  14.410 -0.1116  0.2236  0.1248
10667TIP3    H153492   6.780   3.509  14.501  0.6962  0.0878  0.2921
10667TIP3    H253493   6.857   3.456  14.382 -0.9238 -0.0948 -0.7012
10668TIP3   OH253494   1.478   0.895  16.063  0.4428  0.2703  0.2492
10668TIP3    H153495   1.438   0.809  16.059  0.4671  0.2221  1.0324
10668TIP3    H253496   1.560   0.886  16.015  1.4307 -0.6917  2.0300
10669TIP3   OH253497   1.227   5.000   4.486 -0.1663  0.1574 -0.2001
10669TIP3    H153498   1.168   5.071   4.510  0.6015  0.6189  0.3784
10669TIP3    H253499   1.223   4.997   4.390 -0.4982  0.7247 -0.2094
10670TIP3   OH253500   6.779   6.323   4.873 -0.4096  0.5930 -0.1228
10670TIP3    H153501   6.774   6.305   4.779  1.0248 -0.5584 -0.0013
10670TIP3    H253502   6.787   6.418   4.878  1.7724  0.5464 -1.3242
10671TIP3   OH253503   6.327   4.495   3.508  0.2888 -0.7002 -0.0276
10671TIP3    H153504   6.231   4.490   3.509  0.1073  1.7839  0.4126
10671TIP3    H253505   6.349   4.508   3.416 -0.0121  1.1841  0.1373
10672TIP3   OH253506   2.491   3.237   0.329  0.5983 -0.5243 -0.3371
10672TIP3    H153507   2.476   3.289   0.250  3.0591 -0.2469 -0.6956
10672TIP3    H253508   2.586   3.224   0.332  0.3394 -2.6843  1.2262
10673TIP3   OH253509   2.932   2.556  10.408  0.5631 -0.5250  0.2843
10673TIP3    H153510   2.964   2.572  10.497  0.3293  0.1964  0.2460
10673TIP3    H253511   2.837   2.555  10.417  0.5469 -0.7842  0.0941
10674TIP3   OH253512   4.974   5.666   1.324 -0.6924 -0.1622 -0.1022
10674TIP3    H153513   4.941   5.680   1.235  1.8463  0.2867 -1.0656
10674TIP3    H253514   5.066   5.643   1.312 -0.3085 -0.2421  2.4331
10675TIP3   OH253515   4.023   4.125   2.246  0.0455 -0.6439  0.9183
10675TIP3    H153516   3.938   4.092   2.217 -1.1837  2.6460  0.4390
10675TIP3    H253517   4.087   4.073   2.197 -1.7044 -1.8047 -0.2512
10676TIP3   OH253518   1.752   3.297   4.016 -0.1424  0.0870  0.0701
10676TIP3    H153519   1.689   3.366   4.034 -0.5220  0.3371 -1.9915
10676TIP3    H253520   1.837   3.339   4.026 -0.2300 -0.1728  2.5534
10677TIP3   OH253521   0.224   3.128   4.312  0.4037 -0.5223 -0.0042
10677TIP3    H153522   0.223   3.176   4.395 -1.3484  0.5299 -0.5742
10677TIP3    H253523   0.245   3.194   4.246  1.6438 -1.3194 -0.4418
10678TIP3   OH253524   2.085   6.644   0.424 -0.8915  0.6758  0.3288
10678TIP3    H153525   2.073   6.705   0.351  1.0480 -1.7630 -2.2714
10678TIP3    H253526   2.172   6.665   0.459 -0.1679 -0.5751 -0.6518
10679TIP3   OH253527   0.447   4.869   5.402  0.8674  0.2810 -0.6218
10679TIP3    H153528   0.373   4.845   5.346  0.9408 -2.1094  0.1869
10679TIP3    H253529   0.523   4.866   5.343  0.5781  0.7064 -1.0198
10680TIP3   OH253530   0.250   2.848  13.731 -0.1014 -0.6186  0.5418
10680TIP3    H153531   0.313   2.902  13.776 -0.3435  1.2346 -1.1979
10680TIP3    H253532   0.296   2.766  13.713  1.8827  0.7134 -0.7696
10681TIP3   OH253533   0.275   3.869  16.172  1.3830 -0.2721 -0.1015
10681TIP3    H153534   0.346   3.898  16.116  1.4165  0.0418  0.1015
10681TIP3    H253535   0.306   3.788  16.211  0.9661 -1.0370 -1.3058
10682TIP3   OH253536   4.607   2.257   4.259 -0.1225  0.4163 -0.1977
10682TIP3    H153537   4.545   2.268   4.187 -0.5756  2.8152  0.4607
10682TIP3    H253538   4.644   2.345   4.272  0.6379 -0.1472  1.8721
10683TIP3   OH253539   3.023   2.071  10.347  0.0388  0.1883  0.6180
10683TIP3    H153540   2.963   2.130  10.391 -2.5998 -1.4859 -0.4879
10683TIP3    H253541   2.974   1.989  10.337  2.4900 -1.2821 -0.4618
10684TIP3   OH253542   0.895   0.418  14.705  0.3605 -0.2354  0.3710
10684TIP3    H153543   0.921   0.471  14.629 -0.6081 -0.2307  0.0313
10684TIP3    H253544   0.805   0.392  14.686  1.0706 -2.7390  0.1144
10685TIP3   OH253545   6.005   6.143   2.127 -0.4021  0.5886  0.1772
10685TIP3    H153546   5.969   6.218   2.174  1.0033 -0.0607  2.4470
10685TIP3    H253547   5.967   6.149   2.039 -3.1048  1.9305  1.3216
10686TIP3   OH253548   0.941   1.423  13.695  0.3336 -0.6600  0.0075
10686TIP3    H153549   0.861   1.473  13.714 -0.3433 -2.1374  1.3383
10686TIP3    H253550   1.009   1.466  13.747  0.5023  0.7672 -1.3326
10687TIP3   OH253551   2.801   4.758  12.987  0.0208  0.0216  0.5454
10687TIP3    H153552   2.721   4.708  12.975 -1.1389  1.7660  0.6749
10687TIP3    H253553   2.782   4.844  12.950  1.7699  0.5468  0.7544
10688TIP3   OH253554   4.900   6.071   6.176  0.0816 -0.7765 -0.3363
10688TIP3    H153555   4.892   5.991   6.227 -1.0230 -1.2178 -1.1374
10688TIP3    H253556   4.889   6.042   6.085 -0.8276  0.3282 -0.6040
10689TIP3   OH253557   2.182   5.457  14.829 -0.1005  0.7580  0.0462
10689TIP3    H153558   2.161   5.515  14.756 -0.3718 -0.0589 -0.5325
10689TIP3    H253559   2.253   5.401  14.797 -1.9297 -1.3660 -0.5550
10690TIP3   OH253560   3.540   2.650   3.969 -0.8123  0.2526  0.0725
10690TIP3    H153561   3.519   2.571   4.018  0.7743 -0.4578 -0.3268
10690TIP3    H253562   3.573   2.711   4.035 -1.1782  0.2673  0.2462
10691TIP3   OH253563   3.145   3.949   4.267  0.5710 -0.4497 -0.0867
10691TIP3    H153564   3.164   4.008   4.339  2.6683 -1.8790  0.6589
10691TIP3    H253565   3.068   3.900   4.295 -1.2456  1.8699 -0.7543
10692TIP3   OH253566   1.322   6.513  10.960  0.0224 -0.0033 -0.2265
10692TIP3    H153567   1.276   6.497  10.877  1.7805  0.2284 -1.3025
10692TIP3    H253568   1.302   6.604  10.982  0.1998  0.1903 -0.8449
10693TIP3   OH253569   3.364   1.782  12.800  0.4006  0.4901 -0.1005
10693TIP3    H153570   3.348   1.847  12.868 -0.5771  1.7062 -1.4268
10693TIP3    H253571   3.448   1.742  12.823  0.4274  1.3531  1.4095
10694TIP3   OH253572   3.171   5.952   4.084  0.4484 -0.5297 -0.1895
10694TIP3    H153573   3.142   5.944   4.175 -0.4648  0.6210 -0.3641
10694TIP3    H253574   3.246   6.011   4.088  0.0394 -0.0040 -0.2500
10695TIP3   OH253575   4.798   3.677  12.795 -0.2713  0.4858 -0.0918
10695TIP3    H153576   4.852   3.616  12.845 -0.8724  2.1915  2.8414
10695TIP3    H253577   4.721   3.625  12.772 -0.4232 -0.1525  1.6513
10696TIP3   OH253578   4.925   1.850   5.574  0.1754  0.4382  0.3955
10696TIP3    H153579   4.842   1.812   5.602  0.3755  0.1743  0.6373
10696TIP3    H253580   4.989   1.780   5.588  0.3216  0.3787 -0.4953
10697TIP3   OH253581   1.447   0.832   0.560 -0.5753 -0.4822 -0.2682
10697TIP3    H153582   1.525   0.843   0.506 -0.4359 -0.7564 -0.1303
10697TIP3    H253583   1.478   0.778   0.634 -0.9019 -0.6130 -0.2278
10698TIP3   OH253584   4.022   3.497  16.723 -0.0706 -0.4390  0.1301
10698TIP3    H153585   4.092   3.557  16.696  0.3918  0.2120  2.5075
10698TIP3    H253586   3.968   3.487  16.645  0.6554  1.9248 -0.7889
10699TIP3   OH253587   6.497   4.112  12.634  0.0386  0.2514  0.4132
10699TIP3    H153588   6.421   4.099  12.690  0.4762 -2.4148  0.4893
10699TIP3    H253589   6.465   4.094  12.546 -0.1636  2.4685 -0.0276
10700TIP3   OH253590   0.834   5.367  12.240 -0.4590 -0.1077 -0.2108
10700TIP3    H153591   0.909   5.310  12.263 -0.4866  0.2007  0.7035
10700TIP3    H253592   0.874   5.452  12.222 -0.5912  0.1270  0.5378
10701TIP3   OH253593   4.265   0.461  11.226 -0.2330 -0.7727  0.5484
10701TIP3    H153594   4.227   0.469  11.139 -0.1203  1.0354  0.6261
10701TIP3    H253595   4.190   0.447  11.284 -0.5360  0.1967  0.4003
10702TIP3   OH253596   1.637   3.610  16.116 -0.4104  0.5340  0.1712
10702TIP3    H153597   1.688   3.675  16.068 -0.2557  0.9411  0.8810
10702TIP3    H253598   1.683   3.599  16.199  0.3654 -1.5165 -0.4669
10703TIP3   OH253599   5.767   2.922  16.414  0.3610  0.4290  0.2078
10703TIP3    H153600   5.755   3.013  16.387 -2.0336  0.4530  1.1706
10703TIP3    H253601   5.779   2.926  16.508 -2.0880 -0.3624  0.5967
10704TIP3   OH253602   5.762   2.036  16.442 -0.4159  0.3773  0.0003
10704TIP3    H153603   5.745   1.950  16.405  0.4857 -0.9651  2.4932
10704TIP3    H253604   5.686   2.089  16.416 -1.9692 -1.7311  0.0309
10705TIP3   OH253605   4.112   4.752   4.677  0.1474 -0.1997 -0.1425
10705TIP3    H153606   4.116   4.800   4.594  0.2535  0.7922  0.4144
10705TIP3    H253607   4.203   4.743   4.705  0.1249 -0.6912 -0.2146
10706TIP3   OH253608   5.939   3.354  13.951 -0.2602  0.0715 -0.1247
10706TIP3    H153609   5.900   3.326  14.034  0.9408 -0.1396  0.3874
10706TIP3    H253610   5.986   3.277  13.920 -1.5880 -0.2110 -1.5954
10707TIP3   OH253611   0.690   4.019  11.875 -0.0353  0.1879  0.0990
10707TIP3    H153612   0.669   4.101  11.831 -0.6413 -0.1652 -0.2764
10707TIP3    H253613   0.722   4.046  11.962 -1.0830  0.7772  0.3160
10708TIP3   OH253614   6.802   1.025  11.484  0.4884 -0.0913 -0.1107
10708TIP3    H153615   6.888   1.061  11.460  0.3216 -0.3488 -1.1368
10708TIP3    H253616   6.808   0.933  11.459 -0.3899  0.0838 -0.9879
10709TIP3   OH253617   0.567   5.957   5.190 -0.0040 -0.8142 -0.2853
10709TIP3    H153618   0.541   5.865   5.181  0.3346 -0.9293 -0.0944
10709TIP3    H253619   0.662   5.956   5.174  0.1577 -0.6321  0.6286
10710TIP3   OH253620   2.759   1.937  12.970 -0.1438 -0.0374 -0.1636
10710TIP3    H153621   2.778   1.843  12.963  0.0371 -0.1240  1.1226
10710TIP3    H253622   2.673   1.948  12.931  0.0261 -0.6647 -0.7224
10711TIP3   OH253623   2.889   1.153  17.106  1.3062 -1.1563  0.4246
10711TIP3    H153624   2.856   1.086  17.047  1.4313 -0.7039 -0.1598
10711TIP3    H253625   2.972   1.180  17.068 -0.3632  1.8783 -1.3564
10712TIP3   OH253626   4.167   2.294   0.009  0.4455  0.4776  0.3479
10712TIP3    H153627   4.073   2.276   0.009  0.4236  0.5893  0.4886
10712TIP3    H253628   4.176   2.371   0.066  0.5466  0.8228 -0.1273
10713TIP3   OH253629   6.354   4.195  14.842  0.4657  0.0878  0.6049
10713TIP3    H153630   6.343   4.226  14.752  0.1396 -3.5005 -0.7566
10713TIP3    H253631   6.265   4.190  14.877  0.4728  0.1558  0.6343
10714TIP3   OH253632   4.007   0.236  12.219 -0.3747 -0.1710  0.5301
10714TIP3    H153633   4.097   0.263  12.199 -0.1980  0.5603  2.0977
10714TIP3    H253634   4.006   0.142  12.203  0.4790 -0.0763 -0.1512
10715TIP3   OH253635   2.011   4.844   1.078 -0.8193  0.0166  0.7053
10715TIP3    H153636   2.082   4.811   1.024  1.1029  0.3914  2.8745
10715TIP3    H253637   1.943   4.777   1.072  0.8857 -1.8066  0.8684
10716TIP3   OH253638   5.300   4.484  13.587 -0.0745 -0.5217  0.3940
10716TIP3    H153639   5.363   4.555  13.596  0.5612 -0.8241 -1.2625
10716TIP3    H253640   5.259   4.500  13.502 -1.7180 -0.7565  1.0987
10717TIP3   OH253641   1.337   0.910  15.149  0.4158 -0.1773  0.1101
10717TIP3    H153642   1.255   0.902  15.198 -1.6366 -1.9195 -3.2670
10717TIP3    H253643   1.361   1.003  15.158 -3.8502  1.3084 -1.3854
10718TIP3   OH253644   5.851   0.868   3.422  0.0996  0.1201 -0.3228
10718TIP3    H153645   5.780   0.857   3.359  0.7134 -1.8079 -0.7432
10718TIP3    H253646   5.808   0.872   3.507 -0.5813  0.3777 -0.6739
10719TIP3   OH253647   0.842   0.171  16.855 -0.6838  0.1509 -0.3363
10719TIP3    H153648   0.789   0.123  16.792 -1.9677 -0.7608  1.3714
10719TIP3    H253649   0.779   0.216  16.911  0.3027 -0.8142  1.6459
10720TIP3   OH253650   6.060   3.896  14.368 -0.1215  0.1301 -0.4799
10720TIP3    H153651   6.059   3.893  14.464  1.2456 -0.7597 -0.4657
10720TIP3    H253652   6.134   3.953  14.346  0.0414 -0.2776 -1.0072
10721TIP3   OH253653   1.413   3.474  17.191  0.0923  0.3064 -0.7829
10721TIP3    H153654   1.394   3.380  17.191  2.0675 -0.1391 -0.9995
10721TIP3    H253655   1.457   3.488  17.107 -0.1775  1.4395 -0.7415
10722TIP3   OH253656   3.678   3.067  13.947 -0.1210 -0.2757 -0.1316
10722TIP3    H153657   3.756   3.098  13.992  1.2602 -1.0348 -1.8644
10722TIP3    H253658   3.697   3.082  13.854 -1.2328 -2.1698 -0.7218
10723TIP3   OH253659   2.333   6.606   3.800 -0.3945 -0.5682 -0.0162
10723TIP3    H153660   2.320   6.581   3.892 -0.3705  1.8891  0.7062
10723TIP3    H253661   2.427   6.623   3.793 -0.5425  0.1571 -0.2508
10724TIP3   OH253662   3.713   2.663  12.112  0.0596  0.2652  0.1073
10724TIP3    H153663   3.670   2.607  12.047  1.0205 -1.2055  0.6810
10724TIP3    H253664   3.641   2.704  12.160 -0.7218 -1.2818  0.3344
10725TIP3   OH253665   0.397   0.414   1.715 -0.2552 -0.3071 -0.3191
10725TIP3    H153666   0.316   0.372   1.744  0.1024 -0.2964  0.7181
10725TIP3    H253667   0.434   0.353   1.651 -1.0317 -0.3423 -0.7547
10726TIP3   OH253668   6.512   2.060  16.899 -0.2009  0.3428  0.0852
10726TIP3    H153669   6.591   2.007  16.889  0.4527  1.3907 -0.3876
10726TIP3    H253670   6.504   2.073  16.994  0.2713  0.3624  0.1233
10727TIP3   OH253671   1.624   2.183   5.640  0.5509 -0.1092  0.4378
10727TIP3    H153672   1.650   2.209   5.551 -2.9632 -2.1529 -1.3613
10727TIP3    H253673   1.597   2.265   5.681 -0.0280  0.5851 -1.2355
10728TIP3   OH253674   0.459   3.781   4.518  0.8327 -0.0819  0.1325
10728TIP3    H153675   0.436   3.691   4.494  2.3916 -0.1590 -1.2647
10728TIP3    H253676   0.451   3.783   4.613 -0.1227 -1.4300  0.1142
10729TIP3   OH253677   1.984   4.011   3.650  0.6436  0.6645  0.2018
10729TIP3    H153678   1.973   4.074   3.579  0.9034  1.6986  1.0409
10729TIP3    H253679   2.076   4.019   3.675  0.2427  1.4117  1.5934
10730TIP3   OH253680   5.802   6.804  16.070 -0.4330 -0.1879 -0.2684
10730TIP3    H153681   5.866   6.857  16.117 -0.5064  0.0532 -0.4376
10730TIP3    H253682   5.805   6.718  16.113  1.1909 -0.7026 -1.3131
10731TIP3   OH253683   6.064   4.125   0.913 -0.0310 -0.0273  0.1239
10731TIP3    H153684   6.117   4.052   0.884  0.1142 -1.0953  2.7595
10731TIP3    H253685   6.010   4.148   0.838  0.4197 -2.3809 -0.9914
10732TIP3   OH253686   1.277   0.152   2.152 -0.3978 -0.7529 -0.0037
10732TIP3    H153687   1.264   0.125   2.061 -1.5798  1.9843 -0.7574
10732TIP3    H253688   1.366   0.125   2.173 -0.1806 -1.6410 -1.8936
10733TIP3   OH253689   6.314   6.316  14.448  0.1515  0.1542  0.3514
10733TIP3    H153690   6.311   6.255  14.375  1.1297 -1.5355  1.6481
10733TIP3    H253691   6.298   6.402  14.409 -0.0481 -0.7743 -1.7120
10734TIP3   OH253692   4.742   3.388  10.524 -0.3830  0.0286  0.5458
10734TIP3    H153693   4.702   3.436  10.452  0.2756  1.4637  1.0988
10734TIP3    H253694   4.760   3.301  10.488 -2.0121  0.0278 -0.3441
10735TIP3   OH253695   5.963   0.712   3.630  0.6786  0.0130 -0.3080
10735TIP3    H153696   5.951   0.749   3.543  1.1564  0.4866 -0.1810
10735TIP3    H253697   6.053   0.678   3.629  0.3941 -0.7612 -0.2783
10736TIP3   OH253698   2.648   3.890  14.106  0.1216 -0.3465  0.7028
10736TIP3    H153699   2.639   3.986  14.105 -1.3857 -0.3916  2.9864
10736TIP3    H253700   2.626   3.865  14.196  2.3885 -2.7024  0.6955
10737TIP3   OH253701   2.079   0.700  15.668  0.0280  0.3907  0.6009
10737TIP3    H153702   1.995   0.660  15.646 -0.8613  1.7757  1.3344
10737TIP3    H253703   2.081   0.702  15.764  0.3651  1.4104  0.5911
10738TIP3   OH253704   4.957   0.831  13.945  0.1680  0.4783 -0.0003
10738TIP3    H153705   4.989   0.842  13.856 -0.3582 -0.2570 -0.2906
10738TIP3    H253706   4.869   0.795  13.934  0.2425  0.0427  0.8248
10739TIP3   OH253707   1.212   5.624   1.127  0.0626 -0.1017 -0.1229
10739TIP3    H153708   1.276   5.618   1.198 -0.9197 -0.4733  0.7510
10739TIP3    H253709   1.184   5.534   1.112 -1.5079  0.2128  0.6999
10740TIP3   OH253710   1.752   3.092  12.171  0.0221  0.4557  0.6767
10740TIP3    H153711   1.834   3.100  12.122 -0.5723 -0.1750 -0.4534
10740TIP3    H253712   1.704   3.022  12.127 -0.8823  0.4136  1.6827
10741TIP3   OH253713   3.539   1.530   2.636  0.1528  0.0842  0.3506
10741TIP3    H153714   3.563   1.437   2.643 -1.0940 -0.2680  0.0910
10741TIP3    H253715   3.454   1.530   2.594 -0.0838  1.3379  0.7876
10742TIP3   OH253716   1.181   5.642   0.779  0.0371 -0.1469 -0.4360
10742TIP3    H153717   1.250   5.709   0.782  0.0190  0.0103 -2.4376
10742TIP3    H253718   1.216   5.569   0.829  1.8643 -0.2171 -1.7234
10743TIP3   OH253719   4.673   0.758  13.754 -0.4249 -0.7111  0.1075
10743TIP3    H153720   4.736   0.692  13.783 -0.3903 -0.0361  1.6859
10743TIP3    H253721   4.614   0.711  13.695  1.4525 -1.3775 -1.3241
10744TIP3   OH253722   1.269   1.043  16.765 -0.1347 -0.0739  0.7593
10744TIP3    H153723   1.287   1.136  16.751 -1.7329  0.4425  1.9106
10744TIP3    H253724   1.241   1.037  16.857 -0.1912 -1.6780  0.6742
10745TIP3   OH253725   5.611   5.544  14.306 -0.9248  0.1797 -0.0729
10745TIP3    H153726   5.681   5.543  14.371 -0.8508  0.4006 -0.1474
10745TIP3    H253727   5.634   5.473  14.246 -2.2855 -1.6700  1.4816
10746TIP3   OH253728   0.152   0.776   4.888  0.2721  0.5111 -0.2239
10746TIP3    H153729   0.070   0.779   4.937  0.3328  1.1124 -0.1557
10746TIP3    H253730   0.217   0.743   4.951  0.1577  0.3809 -0.1744
10747TIP3   OH253731   1.672   6.282  12.860 -0.3401 -0.1061 -0.2116
10747TIP3    H153732   1.662   6.352  12.924 -0.5260 -1.2942  1.0911
10747TIP3    H253733   1.593   6.287  12.806 -0.3498  0.6717 -0.1350
10748TIP3   OH253734   3.096   6.149  17.033 -0.0841 -0.4310 -0.7339
10748TIP3    H153735   3.019   6.203  17.050  0.9722  0.5944  1.1396
10748TIP3    H253736   3.072   6.062  17.064 -0.7036 -0.2815 -0.7787
10749TIP3   OH253737   2.056   5.261   5.778  0.2208 -0.0012  0.2397
10749TIP3    H153738   2.079   5.168   5.785 -2.6349 -0.7955  0.4446
10749TIP3    H253739   2.097   5.301   5.855  1.1418 -1.1650  0.3844
10750TIP3   OH253740   0.455   2.139   0.364 -0.3021 -0.3704  0.1388
10750TIP3    H153741   0.391   2.192   0.411  0.2976  2.4622 -1.9635
10750TIP3    H253742   0.412   2.116   0.281 -0.0071 -1.9812  0.3971
10751TIP3   OH253743   1.570   1.813   4.123  0.1354 -0.5471  0.3613
10751TIP3    H153744   1.487   1.815   4.075  0.1621  1.1289  0.3476
10751TIP3    H253745   1.573   1.725   4.162  0.0098 -1.9357 -2.4811
10752TIP3   OH253746   2.038   4.925  16.855 -0.7833 -0.4149 -0.1011
10752TIP3    H153747   2.006   4.990  16.918 -0.6141  0.1568 -0.5955
10752TIP3    H253748   1.962   4.909  16.799 -1.2641 -1.7279  0.8843
10753TIP3   OH253749   1.700   5.210   0.225  0.2373  0.1208  0.4216
10753TIP3    H153750   1.612   5.222   0.189  0.7615 -0.0195 -0.9715
10753TIP3    H253751   1.685   5.173   0.312 -1.0927  0.7958  0.5107
10754TIP3   OH253752   4.140   6.228  11.935 -0.1610  0.5204  0.0819
10754TIP3    H153753   4.199   6.184  11.874 -1.3915  0.8648 -1.4268
10754TIP3    H253754   4.068   6.260  11.880 -0.9242  1.5617  1.6074
10755TIP3   OH253755   6.131   2.857  14.330 -0.0260 -0.1636 -0.3363
10755TIP3    H153756   6.080   2.818  14.401  0.6850 -0.5351 -0.0220
10755TIP3    H253757   6.220   2.860  14.364  0.2702 -0.0908 -1.1140
10756TIP3   OH253758   1.420   2.373   6.299 -0.0590  0.3210  0.6239
10756TIP3    H153759   1.336   2.336   6.271  0.7345 -0.8555 -0.3277
10756TIP3    H253760   1.471   2.297   6.329  0.9991  0.8751  0.2932
10757TIP3   OH253761   2.163   1.754  16.260 -0.0046 -0.1249  0.0188
10757TIP3    H153762   2.199   1.809  16.190 -0.3423 -1.3873 -1.1957
10757TIP3    H253763   2.240   1.718  16.305  0.2222  0.0335 -0.2412
10758TIP3   OH253764   4.910   5.433  13.955 -0.1719 -0.3800 -0.3809
10758TIP3    H153765   4.951   5.356  13.914  0.1249  0.1745 -1.1323
10758TIP3    H253766   4.916   5.502  13.889 -1.2560  0.0457 -0.0438
10759TIP3   OH253767   6.753   4.537  11.965  0.0432  0.0486 -0.1221
10759TIP3    H153768   6.751   4.631  11.950 -0.7146 -0.0812 -0.9580
10759TIP3    H253769   6.665   4.515  11.995  1.0994  0.0580  3.3684
10760TIP3   OH253770   4.505   2.223  11.147  0.1215  0.1218 -0.3809
10760TIP3    H153771   4.424   2.205  11.195 -0.1882 -0.9639 -1.2615
10760TIP3    H253772   4.483   2.297  11.090 -0.4304 -0.5215 -1.0146
10761TIP3   OH253773   3.025   4.040   0.189  0.5442 -0.1738  0.1224
10761TIP3    H153774   2.960   3.997   0.245 -0.6750  0.7245 -0.5515
10761TIP3    H253775   3.031   3.983   0.112  0.7239 -0.3601  0.2704
10762TIP3   OH253776   5.802   0.678  15.647  0.3799  0.2315  0.0821
10762TIP3    H153777   5.879   0.623  15.641  0.2914  0.0090  0.8442
10762TIP3    H253778   5.788   0.690  15.741 -0.1061  0.8371 -0.0574
10763TIP3   OH253779   1.474   4.709  16.729  0.0762  0.4334  0.4673
10763TIP3    H153780   1.498   4.795  16.695 -0.0085  1.0181  1.8502
10763TIP3    H253781   1.558   4.667  16.750  0.0797  0.5256  0.6346
10764TIP3   OH253782   4.370   2.924   4.359  0.0952  0.4541 -0.1770
10764TIP3    H153783   4.447   2.982   4.358  0.9142 -0.5354  1.6058
10764TIP3    H253784   4.311   2.963   4.422  0.3288 -0.2197  0.4767
10765TIP3   OH253785   4.994   4.307  12.891 -0.2146  0.4331  0.0089
10765TIP3    H153786   4.909   4.279  12.924 -0.2062  0.6547  0.2155
10765TIP3    H253787   4.979   4.322  12.797 -0.2789 -0.0119 -0.0565
10766TIP3   OH253788   1.473   6.653  11.338 -0.2921 -0.0032 -0.1547
10766TIP3    H153789   1.432   6.582  11.288 -0.1135  1.1108 -1.9576
10766TIP3    H253790   1.565   6.649  11.314 -0.3904  1.2386 -0.7806
10767TIP3   OH253791   6.484   3.865  14.302  0.1075  0.3786  0.2683
10767TIP3    H153792   6.569   3.820  14.302  0.3902  0.7000  3.5191
10767TIP3    H253793   6.462   3.874  14.395 -2.8849  1.4874 -0.4573
10768TIP3   OH253794   6.637   1.935   5.385 -0.2465 -0.0590  0.2327
10768TIP3    H153795   6.630   2.023   5.350 -0.1302  0.3516  1.1875
10768TIP3    H253796   6.719   1.901   5.349 -0.5225  0.0548 -0.4978
10769TIP3   OH253797   4.209   3.534   5.388  0.5788  0.6301 -0.5690
10769TIP3    H153798   4.263   3.563   5.314 -2.1316  2.7708 -1.8727
10769TIP3    H253799   4.135   3.488   5.347 -0.8260  1.5906  0.7803
10770TIP3   OH253800   2.779   6.447   5.399  0.2630 -0.0562  0.4014
10770TIP3    H153801   2.795   6.443   5.305 -2.3590 -1.3420 -0.0673
10770TIP3    H253802   2.764   6.540   5.417 -2.8181 -0.1233 -1.2204
10771TIP3   OH253803   2.465   3.495   4.585 -0.0393 -0.1008  0.1730
10771TIP3    H153804   2.496   3.577   4.625 -1.0346 -0.5358  1.9491
10771TIP3    H253805   2.545   3.451   4.556  0.5391  1.2895 -0.4034
10772TIP3   OH253806   6.700   2.516  12.240 -0.3619  0.5165  0.3321
10772TIP3    H153807   6.609   2.485  12.243  0.5555 -2.7438 -1.0878
10772TIP3    H253808   6.713   2.543  12.149  0.3699  0.0342  0.2943
10773TIP3   OH253809   5.614   0.468  13.563 -0.3369 -0.4355  0.0480
10773TIP3    H153810   5.682   0.530  13.587 -0.0188 -1.1168  0.9619
10773TIP3    H253811   5.534   0.521  13.560  0.1526  0.2919 -0.6592
10774TIP3   OH253812   1.942   3.257   6.164 -0.5752  0.0493  0.2679
10774TIP3    H153813   1.877   3.230   6.229 -1.0674 -0.0452 -0.2556
10774TIP3    H253814   1.898   3.323   6.111 -0.6276 -0.7988 -0.7825
10775TIP3   OH253815   1.777   5.850   0.338 -0.8269  0.2002 -0.5398
10775TIP3    H153816   1.872   5.855   0.352 -0.6373 -0.8561 -1.3324
10775TIP3    H253817   1.741   5.828   0.424 -0.3685  0.7679 -0.2017
10776TIP3   OH253818   3.550   4.007  12.684 -0.0490  0.3580  0.0896
10776TIP3    H153819   3.574   3.981  12.772  0.5861  0.6039 -0.0105
10776TIP3    H253820   3.542   4.102  12.687 -1.0297  0.2868  0.1236
10777TIP3   OH253821   3.959   4.536  12.549  0.3006  0.3072  1.1896
10777TIP3    H153822   3.948   4.628  12.526  0.8496  0.5357  1.8118
10777TIP3    H253823   3.937   4.488  12.469  0.5270  1.0063  0.7021
10778TIP3   OH253824   4.101   6.812  16.751  0.2332  0.2293 -0.0251
10778TIP3    H153825   4.122   6.898  16.714  2.9286  0.0884  0.9343
10778TIP3    H253826   4.107   6.752  16.678  0.7461  0.5669 -0.2683
10779TIP3   OH253827   5.059   2.446   6.086  0.6255 -0.0568 -0.1500
10779TIP3    H153828   5.139   2.487   6.119  0.5771  1.2809 -1.5818
10779TIP3    H253829   5.001   2.519   6.067 -0.2947 -0.9209 -0.7576
10780TIP3   OH253830   4.281   4.107   1.411 -0.1439  0.0104 -1.0357
10780TIP3    H153831   4.276   4.046   1.484  0.9958  0.6533 -0.3958
10780TIP3    H253832   4.259   4.192   1.448 -1.9382 -0.0124 -1.9668
10781TIP3   OH253833   2.664   5.168   4.422 -0.4321  0.8165 -0.4932
10781TIP3    H153834   2.694   5.223   4.495 -2.4557  1.6713 -0.2582
10781TIP3    H253835   2.731   5.181   4.354  0.0148  2.2631  0.1733
10782TIP3   OH253836   3.944   6.085  11.111  0.6129 -0.3738  0.5016
10782TIP3    H153837   4.029   6.126  11.091  0.8470 -1.0175  0.1568
10782TIP3    H253838   3.893   6.096  11.031 -0.2763  1.5723  1.2761
10783TIP3   OH253839   6.615   4.216   3.934 -0.1897 -0.2782  0.5803
10783TIP3    H153840   6.525   4.184   3.934 -0.5484  0.7010  0.0600
10783TIP3    H253841   6.640   4.220   3.842 -0.0696  0.6531  0.6371
10784TIP3   OH253842   6.649   0.989  11.045  0.2436 -0.4796 -0.0908
10784TIP3    H153843   6.706   1.026  10.977 -0.4371  0.3410 -0.2416
10784TIP3    H253844   6.586   1.059  11.063 -1.2180 -1.6200 -0.5175
10785TIP3   OH253845   5.852   3.511   5.380  0.0801 -0.6715 -0.0742
10785TIP3    H153846   5.873   3.431   5.332  0.9737 -1.4879  1.5859
10785TIP3    H253847   5.937   3.547   5.405 -0.3375 -0.9218  1.8665
10786TIP3   OH253848   2.792   2.056  16.697  0.1234  0.0484  0.0043
10786TIP3    H153849   2.881   2.091  16.704  0.1504  0.5015 -1.9576
10786TIP3    H253850   2.804   1.963  16.679  0.1964  0.1282 -0.3532
10787TIP3   OH253851   0.797   1.468  12.970  0.0971 -0.3590  0.1369
10787TIP3    H153852   0.817   1.562  12.975 -1.4044  0.0815 -1.4517
10787TIP3    H253853   0.845   1.437  12.893 -2.5469  0.0336 -1.7899
10788TIP3   OH253854   1.848   5.329   3.704  0.2176  0.4641  0.6527
10788TIP3    H153855   1.921   5.324   3.643 -0.0400  2.4202  0.1211
10788TIP3    H253856   1.874   5.273   3.777  1.9186  0.5594  0.1578
10789TIP3   OH253857   6.513   1.359   0.910  0.2021  0.1284 -0.5462
10789TIP3    H153858   6.438   1.304   0.886 -0.0157  0.0340  0.3094
10789TIP3    H253859   6.536   1.404   0.829  0.4463 -1.2806 -1.3077
10790TIP3   OH253860   5.900   4.908   5.410  0.0715 -0.3290 -0.7243
10790TIP3    H153861   5.975   4.960   5.437  0.3505 -1.7717  1.4891
10790TIP3    H253862   5.829   4.971   5.402  0.1757  0.4233  2.6988
10791TIP3   OH253863   1.036   0.134  11.276  0.0425  0.2819  0.3621
10791TIP3    H153864   1.004   0.076  11.207  1.2729  0.4855 -0.4227
10791TIP3    H253865   1.045   0.220  11.233  2.7287 -0.0202  0.1500
10792TIP3   OH253866   1.474   3.871   0.129 -0.7537 -0.1778  0.1633
10792TIP3    H153867   1.519   3.870   0.044  0.1749 -1.6513  0.6344
10792TIP3    H253868   1.479   3.963   0.157 -0.8158  0.2717 -1.2334
10793TIP3   OH253869   5.709   1.794   0.056 -0.7553  0.1458 -0.3195
10793TIP3    H153870   5.648   1.867   0.064 -0.8207  0.1734 -0.9755
10793TIP3    H253871   5.778   1.827  -0.002  0.2143  0.3235  0.8912
10794TIP3   OH253872   0.838   0.826   0.794  0.8424 -0.4631  0.1116
10794TIP3    H153873   0.907   0.793   0.851  1.1278 -0.0850 -0.0018
10794TIP3    H253874   0.885   0.880   0.730  0.4723 -0.4559 -0.1573
10795TIP3   OH253875   2.628   5.646   1.988  0.0131  0.2806 -0.2725
10795TIP3    H153876   2.621   5.572   2.049  1.2587  0.0453 -0.3881
10795TIP3    H253877   2.676   5.610   1.913  2.1259  1.6021  0.3680
10796TIP3   OH253878   6.080   5.850   5.166 -0.0174 -0.1211 -0.3134
10796TIP3    H153879   6.020   5.785   5.203 -2.6978  2.8979  1.0946
10796TIP3    H253880   6.092   5.822   5.075  0.0853 -3.2639  0.5580
10797TIP3   OH253881   1.156   1.775   2.821 -0.3167  0.0207 -0.1794
10797TIP3    H153882   1.130   1.849   2.767  0.7818 -0.6245 -1.6599
10797TIP3    H253883   1.085   1.766   2.885 -1.2558  1.3221 -0.9876
10798TIP3   OH253884   3.194   6.799  17.057 -0.1649 -0.2494 -0.3272
10798TIP3    H153885   3.184   6.709  17.027  2.7208 -0.0646 -2.1680
10798TIP3    H253886   3.110   6.841  17.036 -0.1036 -1.4717 -3.5448
10799TIP3   OH253887   1.065   4.428   5.273 -0.2818 -0.3929  0.4348
10799TIP3    H153888   1.136   4.456   5.331  0.0711 -0.0440 -0.1529
10799TIP3    H253889   1.064   4.494   5.204  0.5543 -1.7936 -0.9882
10800TIP3   OH253890   5.872   5.644   0.080 -0.3274  0.2294  0.8220
10800TIP3    H153891   5.912   5.726   0.051 -3.5408  2.2595  1.6352
10800TIP3    H253892   5.793   5.635   0.026 -1.2705 -1.0859  2.3266
10801TIP3   OH253893   3.859   3.337   4.068  0.3786  0.2913 -0.1664
10801TIP3    H153894   3.906   3.325   4.151 -0.5567  1.1974  0.5211
10801TIP3    H253895   3.771   3.365   4.095 -0.3208 -0.5924 -1.4372
10802TIP3   OH253896   5.118   4.954   3.863 -0.2153  0.6542 -0.7653
10802TIP3    H153897   5.195   4.980   3.813  0.0326 -0.1062 -0.7821
10802TIP3    H253898   5.053   4.931   3.796  0.4429 -1.3341 -0.7662
10803TIP3   OH253899   3.940   5.093  15.846  0.2398  0.0493  0.1675
10803TIP3    H153900   3.871   5.158  15.835 -2.4051 -2.4956  0.5239
10803TIP3    H253901   3.958   5.061  15.758  0.9805  0.6581  0.0834
10804TIP3   OH253902   3.363   5.034   4.154 -0.0545 -0.0460  0.2612
10804TIP3    H153903   3.374   4.939   4.144  0.8432  0.2460 -2.5214
10804TIP3    H253904   3.287   5.054   4.099 -0.6700  0.7859  1.3902
10805TIP3   OH253905   0.067   2.446  15.408 -0.1463 -0.3116 -0.4226
10805TIP3    H153906   0.093   2.434  15.316  1.8602  0.0093  0.0644
10805TIP3    H253907   0.118   2.381  15.456 -2.0147 -1.2525  0.3985
10806TIP3   OH253908   2.057   2.784   3.125  0.1224 -0.1945  0.0082
10806TIP3    H153909   1.963   2.804   3.125  0.3256  0.8515  0.1400
10806TIP3    H253910   2.097   2.856   3.076  1.0103  0.2706  1.3546
10807TIP3   OH253911   3.552   2.979   4.613 -0.3192  0.3832  0.6851
10807TIP3    H153912   3.562   2.977   4.518  0.2870  0.7165  0.7402
10807TIP3    H253913   3.597   2.900   4.644 -0.5478  0.2552  0.6991
10808TIP3   OH253914   4.206   0.315   0.621  0.2022 -0.1709  0.8572
10808TIP3    H153915   4.182   0.378   0.553  0.9176 -1.0698 -0.2643
10808TIP3    H253916   4.282   0.355   0.664  1.6045 -0.8996 -0.8458
10809TIP3   OH253917   5.383   3.105   6.267  0.7106  0.1827 -0.0074
10809TIP3    H153918   5.442   3.030   6.260  1.7938  1.0454 -0.4230
10809TIP3    H253919   5.297   3.067   6.287  0.9226 -1.2780 -1.6309
10810TIP3   OH253920   3.787   3.447  15.755  0.2211 -0.1394  0.1242
10810TIP3    H153921   3.766   3.526  15.805 -3.5273 -1.5983  1.2110
10810TIP3    H253922   3.824   3.387  15.820 -1.3568 -0.8195  0.4409
10811TIP3   OH253923   4.434   3.218   6.150 -0.1886 -0.1395 -0.0748
10811TIP3    H153924   4.436   3.251   6.239 -1.4689 -1.2967  0.4195
10811TIP3    H253925   4.506   3.155   6.146  2.0038  2.2171 -0.9063
10812TIP3   OH253926   5.148   1.784  15.527  0.2423  0.3407  0.0988
10812TIP3    H153927   5.140   1.804  15.433 -0.2140 -0.6789 -0.1017
10812TIP3    H253928   5.057   1.778  15.557  0.3869  1.5373  0.8205
10813TIP3   OH253929   2.202   4.897  15.759 -0.0916  0.4978  0.4398
10813TIP3    H153930   2.194   4.975  15.815 -0.4116  1.5199 -0.9785
10813TIP3    H253931   2.117   4.854  15.766 -0.4003  1.0455  0.1602
10814TIP3   OH253932   1.022   3.989   3.552 -0.0942 -0.3097 -0.6507
10814TIP3    H153933   1.024   4.059   3.487 -2.3855 -0.6299 -1.1440
10814TIP3    H253934   0.964   3.923   3.514  0.5779 -1.6754  0.6043
10815TIP3   OH253935   0.393   2.640  12.937 -0.4989 -0.4430 -0.2488
10815TIP3    H153936   0.409   2.640  12.843 -1.7675  0.1356 -0.4871
10815TIP3    H253937   0.364   2.552  12.957 -0.5884 -0.4624 -0.4660
10816TIP3   OH253938   0.478   3.320   5.038  0.1902 -0.6368 -0.0452
10816TIP3    H153939   0.523   3.271   4.970  1.8860  0.1694  0.4584
10816TIP3    H253940   0.539   3.321   5.112 -0.4538  0.8882  0.5014
10817TIP3   OH253941   3.904   5.493   0.395  0.1602  0.0488 -0.6507
10817TIP3    H153942   3.822   5.538   0.375 -0.8017 -1.9472 -1.3729
10817TIP3    H253943   3.906   5.488   0.491 -1.7423 -1.8917 -0.6560
10818TIP3   OH253944   3.460   3.330  12.007 -0.1212 -0.3842 -0.0651
10818TIP3    H153945   3.469   3.421  12.035  0.6249  0.0380 -1.6199
10818TIP3    H253946   3.526   3.283  12.058  1.4187  0.4186 -1.2469
10819TIP3   OH253947   4.826   1.607  16.843 -0.3770 -0.6511  0.0150
10819TIP3    H153948   4.808   1.679  16.903  0.9173 -2.5163  2.8863
10819TIP3    H253949   4.742   1.589  16.801 -1.4744  0.4728  1.6185
10820TIP3   OH253950   4.802   4.668  12.666 -0.2915 -0.3882  0.3150
10820TIP3    H153951   4.884   4.704  12.700  0.3503 -0.5814 -0.9877
10820TIP3    H253952   4.813   4.573  12.672 -0.4322 -0.4143  0.1614
10821TIP3   OH253953   3.004   4.524   3.046 -0.0448  0.0931  0.5005
10821TIP3    H153954   2.995   4.434   3.076 -0.4224  0.1757  0.6460
10821TIP3    H253955   3.024   4.574   3.126  0.1531  0.1424  0.4225
10822TIP3   OH253956   3.325   4.532  10.959  0.2692 -0.2668 -0.0836
10822TIP3    H153957   3.255   4.478  10.920  0.6566 -0.7033 -0.1796
10822TIP3    H253958   3.402   4.511  10.907  0.3729  0.5519 -0.2582
10823TIP3   OH253959   1.286   3.244  17.179  0.4059  0.5465  0.1975
10823TIP3    H153960   1.313   3.172  17.236 -1.7082  0.3674  1.0808
10823TIP3    H253961   1.257   3.201  17.099 -0.2042  0.4496  0.4637
10824TIP3   OH253962   5.759   4.252  16.888  0.0782  0.3200  0.8539
10824TIP3    H153963   5.670   4.279  16.866 -0.4506 -1.3632  0.8048
10824TIP3    H253964   5.764   4.259  16.983 -0.4907 -0.6396  0.9635
10825TIP3   OH253965   4.344   5.216  14.821 -0.7698 -0.5176  0.1864
10825TIP3    H153966   4.305   5.129  14.828 -2.9081  0.3767  0.1019
10825TIP3    H253967   4.313   5.263  14.898  0.2597  0.2354  0.1725
10826TIP3   OH253968   6.380   5.734   2.839 -0.4017 -0.0926  0.0379
10826TIP3    H153969   6.297   5.698   2.808  0.2627 -1.5330 -0.1650
10826TIP3    H253970   6.355   5.811   2.890 -1.7817  0.1014 -0.8597
10827TIP3   OH253971   1.077   2.893   3.494 -0.3396  0.5508 -0.7341
10827TIP3    H153972   0.997   2.846   3.516  0.7715 -0.7641  0.6747
10827TIP3    H253973   1.131   2.828   3.449 -0.1274  1.4883 -1.8832
10828TIP3   OH253974   3.459   5.854   5.611  0.2623  0.0653  0.1558
10828TIP3    H153975   3.429   5.937   5.573  0.4954 -0.0762 -0.3424
10828TIP3    H253976   3.520   5.818   5.546 -0.8245 -1.1339 -0.2400
10829TIP3   OH253977   4.173   1.521  13.323 -0.2038  0.2710 -0.2007
10829TIP3    H153978   4.121   1.570  13.387  2.3624 -0.3226  2.5351
10829TIP3    H253979   4.256   1.502  13.367  1.5824 -0.6612 -3.5596
10830TIP3   OH253980   3.194   2.460   4.635 -0.8029 -0.1310 -0.1902
10830TIP3    H153981   3.160   2.450   4.545 -0.6216  0.7319 -0.3665
10830TIP3    H253982   3.284   2.490   4.623 -0.1690 -1.7620  0.2861
10831TIP3   OH253983   6.085   3.060   0.920  0.1507 -0.0411 -0.0949
10831TIP3    H153984   6.137   2.984   0.946 -0.8103 -0.3003  1.1760
10831TIP3    H253985   6.138   3.135   0.945  1.2547 -0.2526 -1.6612
10832TIP3   OH253986   6.500   5.148  12.061 -0.3765 -0.7056  0.7249
10832TIP3    H153987   6.568   5.180  12.120 -0.4305 -0.5852  0.7212
10832TIP3    H253988   6.428   5.124  12.119 -2.0340  3.1452  0.5129
10833TIP3   OH253989   4.968   5.403  13.351  0.0326 -0.1366 -0.4867
10833TIP3    H153990   5.010   5.380  13.268 -3.1661  0.2862 -2.3933
10833TIP3    H253991   4.961   5.499  13.349 -0.5950 -0.1641 -0.0386
10834TIP3   OH253992   0.871   1.084  14.643  0.1238  0.2002  0.9576
10834TIP3    H153993   0.927   1.033  14.702  1.1918  1.4740  1.0901
10834TIP3    H253994   0.921   1.089  14.561 -1.0513 -0.9848  0.1382
10835TIP3   OH253995   4.430   3.850   5.374  0.2595  0.0255 -0.3835
10835TIP3    H153996   4.500   3.816   5.430  0.2217  2.2538  1.1517
10835TIP3    H253997   4.359   3.871   5.436 -1.8319 -2.1079 -1.8639
10836TIP3   OH253998   1.988   2.371   2.537  0.0702  0.3053 -0.2487
10836TIP3    H153999   1.948   2.418   2.464  1.6373  1.0698 -0.6781
10836TIP3    H254000   1.942   2.403   2.615  0.8962  2.4127 -0.5576
10837TIP3   OH254001   0.806   4.493  15.394 -0.4195  0.0715  0.4082
10837TIP3    H154002   0.842   4.562  15.339  0.7801  1.1562  2.4563
10837TIP3    H254003   0.865   4.419  15.381 -0.0875  0.3515  0.3126
10838TIP3   OH254004   1.318   3.796  16.020 -0.0874 -0.1965 -0.3191
10838TIP3    H154005   1.348   3.706  16.025  0.5579  0.0295  0.0716
10838TIP3    H254006   1.309   3.814  15.926  0.6212 -0.4006 -0.4284
10839TIP3   OH254007   2.318   0.293   1.250  0.1160  0.3827  0.1217
10839TIP3    H154008   2.411   0.289   1.228 -0.1296  2.0268 -1.5365
10839TIP3    H254009   2.284   0.363   1.194 -2.3338 -0.8924 -0.0981
10840TIP3   OH254010   4.399   3.281   5.389 -0.4248  0.0647  0.6990
10840TIP3    H154011   4.369   3.269   5.299  0.0638  0.9788  0.4055
10840TIP3    H254012   4.321   3.268   5.443 -0.7249 -0.4520  0.1425
10841TIP3   OH254013   5.849   6.454   3.598  0.8879 -0.0280  0.5397
10841TIP3    H154014   5.893   6.538   3.586 -1.2175  0.9805 -0.5553
10841TIP3    H254015   5.819   6.455   3.689  2.5653 -0.5096  1.1419
10842TIP3   OH254016   4.715   4.026   5.957 -0.1619 -0.3454  0.0051
10842TIP3    H154017   4.717   3.983   5.872  0.1817  0.9130 -0.6499
10842TIP3    H254018   4.781   3.980   6.009  0.5660 -0.2741 -0.8402
10843TIP3   OH254019   2.171   4.057  15.116  0.4027 -0.3773 -0.0650
10843TIP3    H154020   2.165   4.143  15.158  1.5820  1.3637 -3.1665
10843TIP3    H254021   2.103   4.058  15.048 -0.6751 -2.6395  0.8498
10844TIP3   OH254022   6.320   0.948   1.367 -0.1721  0.4537  0.0471
10844TIP3    H154023   6.342   1.005   1.441 -0.0152  1.3536 -0.6882
10844TIP3    H254024   6.259   0.998   1.314  0.9214  0.4547 -1.2692
10845TIP3   OH254025   6.700   1.512   0.006 -0.2896 -0.9375 -0.0625
10845TIP3    H154026   6.666   1.446  -0.054  0.1235 -1.7457  0.5709
10845TIP3    H254027   6.634   1.581   0.006 -0.4699 -1.0865 -1.1551
10846TIP3   OH254028   2.570   3.564  16.908 -0.2284  0.4734 -0.2448
10846TIP3    H154029   2.535   3.645  16.870  1.2582  1.1118 -0.3237
10846TIP3    H254030   2.615   3.521  16.835 -0.5548 -0.1647 -0.0734
10847TIP3   OH254031   1.662   0.484  15.097  0.5849  0.1908 -0.4635
10847TIP3    H154032   1.614   0.504  15.177 -0.5502  0.1435 -1.1216
10847TIP3    H254033   1.672   0.568  15.053  1.1358  0.2032 -0.3249
10848TIP3   OH254034   0.611   5.800   1.422  0.2489  0.0926  0.3320
10848TIP3    H154035   0.524   5.817   1.385  0.6798 -0.1477 -0.8150
10848TIP3    H254036   0.667   5.869   1.386  0.3504  0.8575  1.8641
10849TIP3   OH254037   0.336   3.140  16.326 -0.2470  0.2535  0.1414
10849TIP3    H154038   0.315   3.057  16.282 -0.2384  0.3542 -0.0536
10849TIP3    H254039   0.265   3.199  16.301 -0.2450  0.3096  0.2697
10850TIP3   OH254040   2.465   6.713   1.611  0.2537 -0.3894  0.3493
10850TIP3    H154041   2.484   6.655   1.537 -1.8667 -0.2067 -0.4109
10850TIP3    H254042   2.527   6.785   1.602  0.7251 -0.9020 -0.6452
10851TIP3   OH254043   1.199   3.955   0.990  0.2481  0.4251 -0.4334
10851TIP3    H154044   1.287   3.980   1.019 -0.0157  1.0674 -0.1682
10851TIP3    H254045   1.214   3.893   0.918  0.9425  1.8582 -1.5798
10852TIP3   OH254046   1.403   4.776   3.017 -0.3390 -0.2231 -0.4923
10852TIP3    H154047   1.443   4.782   2.931  2.6116 -0.5489  0.7542
10852TIP3    H254048   1.402   4.865   3.050  2.6614 -0.5589  0.7784
10853TIP3   OH254049   3.006   3.146  17.059  0.4409  0.7845 -0.1900
10853TIP3    H154050   3.012   3.058  17.020 -0.3466  1.1497 -1.1577
10853TIP3    H254051   2.928   3.185  17.020  1.0069  2.0749 -0.0772
10854TIP3   OH254052   2.039   2.286   4.082 -0.4151  0.3969  0.5753
10854TIP3    H154053   2.078   2.323   4.003 -0.5780  1.6794  1.0679
10854TIP3    H254054   2.075   2.198   4.088  0.4363  0.6654 -0.3419
10855TIP3   OH254055   4.762   3.946  16.133 -0.0286 -0.2399 -0.1715
10855TIP3    H154056   4.730   4.032  16.161 -1.3714 -0.6659 -0.2791
10855TIP3    H254057   4.729   3.885  16.200  0.2854 -0.7482 -0.4713
10856TIP3   OH254058   5.093   6.023   0.261 -0.2799  0.2878  0.3581
10856TIP3    H154059   5.149   6.019   0.184 -1.1441 -0.3031 -0.2563
10856TIP3    H254060   5.117   6.105   0.304  0.6290  0.3365 -0.2027
10857TIP3   OH254061   4.386   5.758   1.098 -0.2950 -0.2579 -0.4959
10857TIP3    H154062   4.471   5.785   1.132 -1.3060  1.4801  0.8144
10857TIP3    H254063   4.354   5.835   1.051 -1.8042 -0.3035  0.3977
10858TIP3   OH254064   0.657   0.089   5.601 -0.3555 -0.5785  0.1498
10858TIP3    H154065   0.609   0.160   5.557  2.1541  1.7919  0.9399
10858TIP3    H254066   0.592   0.050   5.660 -1.8501  1.1264 -0.2492
10859TIP3   OH254067   5.333   4.258   1.872  0.0869 -0.7078  0.8398
10859TIP3    H154068   5.293   4.333   1.916 -1.3880 -1.4053  0.7596
10859TIP3    H254069   5.417   4.246   1.917  0.4305  1.0744  0.7350
10860TIP3   OH254070   3.857   5.010  12.955  0.2883 -0.4766  0.2768
10860TIP3    H154071   3.939   5.040  12.914 -0.6108 -0.0785 -1.2929
10860TIP3    H254072   3.796   5.083  12.942 -0.8177 -1.4523 -0.1613
10861TIP3   OH254073   5.284   6.504   3.689  0.5389 -0.0807 -0.2515
10861TIP3    H154074   5.368   6.509   3.642 -0.0246 -0.6714 -1.3686
10861TIP3    H254075   5.218   6.504   3.619 -0.5251  2.4325  0.6592
10862TIP3   OH254076   4.652   4.807  12.854  0.0163 -0.1509 -0.7852
10862TIP3    H154077   4.687   4.752  12.784 -0.5433 -1.7970  0.1683
10862TIP3    H254078   4.716   4.800  12.925 -0.5713 -0.4464 -0.2704
10863TIP3   OH254079   1.672   5.783  15.163  0.0573  0.3662 -0.0683
10863TIP3    H154080   1.673   5.723  15.088 -0.7443  0.7741 -0.4209
10863TIP3    H254081   1.694   5.728  15.238  0.9431 -0.0382 -0.6116
10864TIP3   OH254082   1.371   1.919  16.855 -0.0857 -0.4336 -0.3116
10864TIP3    H154083   1.395   1.868  16.778  0.6918  0.7655 -0.8885
10864TIP3    H254084   1.425   1.882  16.926 -0.6305 -1.3824 -0.3777
10865TIP3   OH254085   6.122   6.098   2.926 -0.0954 -0.0770  0.0977
10865TIP3    H154086   6.126   6.131   2.837 -0.9548  0.2736  0.1809
10865TIP3    H254087   6.046   6.040   2.927  0.7660 -1.2429  0.2280
10866TIP3   OH254088   3.882   6.542  14.123  0.1753 -0.1633  0.4348
10866TIP3    H154089   3.897   6.576  14.034 -1.0229 -0.6009  0.0589
10866TIP3    H254090   3.965   6.501  14.147  0.3137 -0.5946 -0.7329
10867TIP3   OH254091   6.393   3.622   3.965 -0.1072 -0.0814  0.0313
10867TIP3    H154092   6.324   3.639   3.901 -0.9472  0.3711  1.0380
10867TIP3    H254093   6.396   3.700   4.020  0.4735 -0.5281  0.6589
10868TIP3   OH254094   1.019   3.982   0.280  0.5829  0.1405 -0.2020
10868TIP3    H154095   1.079   3.952   0.212  0.2150 -1.8812  0.2991
10868TIP3    H254096   1.050   4.069   0.303  2.4397 -0.2697 -0.9757
10869TIP3   OH254097   2.944   4.749  17.123  0.0192 -0.2381  0.0361
10869TIP3    H154098   2.996   4.815  17.168 -1.1765  0.1746  0.8650
10869TIP3    H254099   2.894   4.799  17.058 -0.7727 -0.3287  0.5606
10870TIP3   OH254100   3.120   1.306   3.105  0.2737  0.0663  0.2255
10870TIP3    H154101   3.052   1.290   3.170  0.6391  0.7876  0.7891
10870TIP3    H254102   3.146   1.397   3.118  1.0629 -0.0770 -0.2599
10871TIP3   OH254103   5.760   6.527  13.791  0.1337 -0.7777  0.7555
10871TIP3    H154104   5.790   6.441  13.818  1.0997 -0.7065 -0.0505
10871TIP3    H254105   5.839   6.574  13.765  0.3404  1.8538  5.0084
10872TIP3   OH254106   6.175   1.103   1.194 -1.2199 -0.5016 -0.2536
10872TIP3    H154107   6.154   1.194   1.173 -1.9962 -0.6520 -0.1345
10872TIP3    H254108   6.107   1.052   1.150  0.4682 -1.1942 -2.2515
10873TIP3   OH254109   1.690   4.864   0.740  0.4393 -0.9826 -0.0601
10873TIP3    H154110   1.653   4.870   0.828 -1.0351  2.0801 -0.7401
10873TIP3    H254111   1.766   4.921   0.743 -1.2008  1.4585 -1.3474
10874TIP3   OH254112   3.531   3.770  11.809 -0.4748  0.6958 -0.1000
10874TIP3    H154113   3.559   3.852  11.769  0.7282  0.6740  0.6287
10874TIP3    H254114   3.523   3.791  11.903  0.3251 -0.1121  0.1678
10875TIP3   OH254115   6.259   4.468   1.664 -0.5050 -0.1653 -0.3706
10875TIP3    H154116   6.253   4.373   1.665 -1.4077 -0.1182 -0.0514
10875TIP3    H254117   6.171   4.498   1.688  0.0517  0.7395  0.6223
10876TIP3   OH254118   2.687   2.769  14.666  0.0204 -0.3033 -0.3562
10876TIP3    H154119   2.759   2.708  14.679  1.2192  0.7837 -1.6284
10876TIP3    H254120   2.621   2.719  14.617  1.2497 -0.4224 -1.9415
10877TIP3   OH254121   3.689   4.101  15.501  0.3321 -0.0283  0.3604
10877TIP3    H154122   3.649   4.022  15.538  1.1886 -0.3482  0.6130
10877TIP3    H254123   3.619   4.167  15.506 -0.1842 -0.5924  0.7482
10878TIP3   OH254124   0.123   0.494  11.136  0.7330 -0.4848 -0.0019
10878TIP3    H154125   0.152   0.407  11.108  1.4114 -0.3287  0.2015
10878TIP3    H254126   0.199   0.550  11.122  0.5384 -0.0717  0.5536
10879TIP3   OH254127   1.231   0.810   0.158 -0.0173 -0.1809 -0.2563
10879TIP3    H154128   1.309   0.862   0.142 -0.4198 -0.1926 -2.7361
10879TIP3    H254129   1.244   0.731   0.105 -0.1017 -1.9676  2.2142
10880TIP3   OH254130   6.114   1.347  13.444 -0.4639 -0.4747 -0.2206
10880TIP3    H154131   6.138   1.284  13.511  0.8912  1.5796  1.3413
10880TIP3    H254132   6.091   1.426  13.492 -1.6785  0.4045 -2.1079
10881TIP3   OH254133   0.181   3.818  16.526  0.1772 -0.0851  0.1892
10881TIP3    H154134   0.167   3.912  16.530 -1.3789 -0.2790 -0.1455
10881TIP3    H254135   0.157   3.787  16.613 -1.8613 -0.4482 -0.4543
10882TIP3   OH254136   2.177   5.128   0.886  0.0589  0.1166 -0.2214
10882TIP3    H154137   2.206   5.143   0.976 -1.5977  2.5793 -0.0162
10882TIP3    H254138   2.253   5.088   0.843  0.9890 -0.8688  2.1632
10883TIP3   OH254139   2.898   5.426   4.769 -0.1301 -0.1793  0.3082
10883TIP3    H154140   2.907   5.486   4.696  1.1142 -0.2716  0.3693
10883TIP3    H254141   2.957   5.353   4.748 -3.6387 -2.9006 -1.2037
10884TIP3   OH254142   6.503   0.379   5.411  0.1098  0.2710  0.0058
10884TIP3    H154143   6.577   0.437   5.392  1.2089 -0.5276  1.5909
10884TIP3    H254144   6.489   0.388   5.505 -1.0269 -0.5157 -0.0707
10885TIP3   OH254145   6.661   2.971  13.544 -0.0083  0.5350 -0.3906
10885TIP3    H154146   6.595   2.915  13.503 -1.6067  2.3351 -0.3830
10885TIP3    H254147   6.647   2.959  13.638 -0.3999  0.9801 -0.3890
10886TIP3   OH254148   3.375   5.424  11.309 -0.6739  0.6430 -0.0922
10886TIP3    H154149   3.326   5.415  11.391 -1.2122 -0.3391 -0.5051
10886TIP3    H254150   3.330   5.365  11.248  0.6428  0.2043 -0.6603
10887TIP3   OH254151   6.697   5.377  16.000 -0.0618 -0.2457  0.3291
10887TIP3    H154152   6.684   5.339  15.913 -1.3988  0.1058  0.3543
10887TIP3    H254153   6.790   5.400  16.002  0.3145 -1.5320 -0.4721
10888TIP3   OH254154   3.851   0.062   2.530 -0.5448 -0.2784 -0.2321
10888TIP3    H154155   3.906   0.039   2.604  1.5966  1.2922 -1.2216
10888TIP3    H254156   3.783   0.118   2.567  0.0889 -0.0763  0.6498
10889TIP3   OH254157   1.982   1.181   5.838  0.2930  0.1818 -1.2572
10889TIP3    H154158   1.905   1.221   5.878  0.4618  0.6688 -1.3967
10889TIP3    H254159   2.026   1.136   5.909 -0.8754 -1.3344 -1.4597
10890TIP3   OH254160   3.830   6.179   2.240 -0.4091 -0.9226 -0.1422
10890TIP3    H154161   3.872   6.097   2.218 -0.8251 -1.3496  0.5851
10890TIP3    H254162   3.736   6.159   2.238 -0.4945 -0.9458  1.6491
10891TIP3   OH254163   6.489   1.326   2.247 -0.1023 -0.0377 -0.5861
10891TIP3    H154164   6.495   1.302   2.339 -0.6920  0.4807 -0.4063
10891TIP3    H254165   6.578   1.315   2.213  0.3118  0.6071  0.2565
10892TIP3   OH254166   4.260   0.370   1.039 -0.2919  0.6965  0.3903
10892TIP3    H154167   4.278   0.452   0.993 -0.9830  1.7701  1.9464
10892TIP3    H254168   4.345   0.339   1.067 -0.0453  1.0213  0.0156
10893TIP3   OH254169   1.065   3.353   0.052 -0.2541  0.0271 -0.1246
10893TIP3    H154170   1.000   3.286   0.073  0.4611 -0.4060  0.7950
10893TIP3    H254171   1.112   3.318  -0.025  0.4886 -0.8165  0.6907
10894TIP3   OH254172   0.352   1.843   1.506 -0.2161  0.3827 -0.2701
10894TIP3    H154173   0.358   1.828   1.601  1.0584  0.1923 -0.3608
10894TIP3    H254174   0.384   1.932   1.494 -1.9477  1.0260 -0.3757
10895TIP3   OH254175   4.483   6.671  15.188  0.1720  0.7559 -0.0726
10895TIP3    H154176   4.537   6.609  15.139  1.6836  2.2911 -0.4579
10895TIP3    H254177   4.490   6.642  15.279  0.1287 -0.1457 -0.3444
10896TIP3   OH254178   1.426   6.616   1.096  0.7704  0.2118 -0.2978
10896TIP3    H154179   1.333   6.615   1.074  0.1289  0.0118  2.0692
10896TIP3    H254180   1.471   6.595   1.014 -1.2806 -0.0899 -1.4159
10897TIP3   OH254181   2.899   5.405  13.723  0.2464 -0.1820  0.2802
10897TIP3    H154182   2.835   5.454  13.776 -0.6630 -1.1793  0.1208
10897TIP3    H254183   2.847   5.349  13.667  1.2634 -1.5194  0.6023
10898TIP3   OH254184   3.751   6.703  12.941 -0.4092  0.4004  0.3141
10898TIP3    H154185   3.722   6.762  13.011  1.2586  0.9011  0.6237
10898TIP3    H254186   3.780   6.762  12.871 -1.8061 -0.0941 -0.7170
10899TIP3   OH254187   5.156   1.592   4.847 -0.3445 -0.4758 -0.1776
10899TIP3    H154188   5.236   1.551   4.880 -0.3270 -0.4525 -0.1913
10899TIP3    H254189   5.181   1.629   4.762 -0.0285  0.6874  0.4064
10900TIP3   OH254190   5.164   2.414  16.494 -0.2566 -0.5252  0.2884
10900TIP3    H154191   5.191   2.328  16.527 -0.6622 -0.0303  2.0068
10900TIP3    H254192   5.187   2.475  16.565  1.1370  0.9951 -1.3767
10901TIP3   OH254193   4.483   4.134  14.097  0.4129 -0.5083  0.3877
10901TIP3    H154194   4.470   4.039  14.094 -1.8729 -0.2874  1.2203
10901TIP3    H254195   4.556   4.146  14.157  0.7732 -1.7412  0.2294
10902TIP3   OH254196   2.601   4.205  16.109  0.3307  0.7641  0.3277
10902TIP3    H154197   2.561   4.271  16.165  0.8516  0.9094  0.5335
10902TIP3    H254198   2.529   4.171  16.056 -0.5343 -0.4885  2.1656
10903TIP3   OH254199   0.168   1.616   3.076 -0.8435  0.0492 -0.7379
10903TIP3    H154200   0.111   1.620   3.152 -0.7338  2.1947 -0.7217
10903TIP3    H254201   0.135   1.684   3.017 -0.5035 -1.0994 -2.3261
10904TIP3   OH254202   4.420   4.548   5.785  0.0911  0.2269 -0.6572
10904TIP3    H154203   4.425   4.461   5.824  0.4762  0.5221 -0.0260
10904TIP3    H254204   4.328   4.573   5.793  0.0118 -0.0479 -0.6864
10905TIP3   OH254205   0.501   5.715  11.246 -0.4228  0.7246 -0.7036
10905TIP3    H154206   0.467   5.631  11.214 -0.2193  0.3964 -0.0781
10905TIP3    H254207   0.424   5.771  11.254 -0.4905  0.7814 -1.6646
10906TIP3   OH254208   0.325   4.695  16.181  0.0587  0.1053  0.5039
10906TIP3    H154209   0.282   4.632  16.124 -0.2305 -0.4021  1.2651
10906TIP3    H254210   0.385   4.744  16.124  0.9367 -1.4345  0.0635
10907TIP3   OH254211   0.877   1.895  12.590 -0.0817 -0.1923  0.7380
10907TIP3    H154212   0.783   1.889  12.572 -0.2591  1.0962  1.1173
10907TIP3    H254213   0.891   1.987  12.612  1.2117 -0.4484  1.0574
10908TIP3   OH254214   5.776   6.751  11.919  0.3552 -0.1586 -0.1508
10908TIP3    H154215   5.752   6.773  11.829  3.0416 -0.1495 -0.9587
10908TIP3    H254216   5.742   6.662  11.931 -0.2913 -0.0525 -1.0663
10909TIP3   OH254217   6.445   0.488   6.374 -0.2254  0.5811 -0.2026
10909TIP3    H154218   6.367   0.436   6.360 -0.3409  0.8734 -0.6848
10909TIP3    H254219   6.417   0.560   6.430 -0.2287  0.5068 -0.1100
10910TIP3   OH254220   5.139   2.799   1.514  0.3915  0.2286 -0.2518
10910TIP3    H154221   5.082   2.724   1.530 -0.2331  0.7367 -0.0248
10910TIP3    H254222   5.155   2.836   1.601 -0.2044  0.9902 -0.4514
10911TIP3   OH254223   2.140   6.778  16.747  0.0564  0.0931  0.2449
10911TIP3    H154224   2.132   6.826  16.665 -0.1119  0.6993  0.6034
10911TIP3    H254225   2.210   6.715  16.733  0.8310  0.9817  0.0108
10912TIP3   OH254226   5.529   2.257   0.553 -0.1727  0.1543  0.0196
10912TIP3    H154227   5.605   2.286   0.503 -0.1732 -0.7946 -0.5658
10912TIP3    H254228   5.562   2.185   0.608 -0.1595  1.2194  1.4643
10913TIP3   OH254229   5.566   4.884   2.785  0.7384  0.8272  0.5663
10913TIP3    H154230   5.538   4.793   2.784  1.5659  0.5609  0.0331
10913TIP3    H254231   5.524   4.923   2.708  2.4371  0.2070 -0.7456
10914TIP3   OH254232   3.610   5.599  13.477  0.2478  0.3815  0.1859
10914TIP3    H154233   3.599   5.567  13.387  1.3154  1.0351 -0.1911
10914TIP3    H254234   3.608   5.694  13.469  0.4308  0.4437  0.8415
10915TIP3   OH254235   5.603   1.281   2.507  0.4714 -0.8037 -0.2109
10915TIP3    H154236   5.519   1.235   2.506  0.3715 -0.6150 -0.7192
10915TIP3    H254237   5.582   1.371   2.481  0.8104 -0.7253 -0.2208
10916TIP3   OH254238   1.809   0.691  15.514 -0.0539 -0.6973  0.0966
10916TIP3    H154239   1.783   0.600  15.527 -1.6582 -0.3999 -0.7319
10916TIP3    H254240   1.830   0.697  15.420  1.7805 -0.5940  0.4775
10917TIP3   OH254241   4.179   5.875  10.967 -0.3437  0.3127 -0.8593
10917TIP3    H154242   4.109   5.874  10.902  0.2317 -0.6271 -1.4803
10917TIP3    H254243   4.243   5.937  10.932 -0.0232 -0.2111 -1.2140
10918TIP3   OH254244   0.992   1.943  11.740 -0.3395  0.3470 -0.5133
10918TIP3    H154245   1.029   1.857  11.758 -1.2505  0.3497  1.5745
10918TIP3    H254246   0.962   1.937  11.649 -1.2380 -1.8668 -0.1398
10919TIP3   OH254247   5.730   6.588   0.719 -0.3457  0.8870  0.1270
10919TIP3    H154248   5.820   6.595   0.688 -0.8387  0.3738 -1.5297
10919TIP3    H254249   5.676   6.602   0.641 -1.6837  0.4971  0.9436
10920TIP3   OH254250   4.296   1.382  10.418 -0.4799 -0.1609 -0.0635
10920TIP3    H154251   4.315   1.311  10.357 -0.1970 -1.4308  1.4076
10920TIP3    H254252   4.263   1.337  10.497 -0.2685  1.3419  0.9294
10921TIP3   OH254253   1.261   2.608  12.569  0.7546 -0.3851  0.6136
10921TIP3    H154254   1.208   2.529  12.580 -1.7409  0.9812 -0.6711
10921TIP3    H254255   1.313   2.613  12.649 -1.3701 -1.6549  2.1827
10922TIP3   OH254256   2.515   4.353   2.298 -0.1307 -0.4131  0.2460
10922TIP3    H154257   2.510   4.275   2.354 -0.7144 -0.4319  0.1751
10922TIP3    H254258   2.441   4.343   2.238 -0.7467  0.6341  0.8087
10923TIP3   OH254259   1.417   6.240   0.852 -0.5160  0.0930 -0.4543
10923TIP3    H154260   1.344   6.265   0.909  0.2707 -0.7909  0.9923
10923TIP3    H254261   1.424   6.312   0.789 -1.8179  0.7969  0.1584
10924TIP3   OH254262   2.760   4.373   0.592 -0.8235  0.6643  0.2498
10924TIP3    H154263   2.720   4.455   0.562 -1.5656  0.1727 -0.1316
10924TIP3    H254264   2.686   4.313   0.602 -0.3154  0.1143  0.7806
10925TIP3   OH254265   1.572   0.245  13.187 -0.0291  0.4274 -0.0855
10925TIP3    H154266   1.574   0.263  13.094 -2.3460 -1.7615 -0.6775
10925TIP3    H254267   1.483   0.268  13.214 -0.5267 -2.1670  0.7624
10926TIP3   OH254268   6.235   2.143  16.881 -0.3788  0.3436  0.0883
10926TIP3    H154269   6.267   2.198  16.809 -0.4606  0.9327  0.4996
10926TIP3    H254270   6.295   2.067  16.881 -0.4352  0.2888 -0.6569
10927TIP3   OH254271   4.257   1.028  10.473  0.1146  0.3966 -0.7476
10927TIP3    H154272   4.236   1.107  10.523  1.3094  2.1947 -2.9036
10927TIP3    H254273   4.353   1.029  10.467  0.3064 -2.1712  0.5504
10928TIP3   OH254274   5.434   3.861  16.588  0.1605 -0.2164  0.2200
10928TIP3    H154275   5.355   3.809  16.604  1.1372 -1.6300  0.5846
10928TIP3    H254276   5.441   3.918  16.664  0.0553 -0.8305  0.6966
10929TIP3   OH254277   5.047   1.684   2.426  0.2288 -0.2709 -0.0841
10929TIP3    H154278   5.036   1.726   2.340 -0.8089 -0.1925  0.0681
10929TIP3    H254279   5.078   1.755   2.483 -4.0370  1.2278  0.8327
10930TIP3   OH254280   1.769   6.753  14.614  0.3110 -0.2352 -0.3192
10930TIP3    H154281   1.696   6.809  14.640 -0.6490 -1.1911 -0.8658
10930TIP3    H254282   1.840   6.776  14.674 -0.2566  1.0926 -0.1232
10931TIP3   OH254283   1.560   4.628  14.688 -0.4651  0.5085  0.1887
10931TIP3    H154284   1.632   4.608  14.628  0.1799  0.3922  0.9877
10931TIP3    H254285   1.593   4.605  14.774 -1.5335  0.2787  0.5525
10932TIP3   OH254286   6.343   0.568  16.820 -0.1403  0.0664 -0.0461
10932TIP3    H154287   6.421   0.597  16.774  0.4371 -1.3767 -0.0268
10932TIP3    H254288   6.279   0.551  16.750 -0.1776  0.4958 -0.1177
10933TIP3   OH254289   2.884   0.354  16.250 -0.0752 -0.1420 -0.0410
10933TIP3    H154290   2.914   0.398  16.170 -0.3272  0.1573  0.0256
10933TIP3    H254291   2.832   0.421  16.295  0.2952 -0.2205  0.5079
10934TIP3   OH254292   1.721   0.239   4.540  0.2411 -0.0436  0.0134
10934TIP3    H154293   1.665   0.307   4.578  1.5400  0.5960  0.8150
10934TIP3    H254294   1.659   0.173   4.509 -1.0465  1.4504 -0.7258
10935TIP3   OH254295   2.921   1.048   3.967  0.1493  0.0642  0.7994
10935TIP3    H154296   2.946   0.973   4.022  1.4198 -0.2471 -0.1572
10935TIP3    H254297   2.924   1.014   3.878 -1.6302  0.6330  0.4920
10936TIP3   OH254298   0.858   3.483   1.939 -0.3369 -0.5525  0.2617
10936TIP3    H154299   0.786   3.542   1.919  0.2073  1.0531  2.6059
10936TIP3    H254300   0.935   3.528   1.904  0.2544  0.9509  3.1378
10937TIP3   OH254301   1.482   4.651   1.368 -0.1423 -0.3276 -0.2079
10937TIP3    H154302   1.481   4.583   1.436 -0.5561  0.9966  1.1834
10937TIP3    H254303   1.467   4.732   1.416 -0.8580  0.6309 -1.9631
10938TIP3   OH254304   3.213   1.842   3.408  0.1201  0.0255  0.0897
10938TIP3    H154305   3.217   1.795   3.325  0.8329  0.9537 -0.4149
10938TIP3    H254306   3.143   1.799   3.457 -0.9650  0.0764 -1.3739
10939TIP3   OH254307   0.570   4.485  15.530  0.5000 -0.0277 -0.7113
10939TIP3    H154308   0.604   4.422  15.593  0.2351 -1.9141 -2.3685
10939TIP3    H254309   0.647   4.515  15.483  0.6006  0.7919 -0.0579
10940TIP3   OH254310   6.276   1.369  16.401  0.2273  0.1809 -0.3433
10940TIP3    H154311   6.247   1.449  16.357  1.0105  0.2018 -0.8419
10940TIP3    H254312   6.319   1.399  16.480  0.3360  0.2455 -0.4263
10941TIP3   OH254313   1.523   6.631   3.343  0.5643  0.0843  0.0305
10941TIP3    H154314   1.586   6.581   3.395  0.2202 -0.0082  0.3667
10941TIP3    H254315   1.468   6.675   3.408  0.9566  1.0246 -0.2657
10942TIP3   OH254316   1.236   2.797   2.617  0.3806 -0.3406 -0.0529
10942TIP3    H154317   1.277   2.881   2.596  2.7193 -1.4554 -0.2742
10942TIP3    H254318   1.265   2.738   2.548 -0.2125 -1.6316  0.7551
10943TIP3   OH254319   1.900   0.413  11.370 -0.0017 -0.0729  0.2409
10943TIP3    H154320   1.965   0.432  11.302 -1.3976  0.0365 -1.1241
10943TIP3    H254321   1.937   0.337  11.417  1.1363  0.0290 -0.4327
10944TIP3   OH254322   4.674   2.999   1.474  0.1920  0.3719  0.2075
10944TIP3    H154323   4.761   3.033   1.493 -0.1981  1.1657  0.6301
10944TIP3    H254324   4.635   2.984   1.560  0.7202 -2.2087  0.0721
10945TIP3   OH254325   1.008   5.659   1.451  0.8947  0.1739  0.4099
10945TIP3    H154326   1.060   5.739   1.458 -0.2344  0.9241  0.5147
10945TIP3    H254327   1.063   5.598   1.403  2.0790  0.7518  1.0034
10946TIP3   OH254328   1.949   1.613   1.562  0.2918  0.1352 -0.2593
10946TIP3    H154329   1.982   1.561   1.635  0.5531  0.2715 -0.2805
10946TIP3    H254330   1.868   1.569   1.536 -1.6806  1.8889  2.2617
10947TIP3   OH254331   0.150   3.888  13.109 -0.5067  0.0361  0.2548
10947TIP3    H154332   0.125   3.799  13.086 -1.9864 -0.0840  2.0574
10947TIP3    H254333   0.165   3.932  13.025  0.0443 -1.8189 -0.6647
10948TIP3   OH254334   6.565   5.931  12.227  0.7436 -0.3162  0.8579
10948TIP3    H154335   6.627   5.952  12.157  0.4473 -0.0008  0.6869
10948TIP3    H254336   6.562   6.010  12.281 -0.3828  0.0998  0.2095
10949TIP3   OH254337   2.379   5.979   5.195 -0.0703  0.1415  0.1510
10949TIP3    H154338   2.288   5.954   5.212  0.2014 -0.0533  1.4358
10949TIP3    H254339   2.382   6.000   5.101 -1.7009  1.2981  0.3305
10950TIP3   OH254340   3.609   6.435   1.959 -0.5655  0.0954 -0.5654
10950TIP3    H154341   3.567   6.435   2.045 -1.9144 -0.0900 -1.1996
10950TIP3    H254342   3.581   6.353   1.919  1.2656 -0.5534 -0.6462
10951TIP3   OH254343   0.865   6.712   2.903  0.3894  0.1336  0.3745
10951TIP3    H154344   0.871   6.712   2.807  0.8591 -2.2151  0.3474
10951TIP3    H254345   0.949   6.677   2.932  0.0229  0.2583  1.6325
10952TIP3   OH254346   5.007   0.280  12.836  0.1334 -0.5681 -0.3185
10952TIP3    H154347   5.101   0.262  12.825  0.3931 -0.3665  1.2575
10952TIP3    H254348   4.965   0.230  12.767  1.3757 -1.1086 -0.7211
10953TIP3   OH254349   1.747   2.055  15.382  0.7906  0.5328 -0.1504
10953TIP3    H154350   1.789   1.974  15.355  1.0656  0.1512  1.3366
10953TIP3    H254351   1.819   2.114  15.405  0.5630  0.7264  0.0817
10954TIP3   OH254352   1.128   6.526   0.638 -0.4025 -0.6591 -0.5893
10954TIP3    H154353   1.208   6.578   0.633 -0.9050  0.1107 -0.8212
10954TIP3    H254354   1.135   6.479   0.721 -0.2913  0.3807  0.0011
10955TIP3   OH254355   4.051   4.602   2.002  0.0929 -0.5489 -0.3627
10955TIP3    H154356   4.138   4.613   1.964  0.4904  0.4197  0.7752
10955TIP3    H254357   4.063   4.618   2.095 -1.1722 -1.1723 -0.0702
10956TIP3   OH254358   4.500   0.072  13.271  0.6286  0.2778 -0.3827
10956TIP3    H154359   4.536  -0.014  13.294 -0.0889  0.4950  1.7999
10956TIP3    H254360   4.417   0.053  13.229 -1.4367 -0.2043  3.4956
10957TIP3   OH254361   3.318   5.939  13.351 -0.0142  0.5472 -0.2234
10957TIP3    H154362   3.262   5.909  13.422 -1.0727  0.9489 -0.8542
10957TIP3    H254363   3.400   5.892  13.362 -0.9803 -1.1646 -0.1238
10958TIP3   OH254364   1.816   0.026   1.032  0.0291  0.1307  0.1910
10958TIP3    H154365   1.767  -0.045   1.074  0.9685 -1.3119 -1.0550
10958TIP3    H254366   1.839   0.085   1.104  1.4213 -2.1599  1.7448
10959TIP3   OH254367   3.361   0.287   3.525  0.2281  0.0651 -0.5922
10959TIP3    H154368   3.384   0.256   3.613  1.3226  0.4650 -0.7254
10959TIP3    H254369   3.351   0.382   3.535  1.0929  0.2083 -1.0477
10960TIP3   OH254370   1.465   1.774  13.431 -0.2402 -0.7431  0.1524
10960TIP3    H154371   1.544   1.728  13.459  0.5929  0.2306 -0.4992
10960TIP3    H254372   1.393   1.715  13.454  0.6848 -1.7564  0.5442
10961TIP3   OH254373   3.849   5.435   3.121  0.9818  0.7871  0.4773
10961TIP3    H154374   3.873   5.478   3.203  0.6578  0.9327  0.4946
10961TIP3    H254375   3.876   5.496   3.052  3.5250 -0.3616  0.3458
10962TIP3   OH254376   5.321   1.554   3.774 -0.2923 -0.5294 -0.0825
10962TIP3    H154377   5.396   1.581   3.720  0.0180  0.3973  0.7802
10962TIP3    H254378   5.337   1.462   3.795 -0.1920 -0.7737 -1.1835
10963TIP3   OH254379   6.568   1.162   1.481 -0.5661  0.3595 -0.1334
10963TIP3    H154380   6.604   1.171   1.392 -0.5921  0.6539 -0.1149
10963TIP3    H254381   6.642   1.181   1.538 -0.3960 -0.4172 -0.0844
10964TIP3   OH254382   3.885   2.439  13.524  0.3966  0.1136  0.4065
10964TIP3    H154383   3.914   2.374  13.459  0.4667  0.3247  0.2271
10964TIP3    H254384   3.940   2.515  13.508 -0.4575  0.6255 -0.1427
10965TIP3   OH254385   3.999   0.958   1.850  0.7737  0.3219  0.2714
10965TIP3    H154386   3.985   0.881   1.795  0.5140  0.8074 -0.3568
10965TIP3    H254387   3.939   0.946   1.924  0.2577  0.2277 -0.1506
10966TIP3   OH254388   4.767   5.028  12.606  0.6081  0.3488  0.0906
10966TIP3    H154389   4.711   4.952  12.621 -0.0708  0.7154 -0.5148
10966TIP3    H254390   4.819   5.036  12.686  1.3971 -1.3198 -0.2173
10967TIP3   OH254391   1.112   2.855   3.082 -0.3827  0.8120  0.1429
10967TIP3    H154392   1.116   2.849   2.987 -1.8399  0.1164  0.1047
10967TIP3    H254393   1.202   2.836   3.111  0.0280  0.8391 -1.0640
10968TIP3   OH254394   1.270   0.942   6.110 -0.3744 -0.9670  0.4159
10968TIP3    H154395   1.237   0.854   6.093  0.5618 -1.7067  2.1670
10968TIP3    H254396   1.358   0.928   6.145  1.2300  0.8363 -2.4642
10969TIP3   OH254397   0.019   0.459  11.476 -0.2686  0.6291 -0.1024
10969TIP3    H154398   0.111   0.480  11.458  0.3995  0.1154  2.2691
10969TIP3    H254399  -0.007   0.400  11.406  0.3336  2.8266 -2.3341
10970TIP3   OH254400   5.888   4.479   4.592 -0.1386  0.2373 -0.2908
10970TIP3    H154401   5.809   4.524   4.621  0.8472  1.3889  0.7506
10970TIP3    H254402   5.946   4.550   4.563 -0.1225 -0.6878 -2.7612
10971TIP3   OH254403   4.097   1.675   1.362  0.3075  0.1891  0.2389
10971TIP3    H154404   4.042   1.694   1.286 -1.4017 -1.3473  1.0002
10971TIP3    H254405   4.035   1.655   1.432  1.8367  1.3156  2.0058
10972TIP3   OH254406   4.351   6.637   1.515 -0.2492  0.2167  0.1438
10972TIP3    H154407   4.445   6.642   1.496  0.5359 -0.6017  3.2689
10972TIP3    H254408   4.321   6.727   1.511  1.1851  0.7879  1.1607
10973TIP3   OH254409   1.961   0.950  10.417 -0.5773  0.1191 -0.0087
10973TIP3    H154410   1.868   0.943  10.435 -0.3584 -2.1826  0.4934
10973TIP3    H254411   2.001   0.877  10.464  1.6862  1.8062  0.9193
10974TIP3   OH254412   4.241   0.897  16.583 -0.4360  1.1203 -0.0445
10974TIP3    H154413   4.185   0.953  16.637 -0.7816  0.9981 -0.2712
10974TIP3    H254414   4.330   0.928  16.600 -0.7556  3.4356 -2.0912
10975TIP3   OH254415   5.759   6.763   5.652 -0.5403  0.3786  0.0425
10975TIP3    H154416   5.757   6.762   5.748  1.5931 -1.1656  0.1405
10975TIP3    H254417   5.691   6.701   5.626  2.0608 -3.0895  0.8153
10976TIP3   OH254418   5.148   3.419   2.893 -0.4143  0.5201 -0.8613
10976TIP3    H154419   5.165   3.368   2.972 -1.0626  2.6928  0.7912
10976TIP3    H254420   5.070   3.378   2.855  0.7853 -1.4963 -1.3048
10977TIP3   OH254421   2.796   6.129  15.187  0.0271  0.2812 -0.5196
10977TIP3    H154422   2.778   6.092  15.274  0.1630  0.5435 -0.3797
10977TIP3    H254423   2.728   6.195  15.175  0.4439  0.7505 -0.3070
10978TIP3   OH254424   4.830   5.805   6.349  0.8864 -0.1767  0.6657
10978TIP3    H154425   4.779   5.878   6.384 -0.1637 -0.4573 -0.2007
10978TIP3    H254426   4.899   5.791   6.413 -0.0115  0.3510  1.7874
10979TIP3   OH254427   6.004   5.780  14.884  0.3781  0.5564  0.3368
10979TIP3    H154428   6.094   5.799  14.856  0.3476 -0.8470 -0.7886
10979TIP3    H254429   5.949   5.814  14.814  0.1779 -0.9089 -0.2392
10980TIP3   OH254430   1.646   1.643   2.268 -0.3146 -0.2238 -0.2417
10980TIP3    H154431   1.689   1.645   2.353 -0.2325  0.8719 -0.2944
10980TIP3    H254432   1.682   1.718   2.221  0.0103 -1.0981 -1.4341
10981TIP3   OH254433   1.055   0.483  16.674  0.6902 -0.0556 -0.1696
10981TIP3    H154434   1.139   0.490  16.629  0.2300  0.2086 -1.0231
10981TIP3    H254435   1.001   0.552  16.635 -0.3088 -0.9917 -0.4997
10982TIP3   OH254436   4.390   4.401   0.854 -0.7687 -0.5327 -0.0333
10982TIP3    H154437   4.360   4.464   0.919  0.1531 -1.0014  0.8777
10982TIP3    H254438   4.320   4.336   0.848 -1.5519  0.3487 -0.6912
10983TIP3   OH254439   3.411   1.301   2.379  0.3140  0.4377 -0.1480
10983TIP3    H154440   3.354   1.312   2.302 -2.6877 -0.9067  1.6922
10983TIP3    H254441   3.362   1.341   2.451  2.1784  0.0170  1.4362
10984TIP3   OH254442   3.943   4.098  13.462 -0.4009  0.1039 -0.6746
10984TIP3    H154443   3.960   4.060  13.376  2.2820  1.5934 -0.9027
10984TIP3    H254444   4.001   4.051  13.521  0.1203  1.2099 -0.2837
10985TIP3   OH254445   5.552   5.292  11.231 -0.8845  0.0444  0.0606
10985TIP3    H154446   5.526   5.297  11.139 -0.0832 -0.9261 -0.2388
10985TIP3    H254447   5.549   5.382  11.262  0.7822  0.6885 -1.4687
10986TIP3   OH254448   4.530   5.377  15.674 -0.3047  0.2011  0.2899
10986TIP3    H154449   4.598   5.322  15.712 -1.2606 -0.3554  1.2541
10986TIP3    H254450   4.532   5.357  15.580  0.5419 -0.1440  0.3761
10987TIP3   OH254451   2.211   4.381   0.610  0.6347 -0.1196 -0.0575
10987TIP3    H154452   2.151   4.387   0.685 -1.4136 -0.3242 -1.5847
10987TIP3    H254453   2.224   4.472   0.583  2.6553  0.1012  1.4091
10988TIP3   OH254454   5.411   4.029  14.199  0.2519  0.1815  0.4437
10988TIP3    H154455   5.471   4.094  14.236 -0.7158  0.7184  1.1504
10988TIP3    H254456   5.384   4.066  14.115 -0.3356  0.7366  0.8680
10989TIP3   OH254457   6.338   0.364   1.516 -0.7064  0.1398 -0.5318
10989TIP3    H154458   6.420   0.361   1.467 -1.5562 -2.1020 -1.9726
10989TIP3    H254459   6.338   0.283   1.568 -1.0434  1.1880  1.1869
10990TIP3   OH254460   0.784   0.809   2.768 -0.4469 -0.4094 -0.3673
10990TIP3    H154461   0.860   0.858   2.737 -0.2525 -0.8350 -0.5691
10990TIP3    H254462   0.727   0.803   2.692 -0.1060 -1.1895 -0.5764
10991TIP3   OH254463   2.307   1.127   2.602 -0.2862 -1.0123  0.1466
10991TIP3    H154464   2.359   1.148   2.680 -0.6610 -0.8348  0.3524
10991TIP3    H254465   2.359   1.159   2.529 -0.2468 -0.5536  0.3697
10992TIP3   OH254466   5.785   0.546   4.553 -0.6648 -0.6269  0.1987
10992TIP3    H154467   5.798   0.561   4.646  0.4590 -1.2804  0.1671
10992TIP3    H254468   5.853   0.598   4.510 -3.1324  2.3011 -0.4962
10993TIP3   OH254469   3.440   4.016  13.765 -0.3853  0.2607  0.3106
10993TIP3    H154470   3.453   4.110  13.777 -2.6055  0.6581  0.0845
10993TIP3    H254471   3.431   4.004  13.670  2.1552 -0.5897  0.0955
10994TIP3   OH254472   1.282   1.075   2.054  0.0521 -0.3748  0.4552
10994TIP3    H154473   1.264   0.982   2.063 -1.8642 -0.0569  0.4995
10994TIP3    H254474   1.273   1.092   1.960 -0.3676 -0.1231  0.5354
10995TIP3   OH254475   1.916   1.916  11.699 -0.2196 -0.3376  0.0694
10995TIP3    H154476   1.911   1.834  11.749 -0.3014  0.6165  1.7083
10995TIP3    H254477   2.006   1.918  11.666  1.0076  0.5323  3.0706
10996TIP3   OH254478   0.324   4.118  12.565  0.4829 -0.1415  0.1611
10996TIP3    H154479   0.380   4.155  12.498 -0.2184  0.9020  0.1248
10996TIP3    H254480   0.241   4.167  12.557 -0.1320 -1.0473  0.7704
10997TIP3   OH254481   3.339   4.720   4.214  0.4789 -0.6658 -0.0075
10997TIP3    H154482   3.353   4.638   4.167  1.6143 -1.4379  1.5577
10997TIP3    H254483   3.288   4.695   4.291  2.3336 -0.2978  1.4307
10998TIP3   OH254484   2.066   5.159  15.258 -0.6339  0.1288  0.1589
10998TIP3    H154485   2.095   5.154  15.167 -3.2204  0.6897 -0.7896
10998TIP3    H254486   2.033   5.248  15.268 -1.5733 -0.3098  1.2531
10999TIP3   OH254487   3.491   1.638   1.036  0.3927 -0.2268  0.2468
10999TIP3    H154488   3.548   1.678   1.102  2.9890  1.1341 -2.5721
10999TIP3    H254489   3.550   1.585   0.983 -2.0332 -3.3683  0.4136
11000TIP3   OH254490   5.357   2.548  11.760  0.5523  0.3679  0.4423
11000TIP3    H154491   5.288   2.572  11.822  1.5692  1.7799  1.0720
11000TIP3    H254492   5.400   2.473  11.801  0.6665  0.7541  1.0579
11001TIP3   OH254493   1.278   4.479   0.001 -0.0495  0.1802 -0.2420
11001TIP3    H154494   1.254   4.545   0.066  0.1445  0.8876 -0.8810
11001TIP3    H254495   1.360   4.443   0.033  0.9274  1.7037 -0.9306
11002TIP3   OH254496   1.815   4.470   4.212 -0.2197 -0.4476 -0.2923
11002TIP3    H154497   1.765   4.388   4.200 -0.0984 -0.4688 -0.6636
11002TIP3    H254498   1.901   4.441   4.243 -0.1291 -0.4711 -0.5636
11003TIP3   OH254499   5.569   0.143   6.308 -0.0851  0.2267  0.1967
11003TIP3    H154500   5.521   0.112   6.384  0.0066 -1.0019 -0.2206
11003TIP3    H254501   5.611   0.224   6.337 -0.3340 -0.0338  1.3246
11004TIP3   OH254502   1.690   4.015  13.706  0.5891  0.8700 -0.0296
11004TIP3    H154503   1.769   3.970  13.675 -0.3938  0.8004 -2.6977
11004TIP3    H254504   1.685   4.094  13.652 -1.4235  0.6035 -0.3289
11005TIP3   OH254505   6.691   1.609   2.253 -0.3446 -0.3796 -0.4581
11005TIP3    H154506   6.642   1.565   2.184 -0.7332  0.3591 -0.6593
11005TIP3    H254507   6.695   1.544   2.324 -1.6327 -0.4636 -0.4282
11006TIP3   OH254508   5.326   4.209  15.766 -0.9801 -0.1244  0.8130
11006TIP3    H154509   5.284   4.290  15.738 -1.1904 -0.0165  1.4405
11006TIP3    H254510   5.345   4.163  15.684 -0.2872  0.8342  0.4166
11007TIP3   OH254511   3.787   0.811  15.893 -0.2871  0.9301 -0.2324
11007TIP3    H154512   3.817   0.870  15.824 -1.0926  0.4298 -1.0434
11007TIP3    H254513   3.814   0.724  15.863 -0.9352  0.6732 -0.0861
11008TIP3   OH254514   5.126   5.861   5.019 -0.3904  0.5961  0.0092
11008TIP3    H154515   5.094   5.791   4.963 -0.6786  1.3692 -0.8097
11008TIP3    H254516   5.202   5.897   4.973  1.6297 -1.0698  1.8210
11009TIP3   OH254517   2.749   2.883  12.060 -0.0643 -0.5571 -0.2067
11009TIP3    H154518   2.721   2.972  12.082 -1.4256 -1.1473  0.6330
11009TIP3    H254519   2.809   2.894  11.986 -0.2843  1.0441 -0.1897
11010TIP3   OH254520   3.663   5.090  15.264  0.5624 -0.6282  0.4342
11010TIP3    H154521   3.572   5.066  15.286  0.8242 -2.6420 -0.4772
11010TIP3    H254522   3.716   5.043  15.329  1.0634 -1.9454 -0.8847
11011TIP3   OH254523   2.596   4.326   5.691  0.4603  0.2732 -0.1848
11011TIP3    H154524   2.647   4.322   5.772 -1.4123  0.6618  1.0665
11011TIP3    H254525   2.568   4.417   5.684  0.2694  0.1570 -1.0665
11012TIP3   OH254526   1.119   0.439   4.175  0.2816  0.3543  0.2896
11012TIP3    H154527   1.102   0.361   4.123  1.0470 -0.1249  0.7405
11012TIP3    H254528   1.204   0.471   4.144 -1.1536  2.5657 -1.7517
11013TIP3   OH254529   6.607   6.380  10.630  0.7291  0.5001 -0.6770
11013TIP3    H154530   6.606   6.353  10.538 -1.0519  1.8238 -1.0997
11013TIP3    H254531   6.634   6.302  10.678 -0.0983 -0.7581 -2.1884
11014TIP3   OH254532   4.573   3.983  14.572 -0.3445  0.2855 -0.2760
11014TIP3    H154533   4.614   4.032  14.643 -0.8840  1.1812 -0.5673
11014TIP3    H254534   4.498   4.036  14.547 -3.3687 -2.5444  2.0285
11015TIP3   OH254535   4.723   0.829   2.483  0.0370 -0.2874  0.0167
11015TIP3    H154536   4.734   0.900   2.546 -0.6570  1.2499 -1.5298
11015TIP3    H254537   4.667   0.766   2.527  0.5844  0.1433  1.3843
11016TIP3   OH254538   6.769   3.718   6.286  0.2496  0.0396  0.0839
11016TIP3    H154539   6.699   3.653   6.294 -0.5711  0.9830  0.8720
11016TIP3    H254540   6.845   3.676   6.324 -0.0580 -0.7769 -0.1921
11017TIP3   OH254541   1.296   0.868  15.759  0.5470  0.2244  0.5003
11017TIP3    H154542   1.370   0.929  15.753  2.6943 -2.2105  0.7620
11017TIP3    H254543   1.278   0.842  15.668  1.1853 -0.4889  0.5730
11018TIP3   OH254544   6.336   0.268   3.117 -0.0053  0.0827  0.1005
11018TIP3    H154545   6.272   0.201   3.095  0.2159  0.3624 -1.5321
11018TIP3    H254546   6.412   0.248   3.062  0.9353  0.3540  1.2500
11019TIP3   OH254547   6.326   5.627  14.043 -0.4068  0.1061  0.3867
11019TIP3    H154548   6.298   5.546  14.000 -2.6881  0.8909  0.2148
11019TIP3    H254549   6.328   5.606  14.136 -0.8559 -0.2082  0.3321
11020TIP3   OH254550   6.759   2.073  13.145  0.2178 -0.1101 -0.3762
11020TIP3    H154551   6.684   2.096  13.090 -0.7321 -0.8167  0.5607
11020TIP3    H254552   6.768   1.978  13.135 -0.6041 -0.4277  1.3610
11021TIP3   OH254553   0.715   3.141   3.146  0.3562 -0.1165  0.1790
11021TIP3    H154554   0.742   3.050   3.133 -0.5234 -0.2814 -0.5319
11021TIP3    H254555   0.624   3.136   3.173  0.6051  0.5153  1.2328
11022TIP3   OH254556   0.989   4.084   1.724 -0.4062  0.7421 -0.1335
11022TIP3    H154557   0.973   4.016   1.659 -1.9621  0.9042  0.0353
11022TIP3    H254558   1.074   4.120   1.701  0.6027 -1.4290 -0.0643
11023TIP3   OH254559   4.023   1.464   0.535 -0.0159  0.3162  0.2554
11023TIP3    H154560   4.067   1.420   0.608  0.7489  2.0619  0.8879
11023TIP3    H254561   4.087   1.459   0.464 -0.5304 -0.8674 -0.1560
11024TIP3   OH254562   6.146   0.424   6.161  0.4071  0.1194 -0.4011
11024TIP3    H154563   6.099   0.343   6.144  0.3243 -0.0125  0.4217
11024TIP3    H254564   6.166   0.421   6.255 -1.0455  1.7924  0.0198
11025TIP3   OH254565   2.925   1.260   4.443 -0.2362 -0.5574  0.4955
11025TIP3    H154566   2.883   1.321   4.503 -1.8947 -1.0368 -0.1002
11025TIP3    H254567   2.980   1.205   4.499 -0.0133  0.4054  1.2484
11026TIP3   OH254568   5.034   4.726  12.801  0.2541 -0.0418 -0.1859
11026TIP3    H154569   5.041   4.655  12.864 -0.3700 -0.2838 -0.3807
11026TIP3    H254570   5.034   4.806  12.854  1.2092 -0.1686  0.0150
11027TIP3   OH254571   2.728   2.278  13.806  0.9077 -0.3987 -0.1823
11027TIP3    H154572   2.715   2.333  13.729  1.2329  0.6370  0.4825
11027TIP3    H254573   2.639   2.259  13.837  0.7728 -0.9016 -0.8493
11028TIP3   OH254574   1.119   3.681  12.010  0.2630  0.8943 -0.0258
11028TIP3    H154575   1.040   3.709  11.964  0.5656  1.0319 -0.4687
11028TIP3    H254576   1.125   3.738  12.086  0.0014  0.9601 -0.0542
11029TIP3   OH254577   6.073   3.000  15.496  0.2102  0.1610  0.2462
11029TIP3    H154578   6.150   3.056  15.496  0.4453 -0.1164  1.7245
11029TIP3    H254579   6.045   2.997  15.587 -2.0346  0.8678 -0.3397
11030TIP3   OH254580   6.286   3.768  13.232  0.2445 -0.1876  0.1021
11030TIP3    H154581   6.212   3.708  13.230 -0.3382  0.5448 -0.4470
11030TIP3    H254582   6.314   3.768  13.324 -0.4166 -0.4902  0.3095
11031TIP3   OH254583   4.895   6.629   0.768  0.7846  0.3429  0.3140
11031TIP3    H154584   4.808   6.605   0.799  1.5011 -1.4667  1.0311
11031TIP3    H254585   4.888   6.629   0.672 -0.2032  1.0648  0.3803
11032TIP3   OH254586   3.434   0.997  15.207 -0.4292  0.6117  0.2436
11032TIP3    H154587   3.439   1.056  15.282  1.0240  0.2276  0.4758
11032TIP3    H254588   3.428   0.909  15.246 -0.9634  0.4950 -0.0959
11033TIP3   OH254589   5.787   3.645  13.234  0.3033  0.3163  0.3643
11033TIP3    H154590   5.800   3.740  13.246  3.0089  0.1663 -0.6175
11033TIP3    H254591   5.857   3.619  13.174  0.2360 -2.4928  1.3651
11034TIP3   OH254592   2.858   4.415  17.102  0.0545  0.0271 -0.0040
11034TIP3    H154593   2.840   4.501  17.065 -3.4553  1.9638  5.0355
11034TIP3    H254594   2.775   4.368  17.097  0.3894 -0.9016  1.9839
11035TIP3   OH254595   4.268   5.330   6.838  0.4591  0.2246 -0.5043
11035TIP3    H154596   4.191   5.308   6.889  0.4605  0.1943 -0.5154
11035TIP3    H254597   4.239   5.399   6.778  0.4229  0.1628 -0.5580
11036TIP3   OH254598   5.378   6.059  13.837  0.3056 -0.0083  0.1741
11036TIP3    H154599   5.412   6.122  13.775 -2.0566  2.2566  0.9966
11036TIP3    H254600   5.442   6.057  13.908  0.7182  1.0289 -0.1540
11037TIP3   OH254601   3.392   6.086  14.091 -0.1800 -0.4051 -0.1525
11037TIP3    H154602   3.376   6.127  14.006  2.5246 -0.9923 -1.0271
11037TIP3    H254603   3.476   6.122  14.119  0.4592 -2.5217  0.8140
11038TIP3   OH254604   1.714   3.585   1.622  0.2210  0.2855 -0.0134
11038TIP3    H154605   1.751   3.659   1.573 -1.3422  0.8060 -0.4853
11038TIP3    H254606   1.775   3.570   1.694  0.2629  2.4641  0.4658
11039TIP3   OH254607   2.900   2.459  15.096  0.4432  0.9549 -0.1036
11039TIP3    H154608   2.814   2.451  15.137  0.6222  0.7818  0.2385
11039TIP3    H254609   2.915   2.553  15.090  0.0310  0.9970 -0.5884
11040TIP3   OH254610   5.725   1.522  16.048 -0.0132  0.4767  0.4587
11040TIP3    H154611   5.637   1.517  16.011  0.2322  0.0953 -0.0853
11040TIP3    H254612   5.764   1.599  16.007 -0.2524  0.9095  1.0467
11041TIP3   OH254613   6.187   2.918  12.575  0.5748  0.2608 -0.0263
11041TIP3    H154614   6.260   2.862  12.603 -0.2765 -1.2811 -0.7422
11041TIP3    H254615   6.111   2.860  12.578 -0.5133  1.6531  0.0373
11042TIP3   OH254616   3.751   2.885   2.585  0.4873  0.0294  0.0206
11042TIP3    H154617   3.820   2.841   2.536 -0.0136  0.9470 -1.5664
11042TIP3    H254618   3.670   2.842   2.556  0.2421  0.0660  0.6349
11043TIP3   OH254619   3.384   4.481   2.428  1.0326  0.6506  0.2125
11043TIP3    H154620   3.433   4.411   2.472  1.7557  1.7973  1.2974
11043TIP3    H254621   3.452   4.531   2.382  0.5881  0.9264 -0.1444
11044TIP3   OH254622   3.370   4.118  15.200 -0.0387 -0.1170 -0.1617
11044TIP3    H154623   3.289   4.114  15.250 -0.6114 -0.3772 -1.0713
11044TIP3    H254624   3.399   4.209  15.206 -1.9931  0.7423 -2.2048
11045TIP3   OH254625   4.786   4.017   2.790 -0.3186 -0.0580  0.0041
11045TIP3    H154626   4.771   4.077   2.717  1.6444 -0.3242 -0.6797
11045TIP3    H254627   4.716   3.953   2.783  1.2829 -1.7386 -3.4726
11046TIP3   OH254628   5.056   6.672   4.030  0.3284  0.0485  0.1413
11046TIP3    H154629   5.013   6.646   4.112  0.3602 -0.2828  0.0558
11046TIP3    H254630   5.110   6.747   4.053 -1.4238  1.4486 -0.0420
11047TIP3   OH254631   5.835   4.033   5.406  0.0089 -0.7406 -0.0104
11047TIP3    H154632   5.866   4.120   5.431  1.2113 -1.3480  0.7109
11047TIP3    H254633   5.797   4.045   5.319 -2.6001  1.0657  1.2487
11048TIP3   OH254634   0.890   5.351  13.302  0.1805  0.2024 -0.0557
11048TIP3    H154635   0.903   5.446  13.308 -1.6582  0.6780 -2.0445
11048TIP3    H254636   0.917   5.330  13.212 -0.7093 -0.8800 -0.0885
11049TIP3   OH254637   5.214   4.974  15.376  1.0728  0.0818 -0.2977
11049TIP3    H154638   5.158   5.015  15.442  1.2293  0.0988 -0.1735
11049TIP3    H254639   5.172   4.993  15.293  0.2574 -0.9159 -0.1303
11050TIP3   OH254640   4.826   4.073   5.588 -0.2406 -0.2353  0.2502
11050TIP3    H154641   4.820   4.166   5.564  1.8962 -0.2531 -0.5364
11050TIP3    H254642   4.878   4.072   5.669 -1.3529 -0.6994  0.9944
11051TIP3   OH254643   3.899   3.311  16.450  0.4112  0.8882 -0.0700
11051TIP3    H154644   3.851   3.270  16.522  0.7513  2.2285  0.9716
11051TIP3    H254645   3.836   3.314  16.378 -0.6550  1.4309  0.8461
11052TIP3   OH254646   6.109   0.201  11.385 -0.2260 -0.5131 -0.0268
11052TIP3    H154647   6.161   0.178  11.463  1.1411 -1.0533 -1.0536
11052TIP3    H254648   6.068   0.284  11.408 -2.1721 -1.9925  2.3402
11053TIP3   OH254649   5.969   0.271  12.531  0.0776 -0.2920  0.3199
11053TIP3    H154650   5.894   0.302  12.583  0.0027  1.5900 -0.8467
11053TIP3    H254651   5.933   0.254  12.444  0.9380  0.3493 -0.1734
11054TIP3   OH254652   1.108   3.378  14.868 -0.0792 -0.0515  0.0823
11054TIP3    H154653   1.096   3.285  14.852 -0.1731  0.0344 -0.3793
11054TIP3    H254654   1.026   3.418  14.837 -0.8554 -0.0031  2.1005
11055TIP3   OH254655   2.344   3.256  11.476 -0.1735 -0.3008  0.0735
11055TIP3    H154656   2.432   3.264  11.439 -0.9555  0.7143 -1.6960
11055TIP3    H254657   2.294   3.325  11.433 -1.9280 -1.0462  0.8269
11056TIP3   OH254658   1.615   0.899   0.910  0.2025  0.0681 -0.3582
11056TIP3    H154659   1.581   0.818   0.871  0.4410  0.7927 -2.1706
11056TIP3    H254660   1.708   0.883   0.922  0.0267 -0.3779  0.5877
11057TIP3   OH254661   1.575   4.474   4.021  0.1945 -0.2897  0.1292
11057TIP3    H154662   1.551   4.565   4.041  0.5413 -0.2605  0.4368
11057TIP3    H254663   1.642   4.453   4.086 -1.1821 -1.3680  1.2805
11058TIP3   OH254664   6.610   5.396  13.507  0.1398  0.4926  0.8443
11058TIP3    H154665   6.666   5.354  13.573  1.6163  0.9367 -0.0803
11058TIP3    H254666   6.660   5.473  13.479 -1.2760  1.3110  0.4977
11059TIP3   OH254667   3.040   1.781  13.122  0.0992 -0.0788 -0.5637
11059TIP3    H154668   2.982   1.719  13.167 -0.4052  0.0207 -1.0632
11059TIP3    H254669   2.988   1.861  13.114 -0.0822 -0.3121 -1.9392
11060TIP3   OH254670   3.846   5.196  11.382  0.0653  0.2703  0.2363
11060TIP3    H154671   3.783   5.175  11.452  0.2984 -0.7507  0.1461
11060TIP3    H254672   3.802   5.168  11.302  0.4985 -0.1402  0.1426
11061TIP3   OH254673   6.806   4.339  13.631 -0.2360 -0.1752 -0.2521
11061TIP3    H154674   6.833   4.428  13.610 -2.1831  0.9499  1.6302
11061TIP3    H254675   6.867   4.309  13.697  0.4887 -0.3104 -0.9682
11062TIP3   OH254676   1.546   5.797   6.699  0.1851  0.0052 -0.0592
11062TIP3    H154677   1.461   5.800   6.742 -0.9763 -0.8603 -2.1537
11062TIP3    H254678   1.527   5.765   6.611  2.9547 -2.7141  0.1467
11063TIP3   OH254679   4.505   6.308  12.843  0.4596 -0.3973 -0.8888
11063TIP3    H154680   4.593   6.299  12.878  1.2291 -0.8349 -2.8203
11063TIP3    H254681   4.447   6.290  12.918  1.9822  0.0364  0.4376
11064TIP3   OH254682   6.660   2.384  17.238 -0.5498  0.1301  0.2264
11064TIP3    H154683   6.708   2.336  17.305  0.0774 -0.5863 -0.7051
11064TIP3    H254684   6.600   2.440  17.287 -1.1074 -1.3832  1.3801
11065TIP3   OH254685   1.836   5.379   5.076 -0.3873 -0.5235 -0.3095
11065TIP3    H154686   1.865   5.312   5.013 -0.0829 -0.9478  0.2709
11065TIP3    H254687   1.817   5.330   5.156  0.4569  0.1599  0.3299
11066TIP3   OH254688   2.734   5.295  13.517 -0.1852 -0.1505  0.0856
11066TIP3    H154689   2.734   5.216  13.463  1.4195 -1.3721  1.7614
11066TIP3    H254690   2.645   5.298  13.553  0.1194 -2.0806  1.1544
11067TIP3   OH254691   3.555   2.127   1.462 -0.0809  0.0545  0.4447
11067TIP3    H154692   3.558   2.193   1.393 -1.1518  0.1916  0.5123
11067TIP3    H254693   3.647   2.112   1.486  0.1915  1.2683  0.1920
11068TIP3   OH254694   1.697   6.329  16.043  0.0698 -0.4544  0.1917
11068TIP3    H154695   1.718   6.292  16.128 -0.4797 -1.1863  0.0171
11068TIP3    H254696   1.777   6.319  15.992  0.9996  1.6009  1.1332
11069TIP3   OH254697   6.317   4.867   4.854 -0.2028 -0.4432  0.0092
11069TIP3    H154698   6.242   4.849   4.798 -0.0918  1.0958 -0.6872
11069TIP3    H254699   6.279   4.899   4.936 -0.3301  0.9862 -0.5818
11070TIP3   OH254700   1.739   3.207  16.082 -0.3323 -0.5482 -0.3611
11070TIP3    H154701   1.782   3.180  16.163 -0.8624 -0.8878 -0.1930
11070TIP3    H254702   1.646   3.191  16.097 -0.3445 -1.4845 -1.3802
11071TIP3   OH254703   3.083   3.773   2.597  0.5093 -0.0559 -0.1978
11071TIP3    H154704   3.164   3.805   2.635  0.3871  0.1025 -0.0694
11071TIP3    H254705   3.023   3.764   2.671  0.2504  0.3110 -0.3577
11072TIP3   OH254706   1.945   6.198  12.981 -0.4397  0.4292 -0.3422
11072TIP3    H154707   1.897   6.259  12.925 -1.0972 -0.0923 -0.3735
11072TIP3    H254708   1.996   6.145  12.919 -1.6352 -0.5521 -0.5353
11073TIP3   OH254709   2.020   0.410  14.045  0.1306 -0.1762  0.3494
11073TIP3    H154710   1.997   0.364  14.126 -0.2414  2.5667  1.9363
11073TIP3    H254711   1.989   0.500  14.059  3.4888  1.4109 -1.2499
11074TIP3   OH254712   5.592   0.603  11.487  0.5142 -0.0354 -0.2426
11074TIP3    H154713   5.528   0.630  11.420 -0.1347 -0.0052  0.3736
11074TIP3    H254714   5.538   0.585  11.564  1.3774  1.2924  0.7078
11075TIP3   OH254715   1.924   4.623   5.176 -0.2726 -0.1574 -0.1121
11075TIP3    H154716   1.955   4.540   5.139  2.4084  1.7124 -2.4505
11075TIP3    H254717   1.839   4.637   5.135 -0.8849 -1.7875  0.5057
11076TIP3   OH254718   3.686   3.338  15.999  0.3940 -0.2159 -0.1091
11076TIP3    H154719   3.612   3.295  15.956  0.3465  0.6555 -0.9442
11076TIP3    H254720   3.681   3.309  16.090 -0.0926 -1.3313 -0.4708
11077TIP3   OH254721   5.096   5.225   2.547 -0.4192 -0.8602 -0.0709
11077TIP3    H154722   5.116   5.270   2.465  0.5025 -0.5196  0.3297
11077TIP3    H254723   5.179   5.224   2.595 -1.1417 -0.2360  1.2545
11078TIP3   OH254724   6.683   2.862   2.206  0.0126  0.1944 -0.5278
11078TIP3    H154725   6.677   2.957   2.221  0.6462  0.2418 -0.5646
11078TIP3    H254726   6.609   2.826   2.255 -0.9595  0.8077 -1.5062
11079TIP3   OH254727   3.060   2.272  12.201 -0.1053  0.1840  0.4849
11079TIP3    H154728   3.142   2.274  12.250 -0.7037  1.6607  1.4992
11079TIP3    H254729   3.082   2.311  12.116  0.7444 -1.6119 -0.1614
11080TIP3   OH254730   0.632   6.681   1.404 -0.4182  0.2192  0.0317
11080TIP3    H154731   0.697   6.638   1.348 -1.5117  0.8598 -1.8109
11080TIP3    H254732   0.680   6.701   1.485  1.3160 -0.4494 -0.7797
11081TIP3   OH254733   1.716   4.686   1.686  0.2782 -0.1216  0.0821
11081TIP3    H154734   1.805   4.708   1.657 -0.6861  1.7441 -1.6968
11081TIP3    H254735   1.681   4.768   1.720 -0.8216 -0.8144  0.6774
11082TIP3   OH254736   2.340   5.342  16.948  0.2985  0.3641  0.5307
11082TIP3    H154737   2.425   5.299  16.955 -0.5764 -1.4929  0.3619
11082TIP3    H254738   2.297   5.300  16.874 -0.3123  2.1562 -0.2084
11083TIP3   OH254739   4.287   6.683  12.025  0.2862  0.4536 -0.0502
11083TIP3    H154740   4.237   6.738  11.965 -1.4091  0.5927  1.3922
11083TIP3    H254741   4.268   6.594  11.997 -1.4651  0.4773  0.9338
11084TIP3   OH254742   5.991   6.583  14.522  0.1163 -0.1295  0.3637
11084TIP3    H154743   5.994   6.644  14.595  0.6107  1.2382 -0.7610
11084TIP3    H254744   5.905   6.596  14.483  0.5172  0.4444 -0.3536
11085TIP3   OH254745   3.034   6.475  13.640  0.3348  0.1331 -0.3738
11085TIP3    H154746   3.009   6.501  13.552 -0.0369  1.5359  0.1210
11085TIP3    H254747   2.996   6.542  13.697 -1.9209 -2.2429  1.1517
11086TIP3   OH254748   4.049   5.709  12.885 -0.0352 -0.1186  0.1982
11086TIP3    H154749   4.058   5.625  12.932  0.0951  0.6291  1.5742
11086TIP3    H254750   4.111   5.767  12.930  1.8419  0.0427 -2.4096
11087TIP3   OH254751   0.405   0.811   3.655  0.4616  0.1169 -0.1753
11087TIP3    H154752   0.401   0.906   3.663  2.2946  0.1467  1.0261
11087TIP3    H254753   0.389   0.779   3.744 -1.1185 -0.7881 -0.7370
11088TIP3   OH254754   3.559   5.836   1.823  0.5421  0.6611 -1.0188
11088TIP3    H154755   3.555   5.801   1.734 -0.8582  0.7833 -1.0386
11088TIP3    H254756   3.652   5.848   1.841  1.1248 -2.6879 -1.1543
11089TIP3   OH254757   4.061   0.231   3.226 -0.1162  0.1240  0.8354
11089TIP3    H154758   4.015   0.182   3.157  1.6324 -1.8218  0.9795
11089TIP3    H254759   4.055   0.323   3.198  2.2088 -0.7074 -3.0337
11090TIP3   OH254760   5.530   4.264  10.596  0.1273  0.0721  0.2828
11090TIP3    H154761   5.571   4.213  10.667 -1.6180  0.6825  1.7995
11090TIP3    H254762   5.448   4.219  10.579 -0.7714  1.5286  0.6267
11091TIP3   OH254763   1.420   0.140  13.988  0.5527  0.3796 -0.2482
11091TIP3    H154764   1.361   0.215  13.983  0.7087  0.4353 -1.6419
11091TIP3    H254765   1.363   0.067  14.014  0.3724  0.9156  0.9387
11092TIP3   OH254766   6.333   4.230  11.495  0.8684  0.0505  0.6516
11092TIP3    H154767   6.294   4.269  11.416  0.6757  0.9446  1.1726
11092TIP3    H254768   6.268   4.245  11.564  0.8825 -1.0270  0.9242
11093TIP3   OH254769   6.717   5.733  17.161  0.0501 -0.6865  0.0984
11093TIP3    H154770   6.708   5.661  17.224 -0.1968 -0.5202  0.2530
11093TIP3    H254771   6.749   5.806  17.213 -0.0916 -0.5676  0.0167
11094TIP3   OH254772   3.040   4.091  14.591 -0.2186 -0.2499  0.4436
11094TIP3    H154773   2.984   4.044  14.652 -0.4334 -1.0307 -0.3420
11094TIP3    H254774   3.097   4.024  14.553  1.0812  0.4864  1.0170
11095TIP3   OH254775   5.634   5.170   3.386 -0.0946 -0.6092  0.0969
11095TIP3    H154776   5.624   5.260   3.417 -0.9248  0.1801 -2.2299
11095TIP3    H254777   5.722   5.145   3.413 -0.1711  0.5446  1.5675
11096TIP3   OH254778   2.743   2.503   5.828 -0.2929  0.3003  0.1592
11096TIP3    H154779   2.810   2.447   5.787  0.4012  1.3425 -0.1857
11096TIP3    H254780   2.689   2.532   5.755 -1.0733 -0.4424  0.4245
11097TIP3   OH254781   2.681   3.029   4.607 -0.9666  0.2820 -0.5123
11097TIP3    H154782   2.598   3.068   4.581 -1.4394 -0.6373 -0.4481
11097TIP3    H254783   2.711   2.982   4.530 -0.7826  0.1643 -0.3700
11098TIP3   OH254784   5.670   5.949  11.438  0.4242 -0.2398 -0.7923
11098TIP3    H154785   5.675   5.967  11.532 -1.2192 -1.3679 -0.4409
11098TIP3    H254786   5.641   6.031  11.399 -0.3820 -0.1898 -0.1035
11099TIP3   OH254787   1.588   2.939   3.682 -0.0860 -0.2320 -0.2759
11099TIP3    H154788   1.635   2.887   3.617 -0.2120 -0.3447 -0.2772
11099TIP3    H254789   1.557   3.015   3.634  0.7154  0.2134 -0.1184
11100TIP3   OH254790   1.756   0.524   5.920  0.0295  0.3374 -0.2003
11100TIP3    H154791   1.771   0.430   5.918  0.3636  0.4013 -1.1462
11100TIP3    H254792   1.756   0.546   6.013  1.5270 -0.3397 -0.0076
11101TIP3   OH254793   4.406   2.816  13.358 -0.1177  0.0492  0.2117
11101TIP3    H154794   4.439   2.886  13.414 -2.7055 -0.5797  2.7580
11101TIP3    H254795   4.425   2.736  13.407  0.5535 -0.8913 -1.4846
11102TIP3   OH254796   1.026   0.439   1.772 -0.3112 -0.3412 -0.3286
11102TIP3    H154797   1.113   0.410   1.746  0.0259 -0.1223  0.5165
11102TIP3    H254798   0.971   0.361   1.765  0.2559 -0.8209  0.4692
11103TIP3   OH254799   6.407   6.157  12.086 -0.0897  0.3055 -0.5227
11103TIP3    H154800   6.394   6.092  12.017 -2.1525  3.5417 -3.4320
11103TIP3    H254801   6.490   6.199  12.064  0.2625  0.0435  0.2378
11104TIP3   OH254802   3.423   4.005   2.346  0.3166  0.2296  0.1290
11104TIP3    H154803   3.472   4.066   2.291  1.4817 -0.0022  0.8930
11104TIP3    H254804   3.484   3.934   2.364 -0.9084 -1.0276 -0.4615
11105TIP3   OH254805   3.576   0.050   1.089  0.1315 -0.1485  0.1799
11105TIP3    H154806   3.590   0.057   1.183  0.6476  0.4084  0.0691
11105TIP3    H254807   3.652   0.093   1.050  1.1037 -2.3576 -0.5325
11106TIP3   OH254808   2.493   0.646  12.069  0.1474  0.2501  0.2716
11106TIP3    H154809   2.506   0.740  12.054  1.4382  0.0721  0.1257
11106TIP3    H254810   2.577   0.616  12.103 -0.0226 -0.9786 -0.3446
11107TIP3   OH254811   0.317   2.629   4.099 -0.3244  0.2616  0.3015
11107TIP3    H154812   0.323   2.720   4.127  2.0451 -0.3344  2.0134
11107TIP3    H254813   0.381   2.583   4.153 -1.2979 -2.4027 -0.6694
11108TIP3   OH254814   5.486   3.465  13.490  0.1753 -0.8493 -0.2633
11108TIP3    H154815   5.430   3.404  13.443  0.9812 -1.0339 -1.0145
11108TIP3    H254816   5.574   3.444  13.461  0.4807  0.6125 -0.4890
11109TIP3   OH254817   0.856   4.538   5.847 -0.7345  1.0913 -0.4045
11109TIP3    H154818   0.910   4.579   5.780 -1.0191  1.7343 -0.2414
11109TIP3    H254819   0.882   4.582   5.928  1.5656 -1.4581  0.4160
11110TIP3   OH254820   3.856   6.478  13.066 -0.3278 -0.1667 -0.1296
11110TIP3    H154821   3.831   6.560  13.023 -1.6603 -0.6586 -0.3413
11110TIP3    H254822   3.795   6.470  13.139  0.2269 -0.6554  0.2916
11111TIP3   OH254823   4.741   6.736  14.866 -0.2968 -0.8500 -0.2637
11111TIP3    H154824   4.691   6.795  14.922 -1.0011 -0.7484 -0.9880
11111TIP3    H254825   4.829   6.735  14.905 -1.1352 -1.9706  1.7440
11112TIP3   OH254826   3.395   3.863  14.779  0.6455 -0.0602 -0.1290
11112TIP3    H154827   3.428   3.786  14.825  2.4288  0.9314  0.3556
11112TIP3    H254828   3.417   3.936  14.836 -1.5408  0.8098 -0.3078
11113TIP3   OH254829   4.905   5.316  15.645  0.2266 -0.4810  0.5520
11113TIP3    H154830   4.905   5.360  15.730 -0.0272  0.2624  0.1726
11113TIP3    H254831   4.855   5.373  15.588  1.8020 -0.1149 -0.5387
11114TIP3   OH254832   3.419   1.308  14.480 -0.3514  0.1720 -0.7070
11114TIP3    H154833   3.486   1.355  14.431 -0.9286  0.4215 -1.2821
11114TIP3    H254834   3.464   1.230  14.514 -0.0018 -0.1895 -1.9390
11115TIP3   OH254835   2.608   5.247  16.934  0.0399  0.2020  0.1919
11115TIP3    H154836   2.650   5.164  16.953 -0.8730 -0.9314 -2.3209
11115TIP3    H254837   2.668   5.313  16.968  2.1913 -1.4114 -0.3008
11116TIP3   OH254838   5.891   1.849   5.050 -0.0153  0.4344  0.6008
11116TIP3    H154839   5.873   1.764   5.009  0.2240  0.6398  0.0532
11116TIP3    H254840   5.970   1.833   5.102 -0.0084  0.3001  0.5508
11117TIP3   OH254841   5.997   1.060   0.072 -0.6513  0.2753  0.5672
11117TIP3    H154842   6.049   0.981   0.065 -0.4334  0.4391  0.2891
11117TIP3    H254843   6.017   1.095   0.159  1.5311  1.5843 -0.3831
11118TIP3   OH254844   3.878   3.338  11.832  0.3772  0.4310 -0.3759
11118TIP3    H154845   3.904   3.352  11.923 -0.3677 -1.6472  0.1973
11118TIP3    H254846   3.793   3.381  11.824 -0.2250 -0.5769  0.3457
11119TIP3   OH254847   2.670   3.430  11.022 -0.1812 -0.0303 -0.1509
11119TIP3    H154848   2.611   3.379  10.966 -1.1888  0.7576  0.1811
11119TIP3    H254849   2.740   3.459  10.962 -0.5247 -0.3317 -0.7075
11120TIP3   OH254850   5.045   5.080  13.138 -0.6033  0.0614  0.2812
11120TIP3    H154851   5.090   5.161  13.162 -1.0179 -0.0540  1.5180
11120TIP3    H254852   5.085   5.013  13.193 -1.0097 -0.3849  0.0422
11121TIP3   OH254853   5.556   3.937  13.596  0.0886  0.2038 -0.4915
11121TIP3    H154854   5.545   3.888  13.678  1.7286  1.1098  0.3168
11121TIP3    H254855   5.566   3.870  13.529 -0.1526 -0.5635  0.2261
11122TIP3   OH254856   5.841   0.108  14.071  0.0888  0.1969 -0.0817
11122TIP3    H154857   5.759   0.122  14.023  0.9342  3.2044 -0.8847
11122TIP3    H254858   5.904   0.082  14.004  0.2959  0.1008  0.1477
11123TIP3   OH254859   2.047   1.296  13.080 -0.5791  0.8327 -0.0275
11123TIP3    H154860   2.002   1.353  13.143 -0.2773  0.1249  0.8618
11123TIP3    H254861   2.132   1.338  13.067 -0.0097  0.1572  1.3166
11124TIP3   OH254862   0.082   1.418   0.410  0.1080 -0.1690 -0.1355
11124TIP3    H154863   0.108   1.384   0.325 -0.0590  1.1465 -0.7346
11124TIP3    H254864  -0.012   1.400   0.415 -0.5306  2.2561 -1.5281
11125TIP3   OH254865   4.043   5.216   0.830 -0.4501 -0.2579  0.4798
11125TIP3    H154866   3.999   5.146   0.879 -0.4762  0.2580  1.2094
11125TIP3    H254867   4.039   5.292   0.889  0.3476  0.1212  0.0499
11126TIP3   OH254868   4.700   1.619   5.078 -0.4844 -0.3633  0.3505
11126TIP3    H154869   4.757   1.690   5.109  0.2286 -0.4687 -0.6998
11126TIP3    H254870   4.756   1.565   5.024 -1.6737 -0.2628 -1.0267
11127TIP3   OH254871   3.380   3.948  12.905 -0.0656  0.4358  0.3504
11127TIP3    H154872   3.378   4.044  12.900 -0.9808  0.4426  0.7222
11127TIP3    H254873   3.433   3.929  12.983 -1.2117  0.6836  1.2180
11128TIP3   OH254874   2.053   0.328  13.780 -0.2398 -0.3312 -0.1170
11128TIP3    H154875   1.975   0.337  13.834  0.2474 -3.0719  1.2508
11128TIP3    H254876   2.113   0.395  13.813 -1.3241  0.5298  0.1384
11129TIP3   OH254877   3.433   4.902  15.207 -0.8327  0.5572  0.0109
11129TIP3    H154878   3.463   4.814  15.227 -1.5778  0.4999  1.0065
11129TIP3    H254879   3.433   4.908  15.112  1.9782  0.4829 -0.0701
11130TIP3   OH254880   0.429   5.012  16.439  0.3202 -0.4740 -0.3269
11130TIP3    H154881   0.449   5.095  16.483 -0.1712 -0.4559 -0.1239
11130TIP3    H254882   0.388   5.038  16.356 -1.4219 -0.4899  0.4822
11131TIP3   OH254883   5.061   4.300   0.926  0.9223  0.0662  0.5211
11131TIP3    H154884   5.094   4.299   1.016  0.6301  0.5138  0.6362
11131TIP3    H254885   5.080   4.212   0.893  0.0915 -0.4484  1.3635
11132TIP3   OH254886   5.453   1.729  11.069 -0.0736  0.8246  0.2525
11132TIP3    H154887   5.457   1.741  10.974 -0.6978 -1.3595 -0.1090
11132TIP3    H254888   5.366   1.763  11.093 -0.1671  0.8109 -0.0579
11133TIP3   OH254889   1.573   6.491  14.801  0.1963 -0.0386  0.6871
11133TIP3    H154890   1.478   6.504  14.806  0.2110  0.4596 -0.3029
11133TIP3    H254891   1.608   6.574  14.770  0.6734 -1.0625 -1.7087
11134TIP3   OH254892   6.809   1.278  11.671  0.5569 -0.5398  0.3517
11134TIP3    H154893   6.901   1.300  11.659  0.4271  1.1912  2.0016
11134TIP3    H254894   6.771   1.356  11.713 -0.9303 -2.3867  2.7230
11135TIP3   OH254895   6.256   6.696  14.771  0.1807  0.6112 -0.2071
11135TIP3    H154896   6.267   6.601  14.769 -0.6474  0.4488  1.3853
11135TIP3    H254897   6.299   6.724  14.852 -0.5481  1.4357 -0.0789
11136TIP3   OH254898   4.110   5.221  14.218 -0.4184 -0.5407  0.2899
11136TIP3    H154899   4.049   5.295  14.230  0.9623  0.8682 -0.9621
11136TIP3    H254900   4.175   5.233  14.287  0.5487  0.2510 -0.7145
11137TIP3   OH254901   0.251   1.601  15.934 -0.4193 -0.4262 -0.1464
11137TIP3    H154902   0.314   1.535  15.963 -0.7335 -0.8804 -0.4902
11137TIP3    H254903   0.278   1.624  15.845 -0.1496  0.1126  0.0702
11138TIP3   OH254904   5.275   1.932  16.109 -0.3047 -0.1196  0.2616
11138TIP3    H154905   5.193   1.969  16.078 -0.9287 -0.0174  1.9398
11138TIP3    H254906   5.330   2.009  16.128  0.6364 -0.1855 -1.8544
11139TIP3   OH254907   6.804   3.192  11.966 -0.1900 -0.4596  0.3383
11139TIP3    H154908   6.810   3.172  12.060  2.0744  1.8620  0.8265
11139TIP3    H254909   6.795   3.287  11.963 -0.6641 -0.5356 -1.8302
11140TIP3   OH254910   4.826   2.754   1.661  0.8262  0.0919  0.0778
11140TIP3    H154911   4.855   2.845   1.659  0.7126  0.1320  0.2600
11140TIP3    H254912   4.801   2.738   1.752  0.0900  0.1195 -0.1116
11141TIP3   OH254913   5.836   2.028  10.823 -0.1171  0.6226 -0.7516
11141TIP3    H154914   5.762   2.023  10.884  0.9899 -0.6028  0.5744
11141TIP3    H254915   5.808   1.976  10.748 -2.2875  3.7337 -2.3092
11142TIP3   OH254916   6.686   5.350   1.059  0.3570  0.1972 -0.3172
11142TIP3    H154917   6.729   5.270   1.089 -0.6911 -0.4930 -0.6226
11142TIP3    H254918   6.675   5.403   1.138 -1.3475 -1.1104  0.3879
11143TIP3   OH254919   3.625   6.227   3.180  0.1668 -0.1727  0.4647
11143TIP3    H154920   3.662   6.211   3.093  0.5371  2.1636  0.1429
11143TIP3    H254921   3.694   6.274   3.227 -0.6404  0.0256  1.4882
11144TIP3   OH254922   4.201   5.763   1.682  0.0033  0.7017 -0.1606
11144TIP3    H154923   4.172   5.756   1.773  0.3601  0.4748 -0.0631
11144TIP3    H254924   4.179   5.678   1.643  0.3427  0.6053 -0.1430
11145TIP3   OH254925   6.011   4.568  10.880 -0.1157  0.8043 -0.3518
11145TIP3    H154926   5.945   4.634  10.857  0.5652  1.8803  0.6771
11145TIP3    H254927   6.095   4.612  10.868  0.3516  0.1890  0.5402
11146TIP3   OH254928   0.899   4.373  16.108 -0.4490 -0.0086  0.7291
11146TIP3    H154929   0.930   4.283  16.121  2.6109  0.2035 -3.1390
11146TIP3    H254930   0.834   4.365  16.038  1.4610  0.8165 -1.2661
11147TIP3   OH254931   4.960   5.620  15.550 -0.2827 -0.1038  0.4463
11147TIP3    H154932   4.955   5.695  15.611 -1.1152 -0.5759  0.9786
11147TIP3    H254933   5.049   5.586  15.561 -0.0680  0.4886  0.5853
11148TIP3   OH254934   1.864   2.012   4.303 -0.3825  0.3240 -0.9910
11148TIP3    H154935   1.793   2.043   4.246 -0.4349 -0.3470 -1.3036
11148TIP3    H254936   1.854   1.916   4.304  0.8067  0.1812 -1.4214
11149TIP3   OH254937   6.443   5.593   1.543 -0.5137 -0.1093 -0.4379
11149TIP3    H154938   6.486   5.669   1.502 -0.7965  0.5959  0.5519
11149TIP3    H254939   6.350   5.612   1.538 -0.5631 -0.1274  0.3146
11150TIP3   OH254940   5.882   2.688  11.684  0.5676 -0.2875 -0.3615
11150TIP3    H154941   5.864   2.654  11.596  0.1127 -1.3614  0.1261
11150TIP3    H254942   5.857   2.780  11.680 -0.7462 -0.6475 -0.9890
11151TIP3   OH254943   3.513   1.204  11.260 -0.3582 -0.1134  0.2236
11151TIP3    H154944   3.514   1.230  11.353  0.3604 -0.3573  0.2900
11151TIP3    H254945   3.534   1.285  11.213 -0.5341 -0.0303  0.2880
11152TIP3   OH254946   5.323   1.680   5.658 -0.4851  0.1993 -0.2279
11152TIP3    H154947   5.374   1.754   5.692 -2.0203  1.1263  0.1398
11152TIP3    H254948   5.388   1.625   5.614  0.6780  1.8366 -0.6597
11153TIP3   OH254949   5.684   1.175  14.071 -0.6772 -0.3347 -0.3258
11153TIP3    H154950   5.646   1.258  14.044  0.1328 -0.1373 -0.9029
11153TIP3    H254951   5.629   1.108  14.030 -0.8064 -0.0695 -0.5840
11154TIP3   OH254952   0.004   4.034   1.588 -0.3320 -0.2308 -0.1422
11154TIP3    H154953   0.004   4.102   1.520 -2.0948  1.8845  1.8292
11154TIP3    H254954  -0.088   4.010   1.598 -0.0001 -1.1168  0.9178
11155TIP3   OH254955   4.072   1.605   5.205 -0.0273 -0.1126 -0.0118
11155TIP3    H154956   4.138   1.600   5.136  1.4031 -0.0813  1.3102
11155TIP3    H254957   3.991   1.578   5.162  1.0942 -1.5512 -1.3368
11156TIP3   OH254958   5.150   1.958  12.029 -0.5974 -0.1398  0.2760
11156TIP3    H154959   5.156   1.896  12.102  0.9515  0.1489  0.4197
11156TIP3    H254960   5.225   1.938  11.973 -2.6246 -1.4790 -2.2062
11157TIP3   OH254961   1.042   3.068   1.698 -0.7451 -0.9861  0.2403
11157TIP3    H154962   1.033   3.046   1.791  0.0482 -1.2723  0.2607
11157TIP3    H254963   1.039   2.983   1.653 -2.0901 -0.7806 -0.0952
11158TIP3   OH254964   1.189   0.232  11.492  0.5399  0.1446 -0.1152
11158TIP3    H154965   1.199   0.320  11.455 -2.9234  0.6217 -0.3069
11158TIP3    H254966   1.155   0.179  11.419  3.6196 -1.7795 -0.3302
11159TIP3   OH254967   2.286   3.199  16.815  0.5327 -0.5285 -0.0216
11159TIP3    H154968   2.238   3.175  16.894  0.1480  0.6952  0.1397
11159TIP3    H254969   2.265   3.292  16.801  1.9266 -0.2636 -0.6000
11160TIP3   OH254970   6.078   5.145   5.446  0.0468 -0.2816 -0.4382
11160TIP3    H154971   6.072   5.156   5.351  1.0672  0.8089 -0.4059
11160TIP3    H254972   6.156   5.091   5.459 -0.6458 -1.2576 -0.2474
11161TIP3   OH254973   4.296   0.479  16.678 -0.8833  0.7808  0.3725
11161TIP3    H154974   4.379   0.523  16.697 -0.5162  0.3987 -0.3187
11161TIP3    H254975   4.242   0.546  16.637 -0.2269  0.5424 -0.9379
11162TIP3   OH254976   5.005   0.583   3.917  0.3551  0.4180  0.0100
11162TIP3    H154977   5.035   0.514   3.857 -0.3940 -0.8583  1.0522
11162TIP3    H254978   5.012   0.544   4.004  0.3536  1.8398  0.6659
11163TIP3   OH254979   5.370   4.860   4.524 -0.2865  0.1713  0.2601
11163TIP3    H154980   5.355   4.926   4.456  0.7727 -0.4065 -0.5763
11163TIP3    H254981   5.450   4.889   4.567 -1.7831  1.3993  2.3893
11164TIP3   OH254982   0.815   1.821   0.899 -0.1653  0.1648 -0.4320
11164TIP3    H154983   0.803   1.801   0.806 -0.7316  0.0778 -0.3426
11164TIP3    H254984   0.782   1.910   0.909 -1.2452 -0.2639 -0.0823
11165TIP3   OH254985   1.216   6.158   2.467 -0.1288 -0.7109 -0.2040
11165TIP3    H154986   1.180   6.120   2.548  0.5666 -2.1061 -0.5249
11165TIP3    H254987   1.192   6.251   2.472 -1.1253 -1.0022  1.0344
11166TIP3   OH254988   2.911   3.107   5.859 -0.3119 -0.2331  0.2096
11166TIP3    H154989   2.933   3.048   5.787 -1.6000 -0.5834  0.0699
11166TIP3    H254990   2.816   3.098   5.869  0.0060 -1.5761  3.1718
11167TIP3   OH254991   3.537   3.916  15.795  0.2484 -0.4069  0.3736
11167TIP3    H154992   3.520   3.930  15.702 -1.2792 -2.6481  0.2328
11167TIP3    H254993   3.481   3.979  15.840 -0.4011 -0.5433 -0.2277
11168TIP3   OH254994   5.585   1.735  15.811 -0.0972 -0.4153 -0.3381
11168TIP3    H154995   5.651   1.710  15.746 -0.4799 -1.8315 -0.2187
11168TIP3    H254996   5.579   1.830  15.803  2.8115 -0.0741  0.4929
11169TIP3   OH254997   1.620   1.725  12.024 -0.2531 -0.2733 -0.2828
11169TIP3    H154998   1.675   1.647  12.027 -0.2102 -0.2142  0.6741
11169TIP3    H254999   1.579   1.729  12.110 -2.8140 -1.0468 -1.3794
11170TIP3   OH255000   1.912   1.029  16.310  0.2078  0.7210  0.4599
11170TIP3    H155001   1.850   0.968  16.349  1.6864  0.3118  2.3263
11170TIP3    H255002   1.935   0.990  16.226  1.1967 -1.4197  1.6487
11171TIP3   OH255003   0.265   3.587  11.469  0.3272 -0.2069  0.2154
11171TIP3    H155004   0.180   3.548  11.449  1.6636 -2.2144 -2.0493
11171TIP3    H255005   0.284   3.643  11.394  2.4683 -2.5298 -1.1198
11172TIP3   OH255006   1.213   0.281  17.147 -0.0312  0.4718 -1.0684
11172TIP3    H155007   1.174   0.301  17.062 -0.5673 -2.3636 -1.5896
11172TIP3    H255008   1.241   0.190  17.140  0.8694  0.4714  1.4627
11173TIP3   OH255009   0.945   0.889  16.542  0.0112 -0.5575 -0.0745
11173TIP3    H155010   0.933   0.802  16.504  0.8577 -0.8854  0.3706
11173TIP3    H255011   0.964   0.945  16.466  0.2300 -0.9143 -0.2876
11174TIP3   OH255012   6.086   6.027   5.381  0.2911  0.3180 -0.3036
11174TIP3    H155013   6.049   5.977   5.453 -1.3570  0.5186 -0.9699
11174TIP3    H255014   6.102   5.961   5.312 -0.6372  0.5091 -0.7053
11175TIP3   OH255015   5.736   0.544   5.217  0.4833 -0.0907  0.2287
11175TIP3    H155016   5.697   0.630   5.234 -0.7588 -0.4798 -0.5669
11175TIP3    H255017   5.814   0.562   5.165  0.3230  0.5723  0.2176
11176TIP3   OH255018   4.785   3.787   3.296 -0.0890 -0.2218  0.3905
11176TIP3    H155019   4.855   3.750   3.241 -0.7726  0.1024 -0.7132
11176TIP3    H255020   4.757   3.713   3.351 -0.7294 -1.1024 -1.0678
11177TIP3   OH255021   5.976   1.644  16.664 -0.2804 -0.1852 -0.4830
11177TIP3    H155022   5.951   1.589  16.590 -0.2610  1.2302 -1.5864
11177TIP3    H255023   6.024   1.717  16.625 -0.8154  0.9405  0.8609
11178TIP3   OH255024   3.853   2.096   0.718 -0.1453 -0.0780 -0.5186
11178TIP3    H155025   3.796   2.063   0.648 -1.3185  0.2564  0.2430
11178TIP3    H255026   3.885   2.180   0.685  0.1265 -0.3954 -1.0677
11179TIP3   OH255027   5.897   1.121  13.571 -0.3135  0.6288  0.3082
11179TIP3    H155028   5.802   1.124  13.560 -0.1126  0.9042 -1.5765
11179TIP3    H255029   5.932   1.120  13.482  1.4937  1.5279  0.9647
11180TIP3   OH255030   5.445   4.931   2.159  0.0501  0.4342  0.1192
11180TIP3    H155031   5.456   4.841   2.190 -0.7009  0.4341  0.4105
11180TIP3    H255032   5.476   4.929   2.068  1.0189  0.1270  0.4359
11181TIP3   OH255033   0.387   4.067   4.976 -0.2187 -0.2138 -0.0766
11181TIP3    H155034   0.407   4.038   5.065 -0.5439 -0.1254  0.0234
11181TIP3    H255035   0.438   4.147   4.966 -0.1818 -0.2232  0.0278
11182TIP3   OH255036   2.237   4.466  16.725 -0.4588  0.1805  0.5349
11182TIP3    H155037   2.238   4.528  16.798  0.0985 -1.2598  1.8041
11182TIP3    H255038   2.317   4.485  16.676  0.5111 -0.4953  1.7945
11183TIP3   OH255039   4.762   2.331  14.511 -0.0846  0.1462 -0.3142
11183TIP3    H155040   4.717   2.278  14.576 -0.8290  0.6314 -0.4247
11183TIP3    H255041   4.855   2.313  14.527 -0.0668  2.0543  2.5073
11184TIP3   OH255042   1.582   0.151   4.950  0.2131  0.0594 -0.2600
11184TIP3    H155043   1.650   0.112   4.895  0.1388 -1.4707  0.6630
11184TIP3    H255044   1.532   0.076   4.983 -1.3382  1.0924 -0.1501
11185TIP3   OH255045   4.983   0.793   0.482  0.4344  0.0313 -0.0046
11185TIP3    H155046   4.978   0.715   0.537  1.0464 -1.0500 -1.3952
11185TIP3    H255047   4.912   0.849   0.512  0.2420 -0.8801  1.3048
11186TIP3   OH255048   4.074   5.787  13.368 -0.1457 -0.0056 -0.6147
11186TIP3    H155049   4.142   5.854  13.358  0.0792 -0.0822  0.3889
11186TIP3    H255050   3.995   5.836  13.390  0.5520 -0.1775  2.7013
11187TIP3   OH255051   3.412   4.629  17.035  0.1386  0.5059 -0.0087
11187TIP3    H155052   3.320   4.601  17.039  0.1810 -0.2360 -2.5124
11187TIP3    H255053   3.462   4.548  17.044  0.5150  0.7487  0.1047
11188TIP3   OH255054   6.110   1.526  14.144 -0.0586  0.1415 -0.4557
11188TIP3    H155055   6.066   1.516  14.228  0.3931 -0.4019 -0.2722
11188TIP3    H255056   6.196   1.561  14.167 -0.2019  0.7105 -0.7638
11189TIP3   OH255057   1.537   5.034  15.225 -0.3236 -0.7789 -0.4274
11189TIP3    H155058   1.620   5.023  15.179 -0.3447  0.2597 -0.7355
11189TIP3    H255059   1.500   5.115  15.190 -0.8726 -0.5516  0.6182
11190TIP3   OH255060   1.590   0.517  11.094 -0.7243  0.7097  0.1521
11190TIP3    H155061   1.641   0.488  11.018 -1.2022 -0.9760  0.4266
11190TIP3    H255062   1.529   0.582  11.059 -0.5405  0.3917 -0.7955
11191TIP3   OH255063   2.751   4.694  15.624  0.5205  0.1822  0.0656
11191TIP3    H155064   2.803   4.630  15.674 -0.0574 -1.0773 -0.9063
11191TIP3    H255065   2.762   4.668  15.533 -0.7480  0.7058 -0.2576
11192TIP3   OH255066   3.078   4.622   3.319  0.1172 -0.2059  0.6013
11192TIP3    H155067   3.165   4.614   3.359  0.1385 -0.5005  0.5027
11192TIP3    H255068   3.038   4.697   3.362  0.5439  0.1261  0.4232
11193TIP3   OH255069   5.024   0.559   2.538 -1.2563 -0.0019  0.4468
11193TIP3    H155070   5.024   0.655   2.540 -1.7727  0.0632 -1.4426
11193TIP3    H255071   4.934   0.535   2.519 -0.8739 -0.8073 -0.4327
11194TIP3   OH255072   4.661   1.337   1.567  0.4562 -0.1621  0.0615
11194TIP3    H155073   4.667   1.362   1.475 -0.0398  0.4001  0.1756
11194TIP3    H255074   4.684   1.244   1.568  0.6050 -0.1390 -0.6059
11195TIP3   OH255075   1.178   4.922  14.003  0.4877 -0.4759  0.6152
11195TIP3    H155076   1.179   5.016  14.023 -3.2580 -0.3524  0.8215
11195TIP3    H255077   1.147   4.880  14.083 -2.2565 -1.3262 -0.7843
11196TIP3   OH255078   1.742   5.227   2.088  0.6748 -0.6343  0.6363
11196TIP3    H155079   1.828   5.259   2.060  1.1247 -1.1559  1.3649
11196TIP3    H255080   1.703   5.301   2.135 -0.0618  0.2215 -1.2338
11197TIP3   OH255081   3.877   4.061   6.482 -0.0099  0.0561  0.2281
11197TIP3    H155082   3.844   4.046   6.571 -0.8831  1.6258  0.1997
11197TIP3    H255083   3.920   4.146   6.487  0.4810 -0.1184 -0.7349
11198TIP3   OH255084   3.980   3.493  12.140 -0.3129  0.4003 -0.3109
11198TIP3    H155085   3.925   3.546  12.198  0.2704 -0.8365  1.4653
11198TIP3    H255086   3.965   3.403  12.168  0.0834 -0.2496 -2.0546
11199TIP3   OH255087   4.402   1.691   3.804  0.1859 -0.5322  0.1402
11199TIP3    H155088   4.345   1.763   3.779  1.3549  1.0323  1.7485
11199TIP3    H255089   4.461   1.680   3.730 -1.4966 -1.4843 -1.1054
11200TIP3   OH255090   0.507   6.002   3.582  0.2662 -0.0297 -0.4173
11200TIP3    H155091   0.427   5.961   3.615  0.2794  1.4342  1.6308
11200TIP3    H255092   0.574   5.935   3.591 -0.5673 -1.0477 -1.5006
11201TIP3   OH255093   6.659   4.419  16.753  0.1588  0.1745  0.0992
11201TIP3    H155094   6.702   4.501  16.732  1.6504 -0.6620 -0.2403
11201TIP3    H255095   6.593   4.442  16.818  1.5141  1.4108  1.0881
11202TIP3   OH255096   3.769   6.320   0.172 -0.3594 -0.0663 -0.0528
11202TIP3    H155097   3.695   6.326   0.232 -1.8296  0.3258 -1.8371
11202TIP3    H255098   3.798   6.229   0.180 -0.8045 -0.1416  0.9011
11203TIP3   OH255099   0.513   0.590   4.724 -0.0110 -0.6079 -0.2104
11203TIP3    H155100   0.506   0.517   4.785 -1.4854 -0.2039  0.1518
11203TIP3    H255101   0.425   0.599   4.687 -0.5697  2.4521  1.5339
11204TIP3   OH255102   0.588   4.057   6.336 -0.3662 -0.2674 -0.2885
11204TIP3    H155103   0.654   4.034   6.271  2.3473  1.7803  1.5152
11204TIP3    H255104   0.539   4.129   6.295  1.2265  0.9097 -0.2364
11205TIP3   OH255105   2.235   3.284   4.804  0.3811 -0.4509 -0.5298
11205TIP3    H155106   2.169   3.334   4.757  0.2354 -0.7979 -0.7017
11205TIP3    H255107   2.271   3.345   4.868 -0.9994 -0.5964  0.4310
11206TIP3   OH255108   4.125   0.313   5.788  0.4675 -0.1238 -0.1006
11206TIP3    H155109   4.118   0.365   5.868  0.2586 -2.7786  1.7396
11206TIP3    H255110   4.042   0.329   5.742  0.4458  1.1785  0.3520
11207TIP3   OH255111   4.679   4.128  11.451  0.2178 -0.2144 -0.8659
11207TIP3    H155112   4.589   4.120  11.419 -0.2816 -1.0250  0.6254
11207TIP3    H255113   4.696   4.045  11.495  0.8794  0.7585  0.8298
11208TIP3   OH255114   0.434   3.673   2.886  0.1784 -0.0305 -0.4938
11208TIP3    H155115   0.524   3.650   2.862 -0.0368 -1.5876  0.0518
11208TIP3    H255116   0.440   3.763   2.918  1.8300 -0.5575  0.8664
11209TIP3   OH255117   1.226   1.565   3.852  0.5530  0.7473 -0.0815
11209TIP3    H155118   1.168   1.594   3.781 -0.6826 -1.0654  0.1066
11209TIP3    H255119   1.309   1.545   3.809 -0.7737 -2.3653 -1.5370
11210TIP3   OH255120   2.396   5.488  12.879  0.5102 -0.0790  0.0364
11210TIP3    H155121   2.325   5.447  12.830  0.6767 -1.5878  0.9861
11210TIP3    H255122   2.371   5.580  12.887 -1.2189 -0.5273  0.1277
11211TIP3   OH255123   1.480   4.711   2.082  0.0148  0.1187 -0.6079
11211TIP3    H155124   1.501   4.794   2.126 -1.1712  0.1369 -0.0387
11211TIP3    H255125   1.561   4.660   2.088 -0.3761 -0.3757  2.7460
11212TIP3   OH255126   6.266   4.299  15.562 -0.8616  0.0722 -0.5940
11212TIP3    H155127   6.211   4.347  15.623 -0.5819  1.3444 -1.2949
11212TIP3    H255128   6.352   4.340  15.570  0.1526 -2.1642  0.8053
11213TIP3   OH255129   6.807   2.785  13.127  0.1203  0.2689  0.6836
11213TIP3    H155130   6.803   2.722  13.054 -0.9683  0.0080  0.9580
11213TIP3    H255131   6.808   2.730  13.205 -0.7402  0.5846  0.9239
11214TIP3   OH255132   1.366   1.020   1.327  0.1422 -0.0406 -0.1646
11214TIP3    H155133   1.461   1.023   1.325  0.4332 -3.8974  0.4094
11214TIP3    H255134   1.339   1.074   1.252  2.8098 -0.0029 -1.2201
11215TIP3   OH255135   2.971   2.591   6.088 -0.0696 -0.3858 -0.3128
11215TIP3    H155136   2.929   2.657   6.143 -0.1439  1.3386 -2.2919
11215TIP3    H255137   2.964   2.626   5.999  0.8267 -2.6032 -1.3429
11216TIP3   OH255138   0.367   5.932   1.047 -0.0822 -0.0605  0.2898
11216TIP3    H155139   0.446   5.986   1.043  0.6239 -0.9608  1.4010
11216TIP3    H255140   0.296   5.994   1.062  0.5341  0.6767  0.2260
11217TIP3   OH255141   4.783   6.073  13.539  0.6637 -0.6122 -0.5496
11217TIP3    H155142   4.864   6.074  13.487  0.7641 -2.7388 -0.5124
11217TIP3    H255143   4.733   6.149  13.507  2.3267  0.3064 -1.0911
11218TIP3   OH255144   3.067   2.668  14.288 -0.2031  0.1110 -0.6052
11218TIP3    H155145   3.039   2.728  14.358 -1.6661 -0.6832 -0.4717
11218TIP3    H255146   3.023   2.586  14.309  1.9455 -1.1053 -0.6523
11219TIP3   OH255147   5.102   5.809   6.205 -0.4097 -0.3283 -0.2610
11219TIP3    H155148   5.176   5.851   6.248 -1.8912  0.7695  1.3520
11219TIP3    H255149   5.069   5.746   6.268 -1.9368  0.5008 -0.1691
11220TIP3   OH255150   6.319   2.067   1.334 -0.3346  0.7201  0.3616
11220TIP3    H155151   6.247   2.063   1.397 -0.8161 -1.8863 -0.2465
11220TIP3    H255152   6.276   2.061   1.248  0.5457 -0.5409 -0.0215
11221TIP3   OH255153   1.632   4.010   5.299  0.4345 -0.1490  0.3597
11221TIP3    H155154   1.593   4.084   5.347 -1.1146 -0.4433 -0.3587
11221TIP3    H255155   1.715   4.044   5.266  0.6144  0.6707  1.5948
11222TIP3   OH255156   3.360   1.249   5.516  0.3462  0.1398 -0.5109
11222TIP3    H155157   3.420   1.319   5.490  0.4033 -0.0146 -0.7954
11222TIP3    H255158   3.416   1.182   5.555  0.2374  0.4655  0.2225
11223TIP3   OH255159   3.826   0.356  11.223  0.1325  0.3058  0.0980
11223TIP3    H155160   3.904   0.301  11.221 -1.0573 -1.4470 -0.7051
11223TIP3    H255161   3.851   0.435  11.175  0.7197 -1.3066 -2.4948
11224TIP3   OH255162   1.603   6.296  10.765 -0.1924 -0.1921 -0.1760
11224TIP3    H155163   1.528   6.241  10.787 -1.0291  1.6446  1.8382
11224TIP3    H255164   1.679   6.240  10.782 -1.0375 -1.3232 -0.0113
11225TIP3   OH255165   4.952   0.723   1.220  0.0990  0.3381 -0.2760
11225TIP3    H155166   5.018   0.679   1.167 -1.7096 -1.1264 -1.4289
11225TIP3    H255167   4.915   0.654   1.275 -0.6000  1.0747  0.2173
11226TIP3   OH255168   5.841   4.478   1.356 -0.2000 -0.3924  0.9617
11226TIP3    H155169   5.825   4.436   1.271 -1.7036  0.2177  0.9074
11226TIP3    H255170   5.922   4.528   1.344 -0.3493 -0.3836 -0.0802
11227TIP3   OH255171   6.279   5.243  10.475  0.3818  0.1572  0.3971
11227TIP3    H155172   6.206   5.209  10.424  1.5102  0.4564 -1.5621
11227TIP3    H255173   6.251   5.236  10.566 -0.7579 -2.8151 -0.0681
11228TIP3   OH255174   0.406   5.349  14.542  0.2360  0.3454 -0.0184
11228TIP3    H155175   0.427   5.441  14.555  0.3122  0.8296 -2.8970
11228TIP3    H255176   0.478   5.301  14.585  0.0270  1.5714  1.7730
11229TIP3   OH255177   0.909   4.242  11.344 -0.1148 -0.2146  0.0818
11229TIP3    H155178   0.890   4.160  11.391 -2.6516 -0.3005 -0.9196
11229TIP3    H255179   0.981   4.220  11.285 -0.6279 -1.6957 -0.0348
11230TIP3   OH255180   5.864   6.378   1.653  0.4436 -0.5049 -0.2571
11230TIP3    H155181   5.859   6.455   1.710  1.8059 -0.0772 -0.6934
11230TIP3    H255182   5.845   6.304   1.711 -3.1864  0.2305 -0.2475
11231TIP3   OH255183   5.984   0.759  14.597  0.2900 -0.3864  0.0244
11231TIP3    H155184   5.909   0.738  14.653 -0.3079 -1.0482 -0.9908
11231TIP3    H255185   5.995   0.853  14.605 -0.3720 -0.3446  0.5334
11232TIP3   OH255186   4.674   4.019   5.276 -0.0931 -0.6106 -0.0563
11232TIP3    H155187   4.598   3.977   5.316 -1.2254 -1.9335 -3.2391
11232TIP3    H255188   4.649   4.111   5.267 -2.1180 -1.2872 -2.4247
11233TIP3   OH255189   1.466   3.048   1.524 -0.0110  0.3795  0.0954
11233TIP3    H155190   1.523   2.992   1.471  0.7150  0.4627  0.7641
11233TIP3    H255191   1.526   3.111   1.565 -0.8413  1.9719 -0.9887
11234TIP3   OH255192   4.438   5.861   2.696 -0.5210  0.5151  0.1346
11234TIP3    H155193   4.466   5.913   2.621 -0.3880  0.7197  0.3219
11234TIP3    H255194   4.344   5.877   2.703 -0.2734  1.7447  0.9499
11235TIP3   OH255195   2.753   0.709   4.870  0.1859 -0.1687 -0.7994
11235TIP3    H155196   2.689   0.704   4.800 -0.4084 -1.1748 -0.2043
11235TIP3    H255197   2.798   0.624   4.868  1.6196  0.5775 -1.3088
11236TIP3   OH255198   4.418   3.451   0.053  0.2680  0.0258  0.2312
11236TIP3    H155199   4.399   3.428  -0.037  1.7679  0.3225 -0.1969
11236TIP3    H255200   4.473   3.379   0.085  1.6749  1.0131  0.1384
11237TIP3   OH255201   6.601   0.320   1.761  0.1751 -0.0569  0.3617
11237TIP3    H155202   6.644   0.265   1.696  0.1236  0.4059 -0.0739
11237TIP3    H255203   6.559   0.259   1.822  2.8666 -0.5851  1.8235
11238TIP3   OH255204   3.495   4.845  16.688 -0.9686 -0.3754 -0.1380
11238TIP3    H155205   3.405   4.843  16.721 -0.5042  0.2478  1.2713
11238TIP3    H255206   3.490   4.806  16.601 -3.2518  2.9440 -1.7274
11239TIP3   OH255207   1.971   1.004   5.113 -0.3707  0.0476 -0.4546
11239TIP3    H155208   2.038   0.994   5.044  1.4316  1.1321  1.0532
11239TIP3    H255209   1.941   0.914   5.129  3.1318 -1.0733  1.0147
11240TIP3   OH255210   2.730   0.412  13.878  0.0969 -0.3729 -0.5467
11240TIP3    H155211   2.776   0.406  13.962  1.6146 -1.0835 -1.3734
11240TIP3    H255212   2.665   0.341  13.881  0.9129 -1.1331 -0.3941
11241TIP3   OH255213   3.847   2.254   5.430 -0.4750  0.2769  0.4615
11241TIP3    H155214   3.866   2.348   5.428 -0.1371  0.2042 -1.3948
11241TIP3    H255215   3.870   2.223   5.343 -2.9367 -1.0737  0.2008
11242TIP3   OH255216   1.909   4.568  13.743 -0.0947 -0.4717 -0.0229
11242TIP3    H155217   1.975   4.533  13.682  1.0584 -0.0100  0.9182
11242TIP3    H255218   1.917   4.663  13.735 -0.7228 -0.4120  0.0266
11243TIP3   OH255219   5.513   2.761  14.053 -0.4064 -0.1487 -0.1158
11243TIP3    H155220   5.528   2.850  14.022 -0.5340 -0.3699 -0.8286
11243TIP3    H255221   5.599   2.719  14.045 -0.1840  0.0870  0.8528
11244TIP3   OH255222   6.482   3.613   6.435 -0.1659 -0.5546  0.0146
11244TIP3    H155223   6.509   3.538   6.488  1.9541  0.8087  1.0417
11244TIP3    H255224   6.529   3.687   6.474 -2.1261  1.3080 -0.9809
11245TIP3   OH255225   3.989   5.002  15.566 -0.3111 -0.2857  0.1738
11245TIP3    H155226   3.941   4.975  15.488 -1.0396  1.3753 -0.0096
11245TIP3    H255227   4.019   5.091  15.546 -1.0170  0.4066  1.9961
11246TIP3   OH255228   4.431   4.309   5.916 -0.3681  0.1488  0.2056
11246TIP3    H155229   4.505   4.269   5.962  0.9127  2.2438  0.0607
11246TIP3    H255230   4.395   4.237   5.863  1.6168 -0.9000  0.1865
11247TIP3   OH255231   6.605   2.692   0.444  0.6038  0.8384  0.1506
11247TIP3    H155232   6.622   2.770   0.498 -1.1206  0.8675  0.6982
11247TIP3    H255233   6.606   2.620   0.506  1.5943  0.4674 -0.2703
11248TIP3   OH255234   1.114   0.245   2.791 -0.8385  0.2970  0.5097
11248TIP3    H155235   1.113   0.309   2.719 -2.2637  0.3872  0.5860
11248TIP3    H255236   1.048   0.181   2.766  0.0966 -0.7963  0.7746
11249TIP3   OH255237   6.202   5.653  16.461  0.3007 -0.2994 -0.8970
11249TIP3    H155238   6.193   5.721  16.394  1.8481  0.0039 -0.8306
11249TIP3    H255239   6.270   5.686  16.520 -1.3412 -0.3610  1.1118
11250TIP3   OH255240   0.017   5.890  11.610  0.7732 -0.4179 -0.2740
11250TIP3    H155241  -0.020   5.858  11.528  3.7486 -0.6761 -1.6804
11250TIP3    H255242   0.053   5.812  11.652  0.1717 -0.1349  0.7924
11251TIP3   OH255243   4.229   6.208  12.581  0.2972  0.1490 -0.9464
11251TIP3    H155244   4.265   6.121  12.565  0.3360  0.3705 -2.1705
11251TIP3    H255245   4.159   6.217  12.516 -1.1120  0.2422  0.5231
11252TIP3   OH255246   3.035   6.603  13.081  0.0975  0.5996 -0.0545
11252TIP3    H155247   3.017   6.639  12.995 -0.0419 -0.6233 -0.5574
11252TIP3    H255248   2.950   6.574  13.114  0.2640  0.3095  0.1328
11253TIP3   OH255249   0.841   3.232   6.004 -0.0506 -0.1428  0.3816
11253TIP3    H155250   0.904   3.279   6.059  0.1698 -0.5096  0.4468
11253TIP3    H255251   0.794   3.301   5.957  0.2548  0.1432  0.4911
11254TIP3   OH255252   4.483   1.957  17.123 -0.2284  0.1274  0.3310
11254TIP3    H155253   4.392   1.986  17.127  0.0002  1.1123 -0.8846
11254TIP3    H255254   4.505   1.933  17.213 -1.7727 -0.4173  0.5865
11255TIP3   OH255255   5.230   2.919   2.282  0.1508 -0.1159  0.6179
11255TIP3    H155256   5.308   2.874   2.315 -0.5089 -4.0565 -2.4983
11255TIP3    H255257   5.160   2.890   2.341  0.3072 -0.1487  0.7912
11256TIP3   OH255258   4.590   3.890   1.699 -0.2114  0.0518  0.0165
11256TIP3    H155259   4.657   3.944   1.657  0.5592  0.2996  1.4982
11256TIP3    H255260   4.510   3.909   1.650  0.4538  1.0306 -0.7376
11257TIP3   OH255261   2.393   1.930   3.353 -0.4199 -0.6672  0.3398
11257TIP3    H155262   2.477   1.930   3.400 -0.8055  0.3669  1.0880
11257TIP3    H255263   2.341   1.997   3.398 -1.5203 -1.0339 -0.3430
11258TIP3   OH255264   5.977   3.511   2.532  0.1553 -0.2047 -0.4566
11258TIP3    H155265   6.059   3.463   2.527  0.1631 -0.3002  0.4752
11258TIP3    H255266   5.978   3.552   2.618 -1.3466 -1.2497  0.0921
11259TIP3   OH255267   2.417   4.574  14.568  0.4804 -0.1379 -0.4671
11259TIP3    H155268   2.441   4.654  14.614 -1.6165  0.0598  0.4324
11259TIP3    H255269   2.447   4.504  14.626 -0.7227  0.0907  0.4786
11260TIP3   OH255270   5.072   6.043  11.967  0.4119 -0.5461 -0.5565
11260TIP3    H155271   5.001   6.106  11.978  0.9117  0.3701 -2.1474
11260TIP3    H255272   5.031   5.958  11.983 -0.5452  0.0920  0.5586
11261TIP3   OH255273   0.875   0.880  17.286  0.0589 -0.0798  0.4818
11261TIP3    H155274   0.883   0.792  17.251 -0.3284 -0.0007  0.1881
11261TIP3    H255275   0.965   0.911  17.294  0.2458 -0.7959  1.3533
11262TIP3   OH255276   1.910   6.312  14.047 -0.0804 -0.3249 -0.1668
11262TIP3    H155277   1.843   6.379  14.063  0.9949  1.0663 -1.2497
11262TIP3    H255278   1.993   6.357  14.061  0.6723 -1.3096 -1.3033
11263TIP3   OH255279   4.118   0.151   0.959  0.1422 -0.0132  0.1708
11263TIP3    H155280   4.143   0.243   0.960 -0.3925  0.1386  1.4300
11263TIP3    H255281   4.165   0.114   0.884 -2.6059  2.0613 -2.8623
11264TIP3   OH255282   4.492   4.855   0.725 -0.0607 -0.2444 -0.2850
11264TIP3    H155283   4.454   4.784   0.673  1.2055 -1.7291  0.7171
11264TIP3    H255284   4.525   4.917   0.660  0.4823 -1.4871 -1.2433
11265TIP3   OH255285   0.381   1.986   6.160  0.1073 -0.1700  0.2855
11265TIP3    H155286   0.367   1.892   6.160 -1.0385 -0.0074  0.3532
11265TIP3    H255287   0.338   2.017   6.240 -0.4441  0.5310 -0.2705
11266TIP3   OH255288   5.408   5.062   0.151  0.2385  0.6129  0.1110
11266TIP3    H155289   5.361   5.027   0.076  0.7439 -0.1871  0.1590
11266TIP3    H255290   5.499   5.035   0.138  0.5117  1.2789  0.5287
11267TIP3   OH255291   6.465   2.761  13.745  0.0776  0.1698  0.2605
11267TIP3    H155292   6.497   2.675  13.716 -1.1610 -0.6231  1.1713
11267TIP3    H255293   6.458   2.753  13.840 -0.4595  1.1504  0.3131
11268TIP3   OH255294   4.725   4.741  10.954 -0.4331 -0.0859  0.3270
11268TIP3    H155295   4.693   4.788  11.031  0.9556  0.8754  0.3626
11268TIP3    H255296   4.647   4.704  10.914 -1.6783  2.5567  0.1115
11269TIP3   OH255297   2.421   2.200   4.007 -0.0354 -0.2275 -0.1981
11269TIP3    H155298   2.343   2.200   3.951 -0.2485 -1.3650  0.0533
11269TIP3    H255299   2.385   2.198   4.096  0.2933  2.3152  0.0442
11270TIP3   OH255300   4.392   0.771   5.254  0.5834 -0.3541 -0.1151
11270TIP3    H155301   4.328   0.839   5.234 -0.9273 -1.6217  0.2412
11270TIP3    H255302   4.435   0.753   5.170 -0.4107 -0.3425 -0.6458
11271TIP3   OH255303   4.951   1.224   5.617 -0.0227  0.4995 -0.0616
11271TIP3    H155304   5.026   1.282   5.630  0.4261  0.2467 -1.3504
11271TIP3    H255305   4.989   1.136   5.615 -0.4365  0.3194 -0.1176
11272TIP3   OH255306   4.346   3.431  13.878 -0.2290 -0.1126  0.1255
11272TIP3    H155307   4.280   3.428  13.947 -0.9208  1.2105 -0.4518
11272TIP3    H255308   4.424   3.391  13.918 -0.5189  0.8756  1.7702
11273TIP3   OH255309   1.392   5.521  12.013  0.2849 -0.3811  0.1244
11273TIP3    H155310   1.325   5.495  11.950  0.7132  1.0480 -0.9489
11273TIP3    H255311   1.372   5.469  12.091 -0.5694 -1.7984 -0.9904
11274TIP3   OH255312   2.884   0.241   3.682  0.0605 -0.0336  1.0456
11274TIP3    H155313   2.935   0.280   3.753  1.3148  1.4817 -0.5889
11274TIP3    H255314   2.838   0.316   3.642  0.2292 -0.6646 -0.3889
11275TIP3   OH255315   4.642   6.097   5.412 -0.8971  0.5897  0.0731
11275TIP3    H155316   4.728   6.059   5.393 -0.3613  1.2216  1.1723
11275TIP3    H255317   4.598   6.100   5.327  0.6689  1.4940 -0.7326
11276TIP3   OH255318   6.455   3.042  16.367 -0.3119 -0.5447 -0.1935
11276TIP3    H155319   6.387   3.109  16.374  1.0512  1.1144 -1.9982
11276TIP3    H255320   6.428   2.987  16.294 -1.2062 -1.7926  1.0128
11277TIP3   OH255321   1.725   5.559   2.440  0.7369 -0.0729 -0.2365
11277TIP3    H155322   1.696   5.479   2.396 -2.9101  0.4781  0.8780
11277TIP3    H255323   1.745   5.531   2.530 -0.3592  0.1979  0.1018
11278TIP3   OH255324   1.957   3.362  12.137  0.0880 -0.0375 -0.2168
11278TIP3    H155325   1.989   3.273  12.124 -0.6219 -0.3386  0.0119
11278TIP3    H255326   1.890   3.354  12.205  0.5415  0.7919  0.3489
11279TIP3   OH255327   1.357   5.749  13.497 -0.0538 -0.5239  0.1363
11279TIP3    H155328   1.417   5.822  13.484 -0.6581 -0.2084 -1.0096
11279TIP3    H255329   1.353   5.705  13.412  2.4197 -3.6064  1.4204
11280TIP3   OH255330   4.610   3.854  11.337 -0.5386  0.1663 -0.0009
11280TIP3    H155331   4.673   3.849  11.265 -0.3480  0.7121  0.1263
11280TIP3    H255332   4.563   3.771  11.333  1.2737 -0.9676  0.9076
11281TIP3   OH255333   2.617   0.894  11.910  0.0615 -0.3909 -0.2194
11281TIP3    H155334   2.665   0.824  11.867  1.3086 -0.0456  0.5533
11281TIP3    H255335   2.594   0.955  11.840  1.3147 -0.2518 -0.5267
11282TIP3   OH255336   1.090   0.535  12.805 -0.3946  0.4031 -0.9503
11282TIP3    H155337   0.996   0.533  12.785 -0.5670  0.7585 -0.2211
11282TIP3    H255338   1.122   0.450  12.776 -0.6950  0.7395 -2.3296
11283TIP3   OH255339   5.222   3.110   4.619  0.0877 -0.0861 -0.0037
11283TIP3    H155340   5.156   3.084   4.684 -1.2191 -1.3938 -1.7773
11283TIP3    H255341   5.194   3.197   4.590 -0.3278 -0.2523 -0.1017
11284TIP3   OH255342   1.798   3.419  15.683  0.2636  0.0041  0.4732
11284TIP3    H155343   1.850   3.434  15.761 -1.4371  0.4068  1.5961
11284TIP3    H255344   1.747   3.341  15.702 -0.2553  0.1662 -0.1893
11285TIP3   OH255345   5.396   3.877   0.863  0.3101  0.1944  0.5700
11285TIP3    H155346   5.355   3.918   0.787 -0.2982 -0.0175  0.7779
11285TIP3    H255347   5.359   3.789   0.866 -1.3495  0.8560  2.3216
11286TIP3   OH255348   2.885   0.421   2.528 -0.1327  0.2642 -0.5643
11286TIP3    H155349   2.827   0.411   2.603  0.2146 -1.7137 -0.5050
11286TIP3    H255350   2.940   0.343   2.529  0.7909  0.8425 -2.1007
11287TIP3   OH255351   0.241   0.380  16.454  0.6637 -1.4018 -0.0694
11287TIP3    H155352   0.328   0.346  16.434  1.5331  0.9074 -0.5945
11287TIP3    H255353   0.210   0.418  16.372  0.6767  0.7747  0.8370
11288TIP3   OH255354   2.993   0.832  10.829 -0.2049  0.0530 -0.5526
11288TIP3    H155355   3.043   0.847  10.749  1.1687 -1.4074 -0.0282
11288TIP3    H255356   2.950   0.915  10.847 -1.6365  0.0547 -3.4857
11289TIP3   OH255357   0.168   4.607  10.895 -0.2788 -0.5565  0.4077
11289TIP3    H155358   0.154   4.693  10.857 -0.0095  1.2478  3.9641
11289TIP3    H255359   0.191   4.551  10.821 -1.8783  2.0312 -2.2473
11290TIP3   OH255360   4.444   1.902   0.614 -0.0664  0.3131  0.0179
11290TIP3    H155361   4.389   1.974   0.583  1.0040  0.6483 -1.1569
11290TIP3    H255362   4.443   1.839   0.542  0.6746  0.0919  0.1986
11291TIP3   OH255363   3.320   4.497   4.060 -0.2423  0.0073 -0.3045
11291TIP3    H155364   3.412   4.486   4.036  0.6933 -0.6505  3.0116
11291TIP3    H255365   3.274   4.503   3.977  2.6651 -0.6579 -2.1142
11292TIP3   OH255366   1.458   5.388  17.137  0.0867 -0.5619 -0.2770
11292TIP3    H155367   1.399   5.456  17.104 -0.2473 -0.6265  0.1839
11292TIP3    H255368   1.488   5.421  17.222  0.4451 -0.6849 -0.3555
11293TIP3   OH255369   0.068   3.990   0.289  0.0653 -0.3187  1.0269
11293TIP3    H155370   0.149   4.038   0.303  0.1131 -0.6635  2.0534
11293TIP3    H255371   0.095   3.906   0.251  0.1682 -0.3483  1.1676
11294TIP3   OH255372   6.792   6.001   1.912 -0.1055  0.1346 -0.1093
11294TIP3    H155373   6.834   6.033   1.992 -0.1824 -0.0804  0.0177
11294TIP3    H255374   6.835   6.048   1.841  1.6454 -1.4134 -0.1477
11295TIP3   OH255375   2.958   4.476   2.168 -0.3069 -0.3603 -0.2568
11295TIP3    H155376   3.033   4.434   2.125 -1.4718 -2.4686 -0.3370
11295TIP3    H255377   2.992   4.561   2.197  1.6970 -0.6487 -1.5591
11296TIP3   OH255378   3.618   0.247  12.475 -0.4235 -0.4845 -0.0374
11296TIP3    H155379   3.684   0.245  12.405 -0.1461 -0.3515  0.2180
11296TIP3    H255380   3.648   0.316  12.533 -1.0590 -0.0812 -0.1794
11297TIP3   OH255381   5.145   4.260   1.258 -0.4712 -0.2776 -0.2951
11297TIP3    H155382   5.148   4.231   1.349 -2.1093 -1.6955 -0.6334
11297TIP3    H255383   5.150   4.180   1.206  0.3637  0.4976 -1.4811
11298TIP3   OH255384   4.071   3.611   3.419 -0.3380  0.3674 -0.4225
11298TIP3    H155385   4.086   3.586   3.328  4.0946  0.9624 -0.0754
11298TIP3    H255386   4.126   3.552   3.469 -1.2637  1.2373  1.7282
11299TIP3   OH255387   3.255   2.184   6.085 -0.2624 -0.2059  0.3442
11299TIP3    H155388   3.349   2.187   6.104 -0.1692 -2.0796  0.3588
11299TIP3    H255389   3.214   2.223   6.162  0.4000 -2.3607  1.8946
11300TIP3   OH255390   2.376   2.126  15.794  0.3937  0.3620  0.4372
11300TIP3    H155391   2.359   2.031  15.795 -0.6991  0.5130  2.3458
11300TIP3    H255392   2.291   2.165  15.774  0.5765  0.9523  0.7946
11301TIP3   OH255393   2.291   1.182  12.550 -0.2335 -0.2758  0.4958
11301TIP3    H155394   2.270   1.128  12.627  0.1249  0.0860  0.8478
11301TIP3    H255395   2.319   1.266  12.586  1.3133 -0.5626  0.0127
11302TIP3   OH255396   1.768   4.913   4.296  0.2033 -0.4245 -0.4959
11302TIP3    H155397   1.745   4.934   4.387  0.4458 -1.1134 -0.2717
11302TIP3    H255398   1.861   4.936   4.290 -0.3364  1.7938 -1.2323
11303TIP3   OH255399   3.026   3.089  16.092 -0.1862  0.4823  0.2590
11303TIP3    H155400   3.082   3.095  16.169  0.3194  0.9204 -0.1283
11303TIP3    H255401   3.069   3.146  16.027 -2.1886  2.5832  0.6175
11304TIP3   OH255402   4.775   5.293   4.741 -0.1069 -0.1003 -0.0973
11304TIP3    H155403   4.728   5.347   4.803 -1.4721  0.6297 -1.6849
11304TIP3    H255404   4.812   5.355   4.678 -2.0855 -0.9172 -2.2072
11305TIP3   OH255405   3.552   4.791  12.933 -0.4367  0.3406  0.1571
11305TIP3    H155406   3.572   4.817  13.023 -0.4890  1.4519 -0.1470
11305TIP3    H255407   3.566   4.870  12.881 -2.3657  0.2687 -0.5351
11306TIP3   OH255408   0.575   1.518   4.500  0.0249  0.2887  0.0028
11306TIP3    H155409   0.509   1.499   4.567  1.3260 -2.3252  0.6533
11306TIP3    H255410   0.565   1.448   4.436  2.3630 -0.3939  0.2999
11307TIP3   OH255411   2.030   3.855  14.561 -0.3773  0.3291 -0.0744
11307TIP3    H155412   1.981   3.890  14.486 -0.1268  0.1189 -0.3365
11307TIP3    H255413   2.021   3.760  14.552  3.1944  0.0120 -2.2967
11308TIP3   OH255414   0.223   0.096  15.152  0.1959 -0.2109 -0.0756
11308TIP3    H155415   0.193   0.015  15.195 -0.8433  1.2698  2.1736
11308TIP3    H255416   0.149   0.124  15.099  0.7681 -0.9679 -1.3449
11309TIP3   OH255417   1.667   4.947  11.988  0.1466 -0.3462 -0.0048
11309TIP3    H155418   1.597   4.909  12.042 -2.0518  2.3630 -0.6743
11309TIP3    H255419   1.665   4.896  11.907 -0.7395 -0.6611  0.1995
11310TIP3   OH255420   1.038   0.426  10.465 -0.6872  0.5812  1.1432
11310TIP3    H155421   1.034   0.333  10.490  0.8273  0.2786  0.3939
11310TIP3    H255422   0.949   0.447  10.436 -1.6318  0.0010  3.3643
11311TIP3   OH255423   3.262   3.634   1.031 -0.1576  0.1642  0.5141
11311TIP3    H155424   3.293   3.677   0.950 -1.0828  1.9579  1.0495
11311TIP3    H255425   3.172   3.609   1.011 -0.3409  0.4827  0.9309
11312TIP3   OH255426   0.545   4.288   4.923 -0.1396  0.0083 -0.3644
11312TIP3    H155427   0.622   4.323   4.880 -0.6105  0.6424 -0.7089
11312TIP3    H255428   0.534   4.341   5.002  0.1847 -0.5441  0.0541
11313TIP3   OH255429   1.357   4.094   0.497 -0.8073  0.1891  0.3007
11313TIP3    H155430   1.326   4.158   0.432 -3.5831 -0.8153  0.5331
11313TIP3    H255431   1.288   4.091   0.563  0.6620 -0.8974  1.8578
11314TIP3   OH255432   4.828   0.134  15.378  0.1339  0.0860  0.3232
11314TIP3    H155433   4.832   0.211  15.321  0.1672  1.3540  1.9680
11314TIP3    H255434   4.916   0.097  15.375  0.1147  0.0728 -0.4828
11315TIP3   OH255435   0.643   1.900  13.786  0.3606  0.0330 -0.0412
11315TIP3    H155436   0.716   1.905  13.725  0.6684 -0.5432  0.2707
11315TIP3    H255437   0.647   1.811  13.822  0.4117  0.4611  1.0753
11316TIP3   OH255438   3.452   5.238   4.886  0.8824 -0.1727 -0.0860
11316TIP3    H155439   3.378   5.197   4.932 -0.9297  2.3613 -0.5346
11316TIP3    H255440   3.501   5.164   4.851 -1.2736 -2.0164  0.4970
11317TIP3   OH255441   6.320   2.714   2.710 -0.2095 -0.1951  0.3763
11317TIP3    H155442   6.286   2.785   2.655 -1.6143  0.2926  1.7777
11317TIP3    H255443   6.317   2.637   2.654  0.5735  0.6900 -0.9286
11318TIP3   OH255444   5.273   6.501   0.099 -0.5112 -0.0452 -0.1130
11318TIP3    H155445   5.257   6.562   0.171  1.0293 -0.5675  0.7237
11318TIP3    H255446   5.186   6.472   0.072 -1.1286 -0.4898  2.1299
11319TIP3   OH255447   3.810   4.678  16.598  0.0864  1.0129 -0.5801
11319TIP3    H155448   3.761   4.717  16.526  0.3763  0.9434 -0.8186
11319TIP3    H255449   3.818   4.748  16.662  0.2426  1.2228 -0.8250
11320TIP3   OH255450   4.425   3.998   0.227 -0.4347 -0.0869  0.0418
11320TIP3    H155451   4.480   4.069   0.259 -1.7280  0.8664  0.1957
11320TIP3    H255452   4.425   4.009   0.132 -3.4541  2.3599  0.1985
11321TIP3   OH255453   2.198   5.749  16.712  0.4279  0.2083 -0.0629
11321TIP3    H155454   2.213   5.805  16.788 -3.4753  2.5717 -0.7280
11321TIP3    H255455   2.272   5.767  16.654  2.0830  0.4188  2.0107
11322TIP3   OH255456   5.904   2.499   4.453  0.5181 -0.4163 -0.4571
11322TIP3    H155457   5.901   2.570   4.389  0.8218 -0.6343 -0.7145
11322TIP3    H255458   5.868   2.537   4.533  0.0447 -0.1724 -0.7837
11323TIP3   OH255459   0.535   2.226  11.496 -0.2047 -0.2703 -0.4792
11323TIP3    H155460   0.554   2.188  11.411  0.7280 -1.0990  0.0775
11323TIP3    H255461   0.622   2.247  11.533 -0.6255  1.0177 -0.1442
11324TIP3   OH255462   4.473   2.478  15.945 -0.8413 -0.0663  0.1965
11324TIP3    H155463   4.392   2.488  15.994 -1.0140  2.2478 -0.4418
11324TIP3    H255464   4.542   2.498  16.009 -0.7446 -1.7329  0.6594
11325TIP3   OH255465   5.163   0.802   3.907 -0.2379  0.6808 -0.0671
11325TIP3    H155466   5.091   0.855   3.871 -0.7140 -0.2588 -0.5359
11325TIP3    H255467   5.128   0.713   3.909  0.6485  0.3344  0.4434
11326TIP3   OH255468   3.731   5.205   5.983  0.0862  0.2340  0.4630
11326TIP3    H155469   3.805   5.151   5.956 -0.5112 -0.6441  0.5581
11326TIP3    H255470   3.656   5.168   5.936 -0.1602  1.6333 -0.2925
11327TIP3   OH255471   3.380   0.792   1.049  0.1785 -0.5695  0.2089
11327TIP3    H155472   3.322   0.752   1.115 -2.1273  1.5298 -0.3741
11327TIP3    H255473   3.357   0.749   0.967  0.0578 -0.3217  0.1122
11328TIP3   OH255474   3.917   5.001   5.901 -0.0693 -0.2144  0.3077
11328TIP3    H155475   3.895   4.969   5.989 -0.6139  0.7811  0.5475
11328TIP3    H255476   3.975   4.934   5.865 -0.7877 -1.2275  0.9751
11329TIP3   OH255477   6.299   1.193  14.718 -0.4721  0.4823 -0.2915
11329TIP3    H155478   6.274   1.101  14.716 -3.4754  1.1264  1.3436
11329TIP3    H255479   6.385   1.193  14.760 -1.2492 -1.5143  1.5263
11330TIP3   OH255480   4.878   4.237  13.557  0.0270  0.1693 -0.3902
11330TIP3    H155481   4.916   4.304  13.500 -0.5489  0.8087 -0.0308
11330TIP3    H255482   4.821   4.186  13.500  2.3234 -1.6162 -1.2426
11331TIP3   OH255483   5.929   2.719   3.111  0.6642 -0.4235 -0.6440
11331TIP3    H155484   5.960   2.681   3.029  1.8508  0.3578 -0.5732
11331TIP3    H255485   5.921   2.813   3.092 -1.4162 -0.5406 -0.5735
11332TIP3   OH255486   0.670   1.446  12.153 -0.2100  0.6369  0.4480
11332TIP3    H155487   0.677   1.514  12.085 -0.1875  0.8048  0.6175
11332TIP3    H255488   0.639   1.369  12.106 -1.3198  1.0666  0.4527
11333TIP3   OH255489   2.164   6.429  14.090  0.5142 -0.0096 -0.2232
11333TIP3    H155490   2.229   6.392  14.031 -0.2225 -0.6983 -0.6159
11333TIP3    H255491   2.195   6.406  14.178  0.9112 -0.1421 -0.3953
11334TIP3   OH255492   1.452   2.428   1.612 -0.4601 -0.1032 -0.6017
11334TIP3    H155493   1.379   2.367   1.624  0.7294 -1.2801  1.0112
11334TIP3    H255494   1.503   2.389   1.540  0.2718 -1.0304  0.3935
11335TIP3   OH255495   1.064   4.958   4.789  0.3544 -0.4246  0.0785
11335TIP3    H155496   1.106   4.965   4.703  0.1221  0.0324  0.0024
11335TIP3    H255497   1.133   4.979   4.851  0.5208 -0.7474  0.0090
11336TIP3   OH255498   0.983   1.304  12.789  0.2564  0.0228 -0.0948
11336TIP3    H155499   0.986   1.221  12.837  1.3865  0.1379  0.0679
11336TIP3    H255500   1.075   1.325  12.772  0.1541  2.2597  1.6567
11337TIP3   OH255501   1.862   3.669   2.900 -0.2840  0.1882  0.3560
11337TIP3    H155502   1.831   3.682   2.810  0.7784 -0.0181 -0.0551
11337TIP3    H255503   1.783   3.654   2.951 -0.9079  0.3823 -0.5356
11338TIP3   OH255504   3.933   2.228   5.175 -0.1196  0.0343 -0.2789
11338TIP3    H155505   4.008   2.286   5.161 -0.4897  0.6359  0.1695
11338TIP3    H255506   3.947   2.155   5.115  0.6702  0.2887 -0.4106
11339TIP3   OH255507   1.747   2.581   3.660  0.2952 -0.1510  0.3245
11339TIP3    H155508   1.777   2.494   3.635  2.3945  0.3185  0.9830
11339TIP3    H255509   1.713   2.570   3.749  2.8922  0.0559  1.4432
11340TIP3   OH255510   6.598   5.807  12.458  0.4853 -0.0315 -0.2356
11340TIP3    H155511   6.691   5.827  12.451  0.7520 -0.6866  1.0995
11340TIP3    H255512   6.558   5.855  12.386  1.5366  2.2922  0.6290
11341TIP3   OH255513   5.141   1.143   2.419  0.0173  0.2023  0.6362
11341TIP3    H155514   5.089   1.063   2.409 -1.1394  0.9821  0.1503
11341TIP3    H255515   5.080   1.207   2.454  1.3207  0.4803  2.5410
11342TIP3   OH255516   3.475   4.309  13.815 -0.5724  0.1512 -0.6699
11342TIP3    H155517   3.433   4.348  13.738 -0.4402 -0.3114 -0.9793
11342TIP3    H255518   3.539   4.375  13.843 -0.2737  0.1198 -1.2535
11343TIP3   OH255519   2.984   0.450  14.764  0.3056 -0.0305 -0.3429
11343TIP3    H155520   2.976   0.476  14.856 -1.2624 -0.8234 -0.2160
11343TIP3    H255521   3.063   0.494  14.733 -0.4924  2.2965  0.6807
11344TIP3   OH255522   4.959   2.044   2.612  0.5019 -0.2296 -0.0021
11344TIP3    H155523   4.908   2.044   2.693 -1.0302 -0.2854 -0.9328
11344TIP3    H255524   5.005   2.127   2.613  1.0742 -0.5353  1.2553
11345TIP3   OH255525   0.062   3.007  12.393 -0.5460 -0.5611 -0.2059
11345TIP3    H155526   0.082   2.981  12.483 -0.5624 -0.0892 -0.0639
11345TIP3    H255527   0.028   2.928  12.352 -3.3684 -0.0985  1.0352
11346TIP3   OH255528   5.934   6.124   3.781 -0.2350 -0.7274  0.5444
11346TIP3    H155529   5.940   6.078   3.865 -0.3919  0.0164  0.9735
11346TIP3    H255530   5.855   6.177   3.789  0.0370 -0.2550  0.1307
11347TIP3   OH255531   4.274   5.576   5.081 -0.1858  0.1519  0.2604
11347TIP3    H155532   4.304   5.568   5.172  0.1903  0.1376  0.1391
11347TIP3    H255533   4.351   5.607   5.033 -0.4428  0.3708 -0.0169
11348TIP3   OH255534   1.379   5.520  12.481  0.4535 -0.6449  0.5259
11348TIP3    H155535   1.376   5.467  12.401 -0.6512 -1.7428  1.2639
11348TIP3    H255536   1.453   5.579  12.467  0.6395 -1.1952 -1.0645
11349TIP3   OH255537   3.403   2.112   5.806 -0.6297 -0.4059 -0.2246
11349TIP3    H155538   3.414   2.019   5.829  0.3669 -0.2501 -0.0410
11349TIP3    H255539   3.463   2.158   5.864 -0.0749  0.2337 -1.2791
11350TIP3   OH255540   5.811   2.265  12.634 -0.4652  0.1323  0.4176
11350TIP3    H155541   5.850   2.184  12.668 -1.4782  0.1644  1.7574
11350TIP3    H255542   5.857   2.281  12.552  1.7306 -0.2743  1.4926
11351TIP3   OH255543   0.593   5.690  12.574  0.2544 -0.1969 -0.0324
11351TIP3    H155544   0.510   5.650  12.547 -0.6257  0.7246  1.1680
11351TIP3    H255545   0.583   5.783  12.552  0.8824 -0.0484  0.3041
11352TIP3   OH255546   1.524   0.162  15.236  0.5288  0.0547 -0.4228
11352TIP3    H155547   1.462   0.102  15.195  0.1173 -0.4700  0.9228
11352TIP3    H255548   1.516   0.242  15.184 -2.6220  0.6389  0.6921
11353TIP3   OH255549   6.540   1.567  14.427  1.0625  0.2207  0.0587
11353TIP3    H155550   6.464   1.589  14.480  1.2133  2.5400 -0.5532
11353TIP3    H255551   6.512   1.492  14.374 -0.0882 -0.2157  1.2305
11354TIP3   OH255552   2.335   6.317   2.708 -0.5640 -0.5722  0.1124
11354TIP3    H155553   2.264   6.280   2.655  0.1391 -1.4523 -0.2303
11354TIP3    H255554   2.349   6.253   2.777 -2.7153  1.3762  2.5633
11355TIP3   OH255555   5.140   6.193   4.247  0.3862 -0.0379 -0.2016
11355TIP3    H155556   5.088   6.232   4.176  2.4013 -1.4165 -2.6106
11355TIP3    H255557   5.157   6.265   4.307  0.2059  1.7191 -2.1366
11356TIP3   OH255558   6.070   3.971  13.999 -1.3296  0.1096 -0.4404
11356TIP3    H155559   6.043   3.880  14.007  2.5808 -1.1619  0.7791
11356TIP3    H255560   6.050   4.010  14.085  0.4533 -0.8234  0.4639
11357TIP3   OH255561   5.718   6.661  16.467 -0.3561  0.5476  0.2869
11357TIP3    H155562   5.737   6.667  16.561  1.8106 -1.4353  0.0727
11357TIP3    H255563   5.802   6.635  16.428 -1.3733  0.6602 -2.1386
11358TIP3   OH255564   2.980   4.306   1.240 -0.1589 -0.4872  0.3749
11358TIP3    H155565   2.995   4.251   1.163 -0.3025 -1.3888  0.9699
11358TIP3    H255566   2.886   4.304   1.253 -0.3046  0.9164 -0.3048
11359TIP3   OH255567   1.799   5.643   0.928  0.0826 -0.3772  0.7024
11359TIP3    H155568   1.770   5.732   0.946 -1.1333 -0.6358  0.0978
11359TIP3    H255569   1.831   5.646   0.838  2.2975 -0.0387  1.4193
11360TIP3   OH255570   4.710   5.722   3.997 -0.5727  0.0493  0.2945
11360TIP3    H155571   4.615   5.718   4.010 -0.4338 -0.5041  1.1953
11360TIP3    H255572   4.747   5.733   4.084  0.3636 -3.6405  0.5293
11361TIP3   OH255573   2.807   2.773  15.366 -0.9219  0.5207  0.1998
11361TIP3    H155574   2.784   2.866  15.369 -2.3583  0.1694  1.4087
11361TIP3    H255575   2.801   2.744  15.457  1.0679 -0.4310  0.0857
11362TIP3   OH255576   6.288   4.989   4.336  0.3750  0.1520 -0.3741
11362TIP3    H155577   6.277   4.928   4.264  0.4730  0.7505 -0.9002
11362TIP3    H255578   6.233   4.954   4.406  0.6622 -0.6931 -0.5652
11363TIP3   OH255579   3.806   6.634   2.396  0.4441  0.2200  0.0600
11363TIP3    H155580   3.875   6.583   2.354 -0.3112 -1.7785  1.1335
11363TIP3    H255581   3.848   6.717   2.418  1.4246  0.5562 -2.6842
11364TIP3   OH255582   0.751   0.305   0.439 -0.0703  0.2723 -0.6674
11364TIP3    H155583   0.706   0.244   0.497 -0.3615  1.8102  0.8198
11364TIP3    H255584   0.827   0.334   0.489 -0.2044  1.4705 -1.1030
11365TIP3   OH255585   2.241   2.789   3.329  0.6297  0.7556 -0.0690
11365TIP3    H155586   2.333   2.812   3.329  0.4493  1.5005 -0.0407
11365TIP3    H255587   2.217   2.785   3.237  0.7546  0.2983 -0.0815
11366TIP3   OH255588   3.515   0.580   4.195 -0.2715  0.2103  0.1007
11366TIP3    H155589   3.605   0.591   4.227 -0.6688  2.5582  0.6168
11366TIP3    H255590   3.478   0.669   4.197 -2.1177 -0.4376 -1.5969
11367TIP3   OH255591   1.232   5.888   6.569 -0.3756 -0.0577 -0.3206
11367TIP3    H155592   1.205   5.834   6.495  0.2720  0.1870 -0.7478
11367TIP3    H255593   1.154   5.939   6.593 -0.1054  1.2368 -2.0395
11368TIP3   OH255594   5.750   3.996   4.286  0.5819  0.5102 -0.6758
11368TIP3    H155595   5.775   3.989   4.194 -1.3014  3.1015 -1.4890
11368TIP3    H255596   5.798   4.073   4.318  0.0554  0.5410  0.0671
11369TIP3   OH255597   3.263   3.750  11.486  0.1224  0.4251  0.0542
11369TIP3    H155598   3.202   3.757  11.559  0.5649  2.7673  0.3012
11369TIP3    H255599   3.214   3.782  11.411 -0.2906 -1.8575 -0.7182
11370TIP3   OH255600   2.870   5.514   6.418 -0.0128  0.0277 -0.3635
11370TIP3    H155601   2.871   5.574   6.493  0.1506  0.5645 -0.7842
11370TIP3    H255602   2.799   5.453   6.437  0.3717 -0.1752  0.4799
11371TIP3   OH255603   6.585   4.182  13.729  0.1008  0.0486 -0.3317
11371TIP3    H155604   6.573   4.220  13.816  1.5433  0.5616 -0.3473
11371TIP3    H255605   6.643   4.242  13.683  0.5318 -0.9614 -1.1594
11372TIP3   OH255606   0.651   0.303  14.937  0.2772  0.0950 -0.6224
11372TIP3    H155607   0.700   0.238  14.886  0.2360  0.2884 -0.9088
11372TIP3    H255608   0.625   0.256  15.016  0.4077 -0.1839 -0.7421
11373TIP3   OH255609   4.790   0.133   3.925  0.0481 -0.5034  0.1383
11373TIP3    H155610   4.752   0.070   3.986 -0.0177  0.7802  1.4664
11373TIP3    H255611   4.733   0.209   3.930  0.3643 -0.1531 -1.1220
11374TIP3   OH255612   2.877   2.762  11.475 -0.1916  0.0580 -0.0059
11374TIP3    H155613   2.827   2.825  11.424 -0.2963 -0.4427 -0.5254
11374TIP3    H255614   2.829   2.679  11.465 -0.2316 -0.0407  0.9269
11375TIP3   OH255615   0.165   4.503  16.067 -0.2835 -0.0876 -0.4722
11375TIP3    H155616   0.131   4.457  16.143  0.2721  0.6162  0.2260
11375TIP3    H255617   0.088   4.540  16.024 -0.5653 -0.1277 -0.0036
11376TIP3   OH255618   3.250   0.552   1.505 -0.3209 -0.8357 -0.0810
11376TIP3    H155619   3.191   0.501   1.560 -0.5605 -0.1915  0.2655
11376TIP3    H255620   3.316   0.489   1.475 -0.7182 -1.3829  0.1882
11377TIP3   OH255621   1.320   0.993   0.966  0.2289  0.3298 -0.5456
11377TIP3    H155622   1.400   0.945   0.983  0.4656  0.1308 -2.0746
11377TIP3    H255623   1.321   1.065   1.030  1.5583  0.2633 -0.4627
11378TIP3   OH255624   2.912   1.003   0.644 -0.3512 -0.0858 -0.0041
11378TIP3    H155625   2.902   1.078   0.704 -3.3116 -0.3351 -0.0552
11378TIP3    H255626   2.917   1.043   0.557  0.3112  0.1067  0.1109
11379TIP3   OH255627   6.229   5.061   2.570 -0.1871  0.7104 -0.4556
11379TIP3    H155628   6.258   4.972   2.551  1.7402  1.4280 -1.0902
11379TIP3    H255629   6.208   5.098   2.484 -0.1621  1.1437 -0.2774
11380TIP3   OH255630   6.420   1.880   2.852  0.0533 -0.4566 -0.0756
11380TIP3    H155631   6.393   1.868   2.943  0.9333 -3.0382 -0.0601
11380TIP3    H255632   6.493   1.942   2.857  0.1542 -0.6417  1.0043
11381TIP3   OH255633   2.887   0.485   4.856 -0.2977  0.5669  0.2032
11381TIP3    H155634   2.978   0.458   4.847 -0.1744  0.2200  2.1336
11381TIP3    H255635   2.839   0.425   4.799  0.5566 -0.0486  0.1031
11382TIP3   OH255636   5.112   0.890  13.222  0.0966  0.2088 -0.2926
11382TIP3    H155637   5.103   0.974  13.267 -0.4921 -0.5752  1.1187
11382TIP3    H255638   5.203   0.889  13.192  0.0172  1.4809 -0.6454
11383TIP3   OH255639   6.625   6.460  16.993 -0.1438  0.3880  0.0624
11383TIP3    H155640   6.653   6.369  16.993 -2.0052 -0.2541  1.5560
11383TIP3    H255641   6.543   6.461  16.943  1.1442  1.7655 -2.1795
11384TIP3   OH255642   6.070   4.495  14.978 -0.0586  0.3900  0.3104
11384TIP3    H155643   6.121   4.572  14.952 -0.5052  0.5590 -0.0909
11384TIP3    H255644   5.982   4.514  14.946 -0.5803  0.5000  1.7469
11385TIP3   OH255645   0.370   5.892   2.014  0.2796 -0.2517 -0.2067
11385TIP3    H155646   0.415   5.838   1.949  1.1803 -0.7723  0.8075
11385TIP3    H255647   0.441   5.942   2.055 -0.0510 -1.0314  1.3779
11386TIP3   OH255648   4.311   6.621   5.556 -0.0855 -0.1955  0.0491
11386TIP3    H155649   4.322   6.551   5.493 -0.0820  0.6034 -0.8641
11386TIP3    H255650   4.337   6.583   5.640 -0.5723 -1.4181 -0.3359
11387TIP3   OH255651   4.609   4.485   2.416 -0.2030  0.3441 -0.6720
11387TIP3    H155652   4.665   4.475   2.338 -0.0807  0.9161 -0.6604
11387TIP3    H255653   4.599   4.580   2.426 -1.0205  0.2524 -0.5591
11388TIP3   OH255654   1.816   2.151  13.898  0.2546 -0.0320  0.0477
11388TIP3    H155655   1.799   2.236  13.858  2.6324  0.0142 -1.0780
11388TIP3    H255656   1.898   2.122  13.858 -0.0049 -2.4525  1.0732
11389TIP3   OH255657   1.237   0.537  10.888  0.6135 -0.7642 -0.0774
11389TIP3    H155658   1.144   0.554  10.901  0.3450 -2.3851  0.2681
11389TIP3    H255659   1.281   0.596  10.949 -0.1728  0.1480 -0.3765
11390TIP3   OH255660   2.989   4.477   3.930 -0.0340  0.6764 -0.4291
11390TIP3    H155661   3.083   4.487   3.914  0.1692 -1.2252 -0.7118
11390TIP3    H255662   2.982   4.398   3.984 -1.4741  0.6208 -0.6466
11391TIP3   OH255663   1.058   5.519   5.689  0.4606 -0.3416 -0.7479
11391TIP3    H155664   0.963   5.530   5.695  0.1311 -1.0144 -3.4581
11391TIP3    H255665   1.089   5.600   5.648  1.2449  0.3091  1.0445
11392TIP3   OH255666   5.424   3.684  14.445  0.3438  0.0078 -0.3165
11392TIP3    H155667   5.416   3.678  14.540  0.7401  2.3299 -0.0965
11392TIP3    H255668   5.412   3.594  14.415 -0.8371 -0.6321  1.8385
11393TIP3   OH255669   5.581   0.507  15.093  0.5343  0.2321  0.2462
11393TIP3    H155670   5.601   0.415  15.075  0.6077  0.2210  0.3841
11393TIP3    H255671   5.539   0.506  15.179  1.2424  0.4111  0.6041
11394TIP3   OH255672   0.376   2.207  16.601 -0.2538 -0.2738  0.3663
11394TIP3    H155673   0.346   2.183  16.689  0.9159 -3.9309 -0.0668
11394TIP3    H255674   0.472   2.207  16.608 -0.1219 -1.2284 -0.9904
11395TIP3   OH255675   0.077   1.790   5.299  0.2618 -0.3198 -0.1214
11395TIP3    H155676   0.127   1.870   5.317 -1.0723  0.5772 -0.2521
11395TIP3    H255677   0.143   1.725   5.276  1.2951  1.1449 -1.5150
11396TIP3   OH255678   2.855   0.435   0.868  0.6207  0.0618  0.0352
11396TIP3    H155679   2.943   0.438   0.905  0.7422  1.0173 -0.3141
11396TIP3    H255680   2.805   0.500   0.917  0.6375  0.9399 -1.0724
11397TIP3   OH255681   3.109   4.743   5.271 -0.3301 -0.5058 -0.3078
11397TIP3    H155682   3.112   4.744   5.176  0.8516 -1.8424 -0.3172
11397TIP3    H255683   3.034   4.688   5.293 -1.4000  0.8625 -0.4314
11398TIP3   OH255684   6.482   2.213  12.879 -0.1095 -0.5837 -0.1434
11398TIP3    H155685   6.487   2.286  12.940  1.1531 -0.7328 -0.0462
11398TIP3    H255686   6.413   2.157  12.915 -1.1709  0.5879 -0.2788
11399TIP3   OH255687   4.019   2.049  13.637 -0.2073  0.2388  0.1058
11399TIP3    H155688   4.021   2.052  13.542  2.8453 -2.0021 -0.0359
11399TIP3    H255689   4.029   1.957  13.659 -1.1870  0.6477  2.6278
11400TIP3   OH255690   3.588   6.394   1.518  0.3303  0.4787 -0.2818
11400TIP3    H155691   3.521   6.446   1.474  0.1000 -0.3362 -0.9164
11400TIP3    H255692   3.544   6.312   1.541  0.9078  0.2220 -0.0536
11401TIP3   OH255693   6.641   4.070   2.552 -0.0900  0.2638 -0.5371
11401TIP3    H155694   6.626   3.975   2.546 -1.3949  0.4735 -0.9877
11401TIP3    H255695   6.706   4.088   2.485 -1.3809 -0.0465 -1.9379
11402TIP3   OH255696   5.083   1.644  11.189  0.0063  0.0440  0.3350
11402TIP3    H155697   5.020   1.616  11.123  0.5525  1.2645 -0.7519
11402TIP3    H255698   5.111   1.563  11.232  1.1468 -1.0683 -2.3054
11403TIP3   OH255699   3.401   0.636   3.796  0.2398 -0.1571  0.0027
11403TIP3    H155700   3.364   0.650   3.884  0.1974 -0.5879  0.0575
11403TIP3    H255701   3.477   0.580   3.811  0.5417  0.2025 -0.1807
11404TIP3   OH255702   3.514   5.792  14.140 -0.0349 -0.0086  0.5211
11404TIP3    H155703   3.498   5.751  14.055 -0.1268 -0.3337  0.6961
11404TIP3    H255704   3.528   5.885  14.119 -0.4069 -0.0254  0.1879
11405TIP3   OH255705   4.335   3.203  14.193 -0.1681 -0.5942  0.0783
11405TIP3    H155706   4.378   3.189  14.277  0.6161 -1.9396 -0.5165
11405TIP3    H255707   4.303   3.293  14.197 -0.5050 -0.7632  1.9645
11406TIP3   OH255708   4.053   5.911   0.797 -0.0056  0.4682 -0.7425
11406TIP3    H155709   4.127   5.967   0.775  1.6722 -0.7777  1.3757
11406TIP3    H255710   4.042   5.922   0.892 -1.2704 -0.8369 -0.7092
11407TIP3   OH255711   3.993   1.615  14.352 -0.5771  0.3829 -0.2155
11407TIP3    H155712   3.972   1.708  14.341  0.1726  0.7416  1.0978
11407TIP3    H255713   3.973   1.597  14.444  0.2517 -0.4753 -0.1927
11408TIP3   OH255714   6.313   3.056  14.973 -0.2843  0.0551 -0.0202
11408TIP3    H155715   6.388   3.115  14.968 -0.8236  0.8806  1.2356
11408TIP3    H255716   6.316   3.006  14.891  0.9677  0.8718 -0.4935
11409TIP3   OH255717   2.361   1.204  16.261  0.0297 -0.1204  0.3723
11409TIP3    H155718   2.430   1.140  16.279  0.3082 -0.1192 -0.6372
11409TIP3    H255719   2.284   1.169  16.305  0.9303  0.5120  2.6331
11410TIP3   OH255720   2.506   5.580   6.156  0.0900 -0.0406 -0.2435
11410TIP3    H155721   2.549   5.650   6.205 -0.5415  1.1733 -1.3350
11410TIP3    H255722   2.417   5.577   6.190  0.0423 -0.1426 -0.3742
11411TIP3   OH255723   2.656   6.395   6.186 -0.5100 -0.2684  0.5039
11411TIP3    H155724   2.638   6.332   6.256  2.6962 -0.4349  1.3189
11411TIP3    H255725   2.720   6.456   6.223 -0.9701  1.4827 -1.3547
11412TIP3   OH255726   1.149   2.260   5.151  0.4108  0.3009 -0.0255
11412TIP3    H155727   1.171   2.192   5.215 -1.7323 -0.2880  0.1452
11412TIP3    H255728   1.081   2.313   5.193 -0.1951  0.6365 -1.3603
11413TIP3   OH255729   0.364   3.615   0.281 -0.3929  0.2117  0.1656
11413TIP3    H155730   0.438   3.649   0.231  0.2398  0.9304  1.5430
11413TIP3    H255731   0.289   3.668   0.253 -0.4565 -0.6321 -1.3594
11414TIP3   OH255732   0.767   1.220  11.430 -0.4776 -0.3618 -0.3394
11414TIP3    H155733   0.689   1.221  11.485 -0.7967 -2.3007 -0.6659
11414TIP3    H255734   0.749   1.282  11.360 -0.1990  1.8939  1.4906
11415TIP3   OH255735   0.472   2.852   1.796 -0.0183  0.1141 -0.2678
11415TIP3    H155736   0.462   2.805   1.714  1.9501 -0.4447 -0.2188
11415TIP3    H255737   0.477   2.944   1.770  1.7965 -0.1438 -0.9141
11416TIP3   OH255738   5.733   6.427  17.205 -0.0377 -0.3501  0.3003
11416TIP3    H155739   5.727   6.384  17.120  0.7330 -0.8996  0.5125
11416TIP3    H255740   5.644   6.459  17.222 -0.0698  0.3449 -0.9954
11417TIP3   OH255741   3.318   3.830   1.191  0.3087  0.3803  0.1641
11417TIP3    H155742   3.248   3.843   1.255  0.9425  1.8889  0.5931
11417TIP3    H255743   3.288   3.756   1.137  0.0839 -1.4756  2.6355
11418TIP3   OH255744   5.697   0.246  17.101 -0.5171 -0.2446  0.1814
11418TIP3    H155745   5.671   0.198  17.023  1.3170  0.8676 -1.2382
11418TIP3    H255746   5.790   0.225  17.112  0.5377  3.1014 -0.8070
11419TIP3   OH255747   3.800   3.675   2.276  0.5016  0.4870 -0.0431
11419TIP3    H155748   3.746   3.663   2.199 -0.6842 -0.7187  0.9205
11419TIP3    H255749   3.876   3.723   2.245 -1.4522  3.0006 -1.3146
11420TIP3   OH255750   0.160   6.054  14.437 -0.1484  0.0193 -0.2959
11420TIP3    H155751   0.107   5.991  14.485 -0.4450  0.5362  0.0646
11420TIP3    H255752   0.103   6.130  14.425  0.4149  0.4751 -0.1454
11421TIP3   OH255753   3.751   4.392  16.674  0.1116  0.3438  0.3746
11421TIP3    H155754   3.786   4.345  16.598  0.9488  1.2808  0.1551
11421TIP3    H255755   3.803   4.473  16.678 -0.3170  0.5777  1.5992
11422TIP3   OH255756   1.113   5.089   1.562  0.3215  0.6397 -0.3708
11422TIP3    H155757   1.019   5.094   1.577  0.3643 -0.0711  0.2020
11422TIP3    H255758   1.143   5.021   1.622  1.3990  1.7312  0.3606
11423TIP3   OH255759   6.802   3.432   3.996 -0.3834  0.0671  0.3448
11423TIP3    H155760   6.783   3.511   3.945 -0.4982 -0.6093 -0.7032
11423TIP3    H255761   6.816   3.464   4.085 -0.6584  1.2399 -0.0057
11424TIP3   OH255762   5.929   3.881   1.559  0.4012 -0.3820 -0.4330
11424TIP3    H155763   5.900   3.797   1.522  0.3545 -0.3920 -0.3746
11424TIP3    H255764   5.895   3.947   1.498 -0.2754 -0.3555 -0.0421
11425TIP3   OH255765   6.078   4.634  11.358  0.2664  1.0367 -0.5259
11425TIP3    H155766   6.125   4.574  11.300 -0.7997 -0.6088  0.2485
11425TIP3    H255767   6.146   4.671  11.414  0.7429 -1.2762  0.5550
11426TIP3   OH255768   1.198   3.512  15.672  0.3012 -0.3661 -0.3247
11426TIP3    H155769   1.156   3.590  15.636 -0.3578 -0.1748  0.8010
11426TIP3    H255770   1.201   3.450  15.599 -4.9105 -1.6583  0.1351
11427TIP3   OH255771   6.616   1.688  12.349  0.4810  0.1127  0.8423
11427TIP3    H155772   6.577   1.618  12.296  3.6833 -1.5033  0.3590
11427TIP3    H255773   6.596   1.663  12.440  0.4160 -0.6930  0.6161
11428TIP3   OH255774   5.982   2.393  11.341  0.0635  0.4940 -0.2187
11428TIP3    H155775   6.028   2.338  11.278  1.8333  0.7860  0.7502
11428TIP3    H255776   6.036   2.389  11.420 -0.8738  1.9510  0.5442
11429TIP3   OH255777   2.259   2.414  12.379 -0.1077  0.1731  0.1426
11429TIP3    H155778   2.307   2.346  12.331 -0.1275 -0.5093  1.0584
11429TIP3    H255779   2.318   2.489  12.379  0.3819 -0.2054  0.0573
11430TIP3   OH255780   3.621   4.227  13.151  0.1133 -0.6848 -0.7869
11430TIP3    H155781   3.626   4.279  13.070 -0.6962 -0.7382 -0.8815
11430TIP3    H255782   3.699   4.252  13.200  0.7766 -0.8773 -1.7176
11431TIP3   OH255783   4.181   5.629   4.060  0.7014  0.0479  0.2459
11431TIP3    H155784   4.124   5.687   4.111 -0.9120 -1.0877 -0.1595
11431TIP3    H255785   4.120   5.580   4.004  1.9902 -1.9356  0.4835
11432TIP3   OH255786   0.695   4.009   3.665 -0.2626  0.1010 -0.6528
11432TIP3    H155787   0.734   3.928   3.632 -0.5355  0.4135 -1.7712
11432TIP3    H255788   0.727   4.077   3.606  0.8305  1.0064  0.8893
11433TIP3   OH255789   4.848   1.202  13.720  0.3414  0.4614  0.3608
11433TIP3    H155790   4.832   1.190  13.813  1.4023  0.3452  0.5384
11433TIP3    H255791   4.814   1.122  13.679 -2.0835  1.3918  0.3683
11434TIP3   OH255792   1.228   5.514  14.628  0.0484 -0.3158  0.6009
11434TIP3    H155793   1.321   5.535  14.618 -0.3012  1.4319  0.7457
11434TIP3    H255794   1.183   5.596  14.608 -1.4710 -1.1367  0.5439
11435TIP3   OH255795   0.380   4.188   5.970  0.4598  0.3810  0.0518
11435TIP3    H155796   0.391   4.224   6.058 -1.3364  0.9413  0.0824
11435TIP3    H255797   0.290   4.209   5.946  0.4749 -0.9658 -1.3814
11436TIP3   OH255798   3.162   1.191  13.441  0.4002  0.2417  0.3978
11436TIP3    H155799   3.207   1.110  13.416 -1.5471 -1.2737  1.4305
11436TIP3    H255800   3.169   1.193  13.537  0.4765  1.3390  0.3746
11437TIP3   OH255801   3.791   0.158  16.824  0.1755 -0.0024 -0.3774
11437TIP3    H155802   3.818   0.201  16.905  0.8923 -0.6591 -0.2645
11437TIP3    H255803   3.832   0.210  16.754  2.9400 -1.7494 -0.1760
11438TIP3   OH255804   6.354   2.465  12.486 -0.4339  0.4748 -0.0796
11438TIP3    H155805   6.385   2.378  12.512 -0.5886 -0.0830 -1.6403
11438TIP3    H255806   6.403   2.526  12.541 -1.6974 -0.6247  2.4252
11439TIP3   OH255807   2.391   2.863  16.769 -0.2853  0.5900 -0.0331
11439TIP3    H155808   2.454   2.871  16.698 -1.6995 -2.8768 -1.9383
11439TIP3    H255809   2.318   2.918  16.743 -0.0596  0.7415 -0.3417
11440TIP3   OH255810   6.279   4.766   1.005 -0.1089  0.2590 -0.3693
11440TIP3    H155811   6.282   4.710   1.083 -0.7902  0.4891 -0.1654
11440TIP3    H255812   6.188   4.797   1.002  0.1606  1.0429 -0.6994
11441TIP3   OH255813   0.324   3.329   2.810  0.7474 -0.2142  0.0370
11441TIP3    H155814   0.320   3.279   2.891 -0.2453  0.5660  0.4901
11441TIP3    H255815   0.401   3.385   2.819 -1.3237  2.6044  2.1466
11442TIP3   OH255816   1.184   4.206  15.129  0.1807 -0.5118  0.1945
11442TIP3    H155817   1.232   4.163  15.199  0.4552  0.2544  0.4801
11442TIP3    H255818   1.123   4.139  15.098 -0.2525 -0.7261  1.4550
11443TIP3   OH255819   1.193   1.225   6.118  0.0905  0.4959  0.0958
11443TIP3    H155820   1.163   1.213   6.028 -0.3416  1.3889  0.0997
11443TIP3    H255821   1.245   1.148   6.138 -0.5931 -0.1568 -0.6005
11444TIP3   OH255822   3.554   2.767  14.979 -0.0696 -0.2091  0.2982
11444TIP3    H155823   3.552   2.673  14.999  1.3734  0.1505  2.5548
11444TIP3    H255824   3.618   2.774  14.907 -1.9297 -1.1188 -1.5426
11445TIP3   OH255825   1.838   2.939   4.166  0.7686  0.3426  0.1124
11445TIP3    H155826   1.846   2.966   4.075  1.6375 -0.5196 -0.0765
11445TIP3    H255827   1.745   2.920   4.176  0.5722  0.9483 -0.4363
11446TIP3   OH255828   1.427   5.562  15.287  0.0802 -0.0337 -0.0985
11446TIP3    H155829   1.389   5.538  15.202 -0.5388  0.1116  0.1270
11446TIP3    H255830   1.510   5.604  15.266  1.1033 -2.1164 -0.5371
11447TIP3   OH255831   6.364   1.513  17.276 -1.2404 -0.1118  0.3232
11447TIP3    H155832   6.383   1.487  17.366 -0.2888 -0.9949 -0.1103
11447TIP3    H255833   6.376   1.608  17.276 -0.1042 -0.2275  0.8888
11448TIP3   OH255834   2.983   2.743  16.486 -0.4445  0.5307 -0.2869
11448TIP3    H155835   2.951   2.675  16.426 -1.4652  0.8087 -0.0728
11448TIP3    H255836   2.916   2.811  16.484 -0.4153  0.6222  1.0337
11449TIP3   OH255837   0.283   4.534  16.440 -0.2717  0.3644  0.3255
11449TIP3    H155838   0.346   4.592  16.398 -0.5129  0.8510  0.6353
11449TIP3    H255839   0.300   4.448  16.401 -1.2888  1.0053 -1.6738
11450TIP3   OH255840   0.661   0.059  16.032 -0.5218 -0.1310  0.2243
11450TIP3    H155841   0.649  -0.036  16.040 -1.6892 -0.0683 -0.5897
11450TIP3    H255842   0.742   0.069  15.982 -0.4415 -0.6997  0.2332
11451TIP3   OH255843   0.220   4.982  15.923 -0.1936 -0.0305  0.0313
11451TIP3    H155844   0.247   5.007  16.011 -0.2719 -0.4680  0.1797
11451TIP3    H255845   0.201   5.065  15.880  0.3499  0.2190  0.2586
11452TIP3   OH255846   3.391   6.603  13.013  0.0760  0.2877 -0.0046
11452TIP3    H155847   3.403   6.532  13.076 -0.6080  1.5887  1.6529
11452TIP3    H255848   3.366   6.559  12.932 -0.4365 -1.3620  1.0006
11453TIP3   OH255849   4.108   3.677   3.831  0.5407 -0.3006 -0.1566
11453TIP3    H155850   4.197   3.641   3.821  0.3768 -0.7627 -0.0024
11453TIP3    H255851   4.056   3.602   3.859  0.0312 -0.1094 -0.5818
11454TIP3   OH255852   3.448   4.804  14.178 -0.2514 -0.3564 -0.5044
11454TIP3    H155853   3.497   4.756  14.111 -0.9267 -0.9600 -0.5737
11454TIP3    H255854   3.406   4.875  14.129  1.8182  1.1891 -0.1993
11455TIP3   OH255855   6.438   0.789  13.229  0.1430  0.1046 -0.0730
11455TIP3    H155856   6.364   0.847  13.242 -0.6180 -1.1989  2.0340
11455TIP3    H255857   6.498   0.810  13.301  1.7423  0.9240 -1.5602
11456TIP3   OH255858   1.500   4.096  13.052 -0.3917  0.1725 -0.1452
11456TIP3    H155859   1.480   4.003  13.057  0.0870 -0.1587 -2.7924
11456TIP3    H255860   1.435   4.138  13.108 -1.4490 -1.6673  0.0821
11457TIP3   OH255861   6.637   2.079  14.449 -0.3074 -0.0689 -0.3661
11457TIP3    H155862   6.628   2.125  14.532 -0.3924 -0.6368 -0.0574
11457TIP3    H255863   6.714   2.024  14.460  1.0309  1.4701 -1.4452
11458TIP3   OH255864   0.631   6.707  12.017  0.0578 -0.0211 -0.5193
11458TIP3    H155865   0.694   6.645  11.983 -0.5942 -0.8342 -0.2729
11458TIP3    H255866   0.546   6.673  11.989 -0.3634  0.2844  0.3421
11459TIP3   OH255867   4.415   4.038  12.344  0.7495 -0.6346 -0.3055
11459TIP3    H155868   4.383   4.047  12.434  2.5049 -0.5172  0.3405
11459TIP3    H255869   4.397   3.947  12.321 -0.6428 -0.4004 -0.2445
11460TIP3   OH255870   5.913   5.250   4.423  0.3824 -0.0209 -0.5610
11460TIP3    H155871   5.918   5.158   4.450  1.4575  0.6913  1.9883
11460TIP3    H255872   5.820   5.267   4.414  0.0127 -0.8020  1.2891
11461TIP3   OH255873   6.000   3.609   0.774 -0.3179  0.1996  0.2095
11461TIP3    H155874   5.947   3.610   0.695 -0.0148  1.5822 -0.0056
11461TIP3    H255875   5.942   3.642   0.843 -0.4555 -0.5979  0.4792
11462TIP3   OH255876   1.716   3.183   4.335  0.0506 -0.6451  0.3477
11462TIP3    H155877   1.755   3.202   4.250 -1.2791  0.5686 -0.0422
11462TIP3    H255878   1.695   3.090   4.333  1.6037 -1.0030  0.0389
11463TIP3   OH255879   6.042   6.172   0.054  0.4010  0.4288 -0.5658
11463TIP3    H155880   6.044   6.120  -0.027  0.9975 -0.4590  0.0010
11463TIP3    H255881   6.060   6.109   0.123 -0.4773  1.1127  0.3114
11464TIP3   OH255882   3.025   2.703  14.013  0.1874 -0.1503 -0.2021
11464TIP3    H155883   3.001   2.622  13.968  0.3633  0.7866 -2.0802
11464TIP3    H255884   3.051   2.675  14.101  3.3553 -2.5945 -1.7263
11465TIP3   OH255885   0.214   5.683  11.509  0.1798  0.1392 -0.1001
11465TIP3    H155886   0.157   5.690  11.432  1.1574 -0.1473 -0.8731
11465TIP3    H255887   0.261   5.600  11.497  2.5813  1.5038 -0.8124
11466TIP3   OH255888   5.450   5.433   2.465 -0.5122 -0.0695  0.3715
11466TIP3    H155889   5.412   5.519   2.482 -0.9063  0.0499 -0.9855
11466TIP3    H255890   5.511   5.419   2.537  0.1247  1.6820  0.2245
11467TIP3   OH255891   4.543   0.942  14.952  0.4806  0.5899 -0.6766
11467TIP3    H155892   4.522   0.851  14.972  1.8706 -0.0083 -1.7746
11467TIP3    H255893   4.573   0.979  15.035  0.3598 -0.0861 -0.3283
11468TIP3   OH255894   2.163   4.707   0.203 -0.0630  0.6168 -0.3285
11468TIP3    H155895   2.187   4.771   0.269  1.7659 -2.3263  2.0982
11468TIP3    H255896   2.225   4.721   0.132  2.1231 -0.0895  1.3475
11469TIP3   OH255897   1.698   5.429   1.082 -0.2883  0.0264 -0.0841
11469TIP3    H155898   1.702   5.339   1.049 -1.1608 -0.0406 -0.0412
11469TIP3    H255899   1.715   5.484   1.006 -0.1617 -0.1634 -0.1935
11470TIP3   OH255900   3.942   1.576   0.850  0.0548  0.2479 -0.3974
11470TIP3    H155901   3.884   1.607   0.781  0.6834  3.2890  0.3281
11470TIP3    H255902   4.029   1.574   0.810 -0.0368 -1.4286 -0.6189
11471TIP3   OH255903   2.212   3.997  11.572  0.3590  0.3367 -0.5648
11471TIP3    H155904   2.192   3.907  11.545  0.3596 -0.5976  2.2683
11471TIP3    H255905   2.275   4.028  11.507  2.7782 -2.8417  0.0028
11472TIP3   OH255906   5.622   5.328  15.760  0.3044 -0.5527 -0.0935
11472TIP3    H155907   5.566   5.357  15.688 -2.1847 -0.5967  1.6889
11472TIP3    H255908   5.630   5.233  15.747 -0.8321 -0.6923  0.0866
11473TIP3   OH255909   6.442   4.601  12.203  0.5379 -0.2174 -0.2797
11473TIP3    H155910   6.380   4.647  12.146 -2.2164 -0.6279  2.1382
11473TIP3    H255911   6.439   4.510  12.173  0.6734 -0.0880 -0.7015
11474TIP3   OH255912   3.139   0.045  12.672 -0.0888  0.2958 -0.6532
11474TIP3    H155913   3.206   0.113  12.658 -0.4015  0.4290 -1.5963
11474TIP3    H255914   3.189  -0.035  12.688  0.2871  0.6498 -0.0152
11475TIP3   OH255915   1.741   1.654  14.640 -0.2471  0.2805  0.0169
11475TIP3    H155916   1.668   1.699  14.682  0.4402  1.0032  0.4732
11475TIP3    H255917   1.720   1.655  14.546  0.3380  2.7574 -0.1606
11476TIP3   OH255918   5.736   2.365   2.310 -0.0373 -0.3477  0.4538
11476TIP3    H155919   5.720   2.369   2.404  0.3451  2.0199  0.4610
11476TIP3    H255920   5.815   2.416   2.296 -1.4330  1.4802 -1.3979
11477TIP3   OH255921   0.449   1.466  16.239 -0.3588  0.0757  0.0557
11477TIP3    H155922   0.536   1.495  16.212 -0.2793 -0.8542 -0.7381
11477TIP3    H255923   0.390   1.533  16.207 -0.1268 -0.3155 -1.2676
11478TIP3   OH255924   2.486   1.290   2.817  0.3842 -0.0853 -0.3050
11478TIP3    H155925   2.545   1.349   2.863  1.3441 -1.2189 -0.0478
11478TIP3    H255926   2.497   1.312   2.724  1.8161 -0.8158 -0.3202
11479TIP3   OH255927   1.513   2.151  13.148  0.0367 -0.0064  0.1955
11479TIP3    H155928   1.494   2.059  13.164 -0.4605 -0.5397 -2.7777
11479TIP3    H255929   1.469   2.170  13.065  0.9516  2.6465  0.2319
11480TIP3   OH255930   0.840   5.298  15.448 -0.3757 -0.0085 -0.4233
11480TIP3    H155931   0.917   5.348  15.421  0.0418 -0.8122 -0.7400
11480TIP3    H255932   0.826   5.235  15.377  0.4118 -1.8048  0.9305
11481TIP3   OH255933   1.656   3.294   4.574  1.0925  0.1035 -0.6068
11481TIP3    H155934   1.676   3.386   4.590 -0.5222  0.4290 -0.2541
11481TIP3    H255935   1.672   3.282   4.480  2.1502  0.5094 -0.4851
11482TIP3   OH255936   2.579   4.247  17.196 -1.0387  0.2364  0.1161
11482TIP3    H155937   2.493   4.210  17.213 -0.9538 -0.6499 -1.2280
11482TIP3    H255938   2.562   4.337  17.168 -1.6378 -0.2521 -1.1690
11483TIP3   OH255939   5.697   5.705  13.456 -0.2010  0.1896  0.2421
11483TIP3    H155940   5.785   5.730  13.486  0.0309  0.0786 -0.3240
11483TIP3    H255941   5.713   5.633  13.394 -0.6633  0.3835 -0.1061
11484TIP3   OH255942   5.263   6.517  14.524 -0.3232 -0.1184 -0.1492
11484TIP3    H155943   5.328   6.560  14.580 -1.6146  0.8749  0.6669
11484TIP3    H255944   5.310   6.444  14.484  2.3233  2.6303 -2.4998
11485TIP3   OH255945   1.660   3.239   5.532  0.2664 -0.2188 -0.3319
11485TIP3    H155946   1.596   3.264   5.599  0.1427 -0.4671 -0.3563
11485TIP3    H255947   1.606   3.205   5.460  0.2976  1.3662 -1.1436
11486TIP3   OH255948   4.150   3.882  12.879  0.1909  0.0680 -0.2231
11486TIP3    H155949   4.107   3.956  12.837 -1.8022  0.0463  1.6252
11486TIP3    H255950   4.117   3.805  12.832  1.0123  0.2075 -1.0812
11487TIP3   OH255951   1.308   6.766  11.046 -0.5283  0.7671 -0.7466
11487TIP3    H155952   1.214   6.784  11.052 -0.8534 -0.7190 -1.0192
11487TIP3    H255953   1.346   6.809  11.122 -1.8437 -0.9462  0.9691
11488TIP3   OH255954   5.289   2.262   0.970  0.3204  0.2611  0.0822
11488TIP3    H155955   5.378   2.248   1.002 -0.6351 -1.7062  2.1538
11488TIP3    H255956   5.240   2.292   1.046 -0.6944  2.1716 -1.2149
11489TIP3   OH255957   6.174   2.497  15.911  0.6403 -0.1939  0.1272
11489TIP3    H155958   6.151   2.526  15.999  3.1436  1.0614  0.4490
11489TIP3    H255959   6.137   2.564  15.853  2.5128  1.2772  0.5593
11490TIP3   OH255960   0.015   5.236   1.920  0.4052  0.3719  0.1434
11490TIP3    H155961   0.065   5.274   1.848  1.2781  1.4800  1.2948
11490TIP3    H255962   0.056   5.271   1.999 -0.3330 -1.0500  1.2039
11491TIP3   OH255963   3.721   4.026   0.952  0.3834  0.0323 -0.4832
11491TIP3    H155964   3.715   4.033   0.857  1.1755 -0.8226 -0.6027
11491TIP3    H255965   3.661   3.954   0.974 -0.5962  0.9024 -0.2121
11492TIP3   OH255966   0.292   0.762  10.962 -0.2924 -0.0493  0.4709
11492TIP3    H155967   0.334   0.693  11.014  3.8110 -0.2521 -2.5896
11492TIP3    H255968   0.270   0.718  10.879 -2.2583  1.3128  0.1950
11493TIP3   OH255969   6.686   3.474  16.425  0.0749  0.3830  0.6738
11493TIP3    H155970   6.715   3.402  16.482  2.9966  0.0348 -1.0663
11493TIP3    H255971   6.616   3.436  16.372 -0.8937 -0.0472  2.1888
11494TIP3   OH255972   5.644   4.865   1.959 -0.2118 -0.0123  0.0919
11494TIP3    H155973   5.739   4.856   1.957 -0.2123 -0.0768  0.2788
11494TIP3    H255974   5.611   4.783   1.922 -0.1890  0.2309 -0.4672
11495TIP3   OH255975   1.521   2.339   0.303 -0.1471 -0.1788  0.1790
11495TIP3    H155976   1.546   2.422   0.345  1.5467 -0.8922  0.6417
11495TIP3    H255977   1.448   2.363   0.246  2.0363  2.2114 -1.8590
11496TIP3   OH255978   5.161   6.739  13.472  0.0502 -0.0792 -0.3173
11496TIP3    H155979   5.204   6.705  13.551  1.0537  0.3638 -0.6602
11496TIP3    H255980   5.187   6.831  13.468 -0.6116  0.0914 -0.7549
11497TIP3   OH255981   4.968   3.845  14.423 -0.2597  0.0934 -0.1167
11497TIP3    H155982   4.917   3.918  14.387 -1.4728 -0.6962 -0.0532
11497TIP3    H255983   5.053   3.852  14.379 -0.6849  0.9550 -0.8483
11498TIP3   OH255984   2.669   6.563  15.886  0.7745 -0.0303 -0.6045
11498TIP3    H155985   2.693   6.512  15.809  1.8408 -1.7631  0.8182
11498TIP3    H255986   2.724   6.641  15.882  0.3996  0.1926 -1.8620
11499TIP3   OH255987   4.280   3.809  12.039 -0.3234 -0.1149 -0.2874
11499TIP3    H155988   4.307   3.725  12.003 -1.0588  0.1431 -1.5430
11499TIP3    H255989   4.313   3.874  11.976 -0.9805  0.4205 -0.0969
11500TIP3   OH255990   1.001   6.050   6.584 -0.4391 -0.0071 -1.2085
11500TIP3    H155991   1.067   6.094   6.530 -0.7120  0.7319 -0.9561
11500TIP3    H255992   0.920   6.097   6.564 -0.7457 -0.4223 -0.9513
11501TIP3   OH255993   2.977   5.668  12.460  0.7305  0.0875 -0.1996
11501TIP3    H155994   2.997   5.714  12.541  0.7838 -1.8755  0.9424
11501TIP3    H255995   3.016   5.722  12.392 -0.2086  2.3329  0.9391
11502TIP3   OH255996   2.841   3.176   0.000  0.5385 -0.0752  0.1375
11502TIP3    H155997   2.917   3.163  -0.057  0.2329 -1.7215  0.0353
11502TIP3    H255998   2.807   3.087   0.013 -2.1248  0.7241 -0.8594
11503TIP3   OH255999   2.137   3.908   2.502  0.1900 -0.3268  0.1326
11503TIP3    H156000   2.197   3.868   2.440  0.8961  0.7138  0.1201
11503TIP3    H256001   2.070   3.841   2.518  0.5283 -0.9571 -0.9969
11504TIP3   OH256002   5.625   6.581   5.439 -0.1501  0.4239 -0.3539
11504TIP3    H156003   5.678   6.622   5.371 -0.8098 -0.9401 -1.7385
11504TIP3    H256004   5.540   6.566   5.398  0.2956 -3.1057 -0.2776
11505TIP3   OH256005   5.464   0.409  12.462 -0.4331  0.7971  0.3541
11505TIP3    H156006   5.527   0.452  12.405 -0.4476  0.3386 -0.0119
11505TIP3    H256007   5.515   0.381  12.538 -0.1539  0.2516 -0.0316
11506TIP3   OH256008   5.379   1.854   2.209  0.4509 -0.0555  0.1499
11506TIP3    H156009   5.412   1.938   2.242  1.6521 -0.8079  0.9180
11506TIP3    H256010   5.369   1.799   2.287 -1.6093 -0.2335 -0.1872
11507TIP3   OH256011   5.890   4.684  16.473 -0.0540 -0.1605 -0.4805
11507TIP3    H156012   5.928   4.744  16.409  0.9985 -0.1327  0.1482
11507TIP3    H256013   5.963   4.626  16.497 -0.0963  0.5733  1.5659
11508TIP3   OH256014   4.286   3.550  15.508 -0.1803  0.0456 -0.3703
11508TIP3    H156015   4.277   3.497  15.428  0.7821 -0.4823 -0.1438
11508TIP3    H256016   4.377   3.580  15.507 -0.5540  1.2208 -0.1846
11509TIP3   OH256017   0.353   4.513  15.151  0.3743 -0.3983 -0.1129
11509TIP3    H156018   0.441   4.482  15.133  0.4570 -0.4039  0.3106
11509TIP3    H256019   0.296   4.444  15.116  0.5663 -1.5999  1.8312
11510TIP3   OH256020   5.169   4.626  14.496  0.4533  0.1244  0.2300
11510TIP3    H156021   5.153   4.534  14.519 -2.1961  0.4720  0.1373
11510TIP3    H256022   5.226   4.621  14.419  1.3639 -1.3737  0.9545
11511TIP3   OH256023   4.849   4.662   4.976 -0.6260  0.0144  0.7303
11511TIP3    H156024   4.920   4.700   4.926  0.4413  0.2765  2.3878
11511TIP3    H256025   4.834   4.722   5.049 -2.1567 -0.3314  0.7521
11512TIP3   OH256026   3.165   4.962   1.629  0.2214 -0.2363  0.2113
11512TIP3    H156027   3.150   4.909   1.708  2.1757 -0.1703  0.6972
11512TIP3    H256028   3.210   4.902   1.569 -0.2137  0.0475 -0.4034
11513TIP3   OH256029   3.449   3.464  15.669 -0.0793  0.1040  0.5590
11513TIP3    H156030   3.543   3.479  15.653 -0.0191 -0.2000  0.6185
11513TIP3    H256031   3.417   3.548  15.703 -0.4305  1.1325 -2.0494
11514TIP3   OH256032   4.048   2.807   1.664  0.3375 -0.2737 -0.0254
11514TIP3    H156033   4.031   2.726   1.618 -0.8748  0.0142 -0.1147
11514TIP3    H256034   4.107   2.856   1.607 -0.1831 -0.4332 -0.7143
11515TIP3   OH256035   0.033   5.122  12.830  0.0527 -0.0860 -0.4418
11515TIP3    H156036   0.026   5.028  12.811  2.0590 -0.4872  0.5694
11515TIP3    H256037  -0.046   5.142  12.881  0.2996 -1.5811  0.5925
11516TIP3   OH256038   3.083   6.478   3.263  0.4831 -0.7924  0.0319
11516TIP3    H156039   3.014   6.542   3.279 -1.1663 -1.8575 -2.2970
11516TIP3    H256040   3.082   6.421   3.340 -0.5449 -0.1857  0.4843
11517TIP3   OH256041   5.075   0.146  10.563  0.1970 -0.1211  0.5428
11517TIP3    H156042   5.102   0.137  10.472  0.5213 -0.2625  0.6503
11517TIP3    H256043   5.002   0.207  10.561 -0.1774 -0.5698  0.1174
11518TIP3   OH256044   3.171   1.284   0.171 -0.7478 -0.1949  0.1892
11518TIP3    H156045   3.246   1.224   0.171 -1.5513 -1.2300  0.7420
11518TIP3    H256046   3.099   1.233   0.134 -0.8286  1.3030 -1.8705
11519TIP3   OH256047   5.668   1.727   3.653  0.5120 -0.7922 -0.0737
11519TIP3    H156048   5.600   1.662   3.633  0.6338 -1.0284  0.2672
11519TIP3    H256049   5.719   1.687   3.723 -0.4505  0.3982  1.3680
11520TIP3   OH256050   5.636   6.023   6.685 -0.0713  0.6945 -0.4573
11520TIP3    H156051   5.658   5.931   6.669  1.2072  1.2875 -2.4336
11520TIP3    H256052   5.541   6.026   6.678 -0.2138 -0.6071  0.4844
11521TIP3   OH256053   3.542   0.063   4.640  0.2100 -0.2819  0.3648
11521TIP3    H156054   3.502   0.130   4.697  0.8294  0.3580  0.0582
11521TIP3    H256055   3.514   0.087   4.552 -1.0481 -1.4824  0.3946
11522TIP3   OH256056   3.311   2.322  14.708  0.1408  0.2115  0.0861
11522TIP3    H156057   3.284   2.406  14.745 -0.2351 -0.7461  2.0884
11522TIP3    H256058   3.398   2.339  14.672  0.7565  1.0812  1.8829
11523TIP3   OH256059   5.016   0.205  15.590 -0.0560 -0.8399 -0.6629
11523TIP3    H156060   5.105   0.173  15.578  0.1212 -1.0253  1.0079
11523TIP3    H256061   5.019   0.258  15.669 -1.6024 -1.5423 -0.0921
11524TIP3   OH256062   5.935   4.931  15.163 -0.5717 -0.2624  0.2979
11524TIP3    H156063   5.911   4.952  15.072  2.0849 -1.3707 -0.7622
11524TIP3    H256064   5.860   4.882  15.196 -2.2384  1.4077 -0.7562
11525TIP3   OH256065   0.535   3.198   0.329  0.5437 -0.2409  0.3304
11525TIP3    H156066   0.529   3.144   0.250 -2.3340  0.4600 -0.0256
11525TIP3    H256067   0.553   3.286   0.296  1.3703 -0.2871  0.6359
11526TIP3   OH256068   3.249   3.609  13.437 -0.6658 -0.2439  0.3262
11526TIP3    H156069   3.302   3.566  13.370 -0.0484 -0.3218  0.8570
11526TIP3    H256070   3.221   3.538  13.495  1.6197  0.1758  2.0863
11527TIP3   OH256071   6.580   1.249  10.757 -0.0089 -0.3937  0.5465
11527TIP3    H156072   6.674   1.264  10.749 -0.3917  0.9615 -2.5657
11527TIP3    H256073   6.546   1.330  10.794 -0.2933  0.6154 -1.7697
11528TIP3   OH256074   1.819   0.110  11.343  0.1951 -0.2083  0.1847
11528TIP3    H156075   1.909   0.078  11.348 -0.3568 -1.9465 -0.4034
11528TIP3    H256076   1.772   0.045  11.291 -1.2763  0.9836 -0.0664
11529TIP3   OH256077   3.514   4.361  14.835 -0.1188 -0.3874 -0.3625
11529TIP3    H156078   3.587   4.334  14.779 -1.9206 -0.6835 -2.7596
11529TIP3    H256079   3.513   4.297  14.906  0.4911 -1.8856 -1.6470
11530TIP3   OH256080   4.932   5.084   4.845 -0.2894  0.0902  0.4435
11530TIP3    H156081   5.014   5.134   4.850  0.2561 -0.7986  0.6934
11530TIP3    H256082   4.866   5.149   4.822  0.7424  0.5658 -1.4045
11531TIP3   OH256083   3.862   5.367   2.271 -0.3708 -0.4388  0.0998
11531TIP3    H156084   3.785   5.348   2.218 -0.0821 -1.3098 -0.0121
11531TIP3    H256085   3.886   5.283   2.311  1.6120 -0.6040 -1.3110
11532TIP3   OH256086   0.693   4.376  11.468  0.5803 -0.3949  0.4089
11532TIP3    H156087   0.783   4.362  11.441  0.7159 -1.2344  1.2765
11532TIP3    H256088   0.640   4.341  11.395  0.9355  0.1242 -0.1106
11533TIP3   OH256089   0.909   1.404   4.749 -0.2732 -0.0441  0.6571
11533TIP3    H156090   0.818   1.427   4.764 -0.2366 -0.0747  0.9266
11533TIP3    H256091   0.912   1.309   4.757  0.0715  0.0730  2.2585
11534TIP3   OH256092   6.417   5.118  14.434  0.6516 -0.1602 -0.0192
11534TIP3    H156093   6.406   5.155  14.346 -0.7213  0.1949  0.2754
11534TIP3    H256094   6.409   5.194  14.492 -3.3610 -0.9068  0.6798
11535TIP3   OH256095   1.247   2.243   1.652  0.3953  0.4396 -0.3625
11535TIP3    H156096   1.254   2.148   1.660  0.8610  0.5337  0.3796
11535TIP3    H256097   1.172   2.256   1.594 -0.0872 -0.3690  0.0563
11536TIP3   OH256098   5.352   0.172  10.912  0.0342  0.3499 -0.2081
11536TIP3    H156099   5.347   0.134  11.000 -0.0557 -3.0820 -1.5747
11536TIP3    H256100   5.430   0.135  10.873  0.7309  2.7338 -1.2785
11537TIP3   OH256101   5.620   0.004   0.813  0.2584  0.1186  0.4058
11537TIP3    H156102   5.618  -0.083   0.773  0.2495  1.7078 -3.4348
11537TIP3    H256103   5.706   0.009   0.854  0.2400 -1.6811  0.7484
11538TIP3   OH256104   6.646   1.032   4.336  0.3173  0.1031 -0.0959
11538TIP3    H156105   6.735   1.014   4.306  0.7554  0.0897  1.1317
11538TIP3    H256106   6.650   1.018   4.431 -1.1828 -0.6388 -0.1193
11539TIP3   OH256107   2.737   2.830   2.086 -0.0694 -0.3103 -0.3152
11539TIP3    H156108   2.671   2.766   2.113 -1.7175  2.3421  2.5862
11539TIP3    H256109   2.689   2.893   2.032  0.6183  0.4379 -0.0753
11540TIP3   OH256110   3.541   4.198   1.063 -0.3437  0.4094  0.6965
11540TIP3    H156111   3.475   4.208   0.995 -1.2759 -1.5385  1.2701
11540TIP3    H256112   3.616   4.157   1.019 -0.6318 -0.0902  0.6743
11541TIP3   OH256113   1.321   0.509   2.051  0.0169  0.1308  0.4613
11541TIP3    H156114   1.370   0.555   1.983 -1.2756  1.2900  0.2642
11541TIP3    H256115   1.372   0.430   2.068  1.5912  0.9578 -0.1771
11542TIP3   OH256116   0.460   3.487   5.836 -0.0782  0.1629 -0.2383
11542TIP3    H156117   0.550   3.456   5.845 -0.0673  0.0571 -0.6824
11542TIP3    H256118   0.422   3.477   5.923  0.3091  0.1163 -0.0718
11543TIP3   OH256119   0.359   2.557  14.740 -0.6245  0.0946  0.2154
11543TIP3    H156120   0.289   2.604  14.696  0.8055  0.6391 -1.5999
11543TIP3    H256121   0.423   2.624  14.764  0.9068 -0.7087 -1.3726
11544TIP3   OH256122   0.364   6.217  15.588  0.0121 -0.1499 -0.1493
11544TIP3    H156123   0.273   6.245  15.593 -0.1034 -0.4257 -0.6163
11544TIP3    H256124   0.361   6.123  15.606  0.2854 -0.0404  0.4861
11545TIP3   OH256125   2.787   5.709   3.536  0.4219 -0.4678 -0.2450
11545TIP3    H156126   2.871   5.685   3.576  0.6627 -1.7862 -1.4827
11545TIP3    H256127   2.811   5.752   3.454 -0.1097 -0.0893 -0.2063
11546TIP3   OH256128   0.276   5.868   5.307 -0.4084 -0.4314  0.0648
11546TIP3    H156129   0.333   5.870   5.230  2.0978 -2.6843  1.6899
11546TIP3    H256130   0.220   5.792   5.294 -0.5761 -0.3163  0.1091
11547TIP3   OH256131   6.424   0.196   2.861 -0.5468  0.1472  0.0429
11547TIP3    H156132   6.434   0.131   2.792  0.9152  0.2096  0.1625
11547TIP3    H256133   6.355   0.254   2.830 -1.5501 -1.1777 -0.2693
11548TIP3   OH256134   5.347   3.391  14.634 -0.1907  0.1248  0.0443
11548TIP3    H156135   5.333   3.306  14.676 -1.5534 -0.6656 -1.8352
11548TIP3    H256136   5.340   3.372  14.540  1.5123  1.9832 -0.5213
11549TIP3   OH256137   3.897   2.470   2.857 -0.3325 -0.3488 -0.0218
11549TIP3    H156138   3.892   2.483   2.762  0.4704  0.6239  0.0579
11549TIP3    H256139   3.878   2.556   2.894 -0.1244 -0.6029  0.6878
11550TIP3   OH256140   6.078   0.042  15.819 -0.0309  0.4081  0.9708
11550TIP3    H156141   5.989   0.066  15.843 -0.2115 -0.0631  0.8030
11550TIP3    H256142   6.091   0.080  15.732 -0.8813 -1.3589 -0.0018
11551TIP3   OH256143   5.764   0.899   4.503 -0.2273 -0.1179 -0.4684
11551TIP3    H156144   5.837   0.838   4.511 -1.2871 -1.4344 -0.5712
11551TIP3    H256145   5.777   0.941   4.418  2.6806  2.7843  1.2125
11552TIP3   OH256146   4.178   4.850  11.860 -0.1367 -0.4872 -0.5312
11552TIP3    H156147   4.272   4.850  11.877 -0.0859 -2.2918 -0.6545
11552TIP3    H256148   4.140   4.798  11.930 -1.1324  0.6513 -0.1884
11553TIP3   OH256149   0.990   4.310  15.434 -0.2505  0.5178 -0.0937
11553TIP3    H156150   1.033   4.225  15.440 -1.9088 -0.4167 -0.5801
11553TIP3    H256151   1.033   4.364  15.499  1.6546 -0.3136 -0.5855
11554TIP3   OH256152   0.031   0.203   4.614 -0.3060  0.4422 -0.8115
11554TIP3    H156153   0.103   0.200   4.678 -0.3905 -1.2615 -0.7348
11554TIP3    H256154   0.067   0.158   4.537 -1.1468 -0.0615 -0.9149
11555TIP3   OH256155   0.564   4.712   2.966  0.0348  0.1121  0.2367
11555TIP3    H156156   0.525   4.691   3.050 -0.0775  0.0743  0.1759
11555TIP3    H256157   0.653   4.679   2.971  0.8354  2.2761  1.2556
11556TIP3   OH256158   4.024   6.628  14.777  0.0503  0.4170 -0.3365
11556TIP3    H156159   3.938   6.642  14.817 -0.4035 -0.0589 -1.1189
11556TIP3    H256160   4.048   6.714  14.741 -0.2563  0.4762 -0.4019
11557TIP3   OH256161   1.484   2.296   3.907  0.3524 -0.2081  0.2487
11557TIP3    H156162   1.537   2.238   3.961  2.8175  0.3474 -1.4121
11557TIP3    H256163   1.404   2.247   3.889  0.9787 -1.7603  1.5168
11558TIP3   OH256164   4.381   6.523   4.209 -0.6252 -0.0820 -0.8302
11558TIP3    H156165   4.437   6.594   4.241 -0.5442 -0.6689  0.3689
11558TIP3    H256166   4.409   6.511   4.118  0.3783  0.4382 -0.6111
11559TIP3   OH256167   1.268   0.090   1.530 -0.2936  0.1427 -0.1727
11559TIP3    H156168   1.211   0.066   1.457 -1.3296  0.1268  0.6201
11559TIP3    H256169   1.258   0.018   1.593  1.4243 -0.3879 -0.4619
11560TIP3   OH256170   5.331   4.778  11.391 -0.1541 -0.0273 -0.2476
11560TIP3    H156171   5.279   4.703  11.418  0.0866  0.2835  1.1509
11560TIP3    H256172   5.408   4.776  11.447 -0.6266  1.8323  0.5403
11561TIP3   OH256173   2.242   5.368   2.091 -0.1765  0.0536 -1.0256
11561TIP3    H156174   2.261   5.453   2.132 -1.4435  0.3354 -0.9770
11561TIP3    H256175   2.327   5.328   2.079  0.3262  0.3117  1.1355
11562TIP3   OH256176   6.513   1.685   4.798 -0.1746 -0.4642  0.0824
11562TIP3    H156177   6.589   1.627   4.788  0.7944  0.4858  1.5960
11562TIP3    H256178   6.495   1.686   4.892 -0.7436  0.9861 -0.0159
11563TIP3   OH256179   0.822   6.491  16.471  0.2534  0.0696 -0.0220
11563TIP3    H156180   0.838   6.448  16.555 -3.2906 -1.7045 -0.0783
11563TIP3    H256181   0.857   6.430  16.406  0.7172  0.2235  0.0803
11564TIP3   OH256182   3.412   4.841  12.247 -0.0807  0.3269 -0.2153
11564TIP3    H156183   3.325   4.856  12.210  0.1980  2.0281 -0.2672
11564TIP3    H256184   3.466   4.909  12.207  1.3079 -0.7677 -0.2560
11565TIP3   OH256185   5.012   1.698   0.402  0.0674  0.5770  0.8959
11565TIP3    H156186   5.014   1.765   0.470  1.6179  0.5536  0.9070
11565TIP3    H256187   5.099   1.703   0.361 -0.1414 -0.7557  0.2448
11566TIP3   OH256188   2.895   0.272  12.679  0.1126 -0.3354  0.1313
11566TIP3    H156189   2.884   0.345  12.618  0.6795 -0.8571 -0.6219
11566TIP3    H256190   2.975   0.293  12.727  0.2532 -0.4261 -0.0574
11567TIP3   OH256191   4.052   5.847  16.228 -0.1967 -0.3031  0.1370
11567TIP3    H156192   4.044   5.923  16.170  1.0567 -0.8274 -0.7555
11567TIP3    H256193   4.128   5.865  16.283  0.8476 -1.3908 -0.8841
11568TIP3   OH256194   0.251   4.069   0.773 -0.6955 -0.1537 -0.4097
11568TIP3    H156195   0.254   4.103   0.683  0.1850  0.0439 -0.3175
11568TIP3    H256196   0.343   4.057   0.797 -0.9408 -0.7962  0.2502
11569TIP3   OH256197   3.267   0.229   1.936  0.0677 -0.0642 -0.4194
11569TIP3    H156198   3.237   0.312   1.899  1.3303  0.2829 -0.6968
11569TIP3    H256199   3.230   0.228   2.025  1.2386  1.5215  0.1483
11570TIP3   OH256200   5.959   3.547  14.695  0.2291 -1.1492  0.5268
11570TIP3    H156201   5.867   3.531  14.674  0.6102 -0.3597 -2.0259
11570TIP3    H256202   5.971   3.641  14.684  0.6000 -0.5528  4.4311
11571TIP3   OH256203   1.355   1.551  15.554 -0.0290  0.6916 -0.3374
11571TIP3    H156204   1.438   1.586  15.522  0.5429  0.4819  0.8569
11571TIP3    H256205   1.377   1.506  15.635 -1.0113 -0.9965 -0.9345
11572TIP3   OH256206   5.040   2.928  13.385  0.3960 -0.1649 -0.0932
11572TIP3    H156207   5.124   2.895  13.352 -0.7342 -2.1850 -1.1423
11572TIP3    H256208   5.008   2.860  13.444  0.2574  1.3707  1.6677
11573TIP3   OH256209   4.264   4.630   1.416 -0.3617 -0.6527  0.0341
11573TIP3    H156210   4.335   4.651   1.355 -0.2700  0.7229  0.5838
11573TIP3    H256211   4.224   4.714   1.437 -0.3244 -1.0592  1.9461
11574TIP3   OH256212   5.963   1.050   2.163  0.2993 -0.1646 -0.6090
11574TIP3    H156213   5.937   1.100   2.241  0.1046 -2.0214  0.5745
11574TIP3    H256214   5.881   1.012   2.130  0.3582  0.7164 -1.8393
11575TIP3   OH256215   0.238   1.933  13.364  0.7907 -0.0800 -0.0868
11575TIP3    H156216   0.311   1.911  13.421  0.1710  3.2895  2.3594
11575TIP3    H256217   0.261   2.019  13.328 -1.4170  0.5620 -0.1137
11576TIP3   OH256218   0.359   2.891   4.186  0.0658 -0.2305 -0.1011
11576TIP3    H156219   0.330   2.965   4.239  1.3244 -0.1531  0.5267
11576TIP3    H256220   0.454   2.903   4.179 -0.0071 -0.4934 -1.9972
11577TIP3   OH256221   5.109   4.111  14.127 -0.1141 -0.4505 -0.6524
11577TIP3    H156222   5.178   4.177  14.128 -0.6204  0.1108  1.2464
11577TIP3    H256223   5.049   4.140  14.059 -0.3947  1.1647  0.2345
11578TIP3   OH256224   3.069   3.571  16.680 -0.0745  0.3018 -0.4224
11578TIP3    H156225   3.007   3.633  16.716  0.1235  0.5192 -0.4526
11578TIP3    H256226   3.105   3.526  16.757 -0.9258 -0.4638 -0.4514
11579TIP3   OH256227   3.985   1.551  12.931 -0.6023  0.4550  0.9123
11579TIP3    H156228   3.948   1.636  12.956  0.0115  0.7947  0.6732
11579TIP3    H256229   4.058   1.539  12.992  0.2440  0.7970 -0.0106
11580TIP3   OH256230   0.567   4.749   2.372 -0.3775 -0.2555  0.4563
11580TIP3    H156231   0.594   4.734   2.282 -0.1318  1.1999  0.2714
11580TIP3    H256232   0.556   4.844   2.379 -1.8828 -0.4716  1.5330
11581TIP3   OH256233   3.354   2.347   5.056 -0.1496 -0.1261  0.3610
11581TIP3    H156234   3.414   2.337   4.982  0.7729 -0.9562  1.1781
11581TIP3    H256235   3.411   2.347   5.133 -1.0668  0.9410  1.0683
11582TIP3   OH256236   4.399   3.643   3.782  0.0710 -0.3559 -1.1541
11582TIP3    H156237   4.378   3.730   3.748 -1.2958 -0.5014 -0.7260
11582TIP3    H256238   4.479   3.618   3.735  0.7261  1.2856 -0.9768
11583TIP3   OH256239   6.638   1.746   4.315  0.3849 -0.2014  0.3813
11583TIP3    H156240   6.652   1.655   4.290 -0.6932 -0.6160  1.2275
11583TIP3    H256241   6.543   1.758   4.311  0.5438  1.0519 -0.2461
11584TIP3   OH256242   4.881   4.518  11.629  0.2332 -0.2057 -0.0480
11584TIP3    H156243   4.865   4.427  11.605  1.7458 -0.5014 -0.0218
11584TIP3    H256244   4.805   4.565  11.596  0.3760 -1.1829 -1.8772
11585TIP3   OH256245   1.349   4.897   4.726  0.0133 -0.3464 -0.5136
11585TIP3    H156246   1.354   4.970   4.664 -0.9845  0.8743  0.7792
11585TIP3    H256247   1.407   4.921   4.798 -0.3138 -0.8317 -0.0764
11586TIP3   OH256248   5.616   5.888   0.943 -0.1289 -0.0479  0.3486
11586TIP3    H156249   5.554   5.816   0.940 -0.8510  0.5892 -0.5751
11586TIP3    H256250   5.570   5.962   0.903  1.7840  0.0163 -1.9903
11587TIP3   OH256251   5.824   4.016  12.102 -0.4274  0.4342  0.2718
11587TIP3    H156252   5.891   4.015  12.170 -0.4137 -1.2695  0.2898
11587TIP3    H256253   5.741   4.008  12.150 -0.3331 -2.5736  0.1095
11588TIP3   OH256254   0.948   0.662  12.472 -0.2748 -0.2283 -0.1440
11588TIP3    H156255   0.958   0.730  12.405  2.2880 -1.9944 -1.7699
11588TIP3    H256256   1.021   0.677  12.532  0.6571 -1.7139 -0.8209
11589TIP3   OH256257   0.381   4.071  14.441  0.6438  0.1205 -0.1263
11589TIP3    H156258   0.322   4.092  14.368  0.8829 -0.5930 -0.5323
11589TIP3    H256259   0.439   4.146  14.447  0.4881  0.2792 -0.5347
11590TIP3   OH256260   3.446   4.112   5.926  0.0243 -0.2300 -0.1416
11590TIP3    H156261   3.540   4.129   5.914  0.2013 -0.7716  0.4278
11590TIP3    H256262   3.437   4.095   6.020 -0.6979  0.1204 -0.1447
11591TIP3   OH256263   4.314   0.516   2.876  0.3462 -0.0800  0.1011
11591TIP3    H156264   4.267   0.457   2.935  1.0441 -0.6271  0.1355
11591TIP3    H256265   4.295   0.604   2.908  0.8241 -0.3774  1.2401
11592TIP3   OH256266   2.970   2.679  13.302  0.3536 -0.0550  0.1177
11592TIP3    H156267   3.035   2.659  13.234  1.1379 -0.7291  1.0327
11592TIP3    H256268   3.013   2.741  13.359 -0.1607  0.2147  0.2188
11593TIP3   OH256269   2.551   5.288   3.725  0.9118  0.4615 -0.0566
11593TIP3    H156270   2.642   5.272   3.748  0.4857  0.5089  1.8162
11593TIP3    H256271   2.505   5.295   3.809 -0.7799  0.6914 -0.9408
11594TIP3   OH256272   1.174   6.086  16.232  0.5413 -0.3887  0.2154
11594TIP3    H156273   1.167   6.181  16.220  5.4817  0.5990  2.7584
11594TIP3    H256274   1.199   6.053  16.145 -0.3055  0.6936 -0.4761
11595TIP3   OH256275   1.378   4.212   0.897  0.4629 -0.0745 -0.7220
11595TIP3    H156276   1.352   4.153   0.968  1.7662  0.4258  0.2060
11595TIP3    H256277   1.424   4.284   0.941 -0.2382  1.1526 -1.9250
11596TIP3   OH256278   5.361   4.488   3.534 -0.5138  0.2294  0.0798
11596TIP3    H156279   5.439   4.524   3.492 -1.2694  0.9121 -0.7391
11596TIP3    H256280   5.384   4.486   3.627 -0.0267  1.7248  0.0119
11597TIP3   OH256281   4.572   5.855  14.932  0.0302  0.1521 -0.1052
11597TIP3    H156282   4.636   5.797  14.974 -0.3562 -1.2443 -1.3621
11597TIP3    H256283   4.602   5.862  14.841 -2.1973 -1.5737 -1.0891
11598TIP3   OH256284   5.144   4.554  11.358  0.0704 -0.0135  0.1904
11598TIP3    H156285   5.163   4.516  11.272  2.4918  0.5897  0.3705
11598TIP3    H256286   5.107   4.482  11.408 -0.9800 -0.4919 -1.2137
11599TIP3   OH256287   1.904   4.594   1.019 -0.0653 -0.5523 -0.2000
11599TIP3    H156288   1.896   4.503   0.991 -0.7122 -2.1137  4.2425
11599TIP3    H256289   1.820   4.614   1.060 -0.0994  2.3002 -1.4088
11600TIP3   OH256290   6.539   1.379   2.982  0.0724  0.1971 -0.1050
11600TIP3    H156291   6.577   1.346   2.900 -0.5998  1.6996 -1.0684
11600TIP3    H256292   6.609   1.367   3.047  1.0291 -0.0013 -1.1372
11601TIP3   OH256293   3.153   1.815  15.567  0.6097  0.0798  0.2070
11601TIP3    H156294   3.206   1.870  15.625 -0.2228  0.7978  0.3057
11601TIP3    H256295   3.099   1.763  15.625  1.1721 -0.6297  0.1046
11602TIP3   OH256296   6.090   4.742   1.801  0.4972  0.4087  0.0160
11602TIP3    H156297   6.066   4.651   1.785  2.1116 -0.0210 -0.1512
11602TIP3    H256298   6.031   4.771   1.871  1.5031 -1.5115  1.7648
11603TIP3   OH256299   2.721   0.604   1.033  0.2293  0.5059 -0.0423
11603TIP3    H156300   2.718   0.677   1.095  0.3598  0.4511  0.0289
11603TIP3    H256301   2.665   0.632   0.961  1.0794  1.1041 -0.4850
11604TIP3   OH256302   0.592   3.124  15.769 -0.5962 -0.3484 -0.3586
11604TIP3    H156303   0.516   3.095  15.819 -0.3015  1.4514  1.2967
11604TIP3    H256304   0.590   3.219  15.777  1.3039 -0.2106 -1.0674
11605TIP3   OH256305   0.896   4.821   4.052  0.1181  0.2755 -0.5779
11605TIP3    H156306   0.844   4.874   4.113  0.3946 -1.9957  1.8571
11605TIP3    H256307   0.831   4.780   3.995 -0.2984  1.2960 -0.8464
11606TIP3   OH256308   4.702   1.786  15.896  0.0735  0.2248  0.4838
11606TIP3    H156309   4.716   1.872  15.858  0.2714  0.5725  1.3141
11606TIP3    H256310   4.661   1.735  15.827  0.2788  0.8818 -0.1297
11607TIP3   OH256311   4.005   0.512   5.450 -0.1615  0.4842  0.5303
11607TIP3    H156312   4.081   0.487   5.398 -0.3222 -0.2392  0.6342
11607TIP3    H256313   3.933   0.459   5.416 -0.5088  0.7958  0.7663
11608TIP3   OH256314   0.642   5.546  15.961  0.6361  0.1353 -0.4193
11608TIP3    H156315   0.693   5.471  15.930  0.2592 -0.4231  0.3033
11608TIP3    H256316   0.635   5.603  15.884  0.3316 -0.8832 -1.1670
11609TIP3   OH256317   6.543   4.345  14.420 -0.6842  0.1354  0.1211
11609TIP3    H156318   6.461   4.394  14.419 -0.1724  1.1812 -3.5353
11609TIP3    H256319   6.542   4.294  14.340  1.6534 -0.9199  0.6799
11610TIP3   OH256320   3.574   1.898   5.332  0.0655 -0.6612  0.0723
11610TIP3    H156321   3.495   1.871   5.379  1.4674 -1.1385  2.2764
11610TIP3    H256322   3.600   1.980   5.375  0.9489 -0.6736 -0.4238
11611TIP3   OH256323   5.672   2.919  12.852  0.0992 -0.0549 -0.1232
11611TIP3    H156324   5.609   2.992  12.850  1.5764  1.3398  1.1223
11611TIP3    H256325   5.741   2.946  12.791  0.9163 -0.1506  0.7392
11612TIP3   OH256326   4.827   1.364  11.879 -0.1147  0.6997 -0.1556
11612TIP3    H156327   4.912   1.381  11.920  0.4053  0.5937 -1.1418
11612TIP3    H256328   4.772   1.438  11.907 -0.2023 -0.0377  1.7574
11613TIP3   OH256329   6.599   4.147  16.637 -0.5409 -0.2240 -0.0954
11613TIP3    H156330   6.591   4.232  16.682 -1.1586 -0.3539  0.0616
11613TIP3    H256331   6.510   4.113  16.638 -0.3261 -0.7868 -0.3363
11614TIP3   OH256332   4.672   5.492   1.621 -0.4413  0.6920  0.1023
11614TIP3    H156333   4.627   5.554   1.564 -0.3648  2.2447  1.6797
11614TIP3    H256334   4.760   5.529   1.632  0.2917 -0.7501 -0.5130
11615TIP3   OH256335   4.582   5.089   4.091  0.5635  0.2837  0.1007
11615TIP3    H156336   4.510   5.065   4.149  0.0657  0.3267 -0.4949
11615TIP3    H256337   4.594   5.183   4.105  1.8211 -0.0663  1.6560
11616TIP3   OH256338   2.596   5.782   1.183  0.3766 -0.0243  0.3818
11616TIP3    H156339   2.567   5.873   1.174 -1.5629 -0.6692 -0.2031
11616TIP3    H256340   2.687   5.783   1.151 -0.4594  1.2055 -2.2400
11617TIP3   OH256341   4.221   0.576   4.132  0.1148  0.0073  0.4732
11617TIP3    H156342   4.293   0.631   4.103 -0.2065  0.1213 -0.1199
11617TIP3    H256343   4.154   0.638   4.161  0.3161 -0.1006  1.1960
11618TIP3   OH256344   5.358   1.551  13.654  0.2635 -0.3764 -0.1170
11618TIP3    H156345   5.293   1.614  13.686 -0.7554 -1.4175 -0.0727
11618TIP3    H256346   5.376   1.495  13.730 -0.1853 -1.2267 -0.6221
11619TIP3   OH256347   4.288   4.258  12.026  0.6074 -0.3093  0.1654
11619TIP3    H156348   4.228   4.317  11.980 -1.1800 -0.4159  2.1832
11619TIP3    H256349   4.283   4.175  11.978  0.6429  0.2389 -0.8011
11620TIP3   OH256350   2.600   1.538  16.130  0.5497  0.5764  0.3952
11620TIP3    H156351   2.613   1.619  16.180 -3.0277 -0.9498  4.3379
11620TIP3    H256352   2.521   1.553  16.079  0.4766 -0.0905  0.3024
11621TIP3   OH256353   5.535   0.333   2.494 -0.4464  0.1098 -0.2759
11621TIP3    H156354   5.460   0.358   2.440 -0.7987  0.8015  0.5186
11621TIP3    H256355   5.605   0.392   2.466  0.1645 -1.3050 -1.8347
11622TIP3   OH256356   1.557   3.955   4.305 -0.4373  0.3327 -0.3571
11622TIP3    H156357   1.473   3.917   4.333 -0.1531 -0.5026 -0.6016
11622TIP3    H256358   1.600   3.980   4.387 -0.2349 -0.7478 -0.1109
11623TIP3   OH256359   3.639   5.090  14.790 -0.7352 -0.3775 -0.7786
11623TIP3    H156360   3.614   5.124  14.876  1.1478  0.6940 -0.5919
11623TIP3    H256361   3.719   5.041  14.806  0.1423  0.5821 -2.0074
11624TIP3   OH256362   2.209   5.330  14.340  0.2626  0.2349  0.9210
11624TIP3    H156363   2.126   5.298  14.304  0.9011 -0.3682 -0.0367
11624TIP3    H256364   2.187   5.356  14.430 -0.9750  0.1452  0.6642
11625TIP3   OH256365   0.623   5.102   0.422  0.4405 -0.5964 -0.1982
11625TIP3    H156366   0.667   5.054   0.352  0.4525  1.0084 -1.3277
11625TIP3    H256367   0.589   5.181   0.380 -0.8976 -0.3296  1.2886
11626TIP3   OH256368   3.239   1.554  12.909 -0.3334 -0.2804 -0.2556
11626TIP3    H156369   3.289   1.488  12.956  0.0729  0.1100 -0.1289
11626TIP3    H256370   3.293   1.633  12.913 -0.7534  0.0291 -0.5093
11627TIP3   OH256371   0.696   3.387   6.222 -0.5968 -0.2872 -0.4888
11627TIP3    H156372   0.713   3.436   6.303  0.6420 -0.4985 -0.6025
11627TIP3    H256373   0.696   3.453   6.153  1.6066 -0.4354 -0.7144
11628TIP3   OH256374   6.297   3.991   2.487 -0.0477 -0.0304 -0.0318
11628TIP3    H156375   6.359   3.935   2.440 -1.1059  0.6401 -2.3482
11628TIP3    H256376   6.328   3.990   2.578  2.3760 -1.0142 -0.8003
11629TIP3   OH256377   5.080   0.105   1.114 -0.1362 -0.1260  0.5747
11629TIP3    H156378   5.028   0.082   1.037 -0.7268 -0.3722  1.0360
11629TIP3    H256379   5.019   0.152   1.170  0.8122  1.8748  0.0213
11630TIP3   OH256380   0.845   5.939  11.274 -0.1802  0.5292  0.4487
11630TIP3    H156381   0.814   6.028  11.291 -0.0144  0.7145 -0.1960
11630TIP3    H256382   0.780   5.902  11.214 -1.4999 -0.5823  2.4538
11631TIP3   OH256383   3.393   3.022  16.815  0.5316 -0.1225 -0.6214
11631TIP3    H156384   3.393   2.965  16.892 -1.0305 -0.4417 -0.8180
11631TIP3    H256385   3.478   3.007  16.773  1.5484  0.3065  1.1907
11632TIP3   OH256386   4.207   2.540  16.705 -0.5397 -0.5916 -0.3646
11632TIP3    H156387   4.264   2.510  16.776 -0.4444 -0.7941 -0.5231
11632TIP3    H256388   4.266   2.549  16.630 -0.0900  2.2621  0.2189
11633TIP3   OH256389   3.700   4.977  13.591 -0.7515 -0.1587  0.2789
11633TIP3    H156390   3.675   5.013  13.676 -1.3556 -1.0556  0.5055
11633TIP3    H256391   3.754   5.045  13.550 -0.6990  0.4025  1.2523
11634TIP3   OH256392   3.630   3.565   5.560 -0.1946  0.1649  0.0637
11634TIP3    H156393   3.555   3.590   5.615  0.1583 -0.2773  0.7596
11634TIP3    H256394   3.697   3.629   5.580 -0.4595  0.7118 -0.7497
11635TIP3   OH256395   1.878   4.109   5.291 -0.0574  0.1692 -0.4896
11635TIP3    H156396   1.939   4.155   5.349 -1.4688 -0.3791  1.5587
11635TIP3    H256397   1.897   4.016   5.306  0.1076  0.0132 -1.5842
11636TIP3   OH256398   1.298   4.528   5.408 -0.3346  0.0374 -0.4604
11636TIP3    H156399   1.305   4.622   5.392 -1.1334  0.2426  0.2994
11636TIP3    H256400   1.367   4.489   5.355  0.1422  1.0710 -0.6196
11637TIP3   OH256401   1.236   5.167   0.495 -0.5408 -0.3828  0.1206
11637TIP3    H156402   1.172   5.220   0.448  0.1472  1.7099  1.3992
11637TIP3    H256403   1.318   5.180   0.446 -0.4620 -0.6464  0.1810
11638TIP3   OH256404   4.661   5.414  14.986  0.5480  0.3837  0.3209
11638TIP3    H156405   4.706   5.475  14.926  0.2339  0.0808 -0.2317
11638TIP3    H256406   4.572   5.448  14.991  0.5189  0.2852  0.4525
11639TIP3   OH256407   4.265   1.597  15.297  0.0110 -0.0804 -0.0948
11639TIP3    H156408   4.266   1.531  15.227  1.4783  1.7788 -1.9566
11639TIP3    H256409   4.277   1.546  15.377 -0.9276 -2.2387 -1.2292
11640TIP3   OH256410   2.492   2.660  11.205  0.3962  0.0235  0.3014
11640TIP3    H156411   2.432   2.620  11.142  1.6374  0.8391 -1.4921
11640TIP3    H256412   2.470   2.753  11.204  1.3411  0.2589 -0.0341
11641TIP3   OH256413   1.034   0.426   4.440 -0.6795  0.3849  0.1255
11641TIP3    H156414   1.068   0.513   4.460  0.6678 -0.1274  0.2049
11641TIP3    H256415   1.022   0.426   4.345 -1.7352  0.9989  0.2463
11642TIP3   OH256416   0.875   1.329   3.049 -0.1976 -0.3257  0.2090
11642TIP3    H156417   0.960   1.357   3.015  0.2469  1.3051  2.4642
11642TIP3    H256418   0.858   1.246   3.005  0.9018  0.9410 -2.8993
11643TIP3   OH256419   1.897   0.919  16.875 -0.0021 -0.1497 -0.3014
11643TIP3    H156420   1.834   0.983  16.840 -0.3155 -0.2116  0.1371
11643TIP3    H256421   1.983   0.958  16.859 -0.1655  0.0928 -0.6021
11644TIP3   OH256422   1.956   3.748  13.714 -0.1481 -0.7710 -0.1031
11644TIP3    H156423   1.917   3.817  13.660  2.6536  0.2910 -0.9536
11644TIP3    H256424   2.039   3.727  13.670  1.8052 -0.5910  3.1679
11645TIP3   OH256425   1.900   2.524  11.895  0.3225 -0.2668 -0.1187
11645TIP3    H156426   1.954   2.507  11.973 -0.5370  0.6275  0.7029
11645TIP3    H256427   1.938   2.604  11.857  0.8533 -0.8024 -0.7380
11646TIP3   OH256428   2.439   4.211   3.051 -0.1080  0.0011  0.1689
11646TIP3    H156429   2.516   4.237   3.102  0.1288  1.1858 -0.7309
11646TIP3    H256430   2.393   4.293   3.034 -0.1154 -0.3319 -1.5897
11647TIP3   OH256431   0.760   2.137  15.533  0.2411 -0.4926  0.1431
11647TIP3    H156432   0.689   2.179  15.581 -0.5679 -1.4786 -0.1742
11647TIP3    H256433   0.757   2.177  15.446 -0.7919 -1.4589 -0.2889
11648TIP3   OH256434   3.162   5.924  15.377 -0.0136  0.5051 -0.1151
11648TIP3    H156435   3.117   5.839  15.376 -0.0981  0.5430  0.2723
11648TIP3    H256436   3.205   5.929  15.292 -0.1140  0.1303 -0.1910
11649TIP3   OH256437   3.819   1.514   5.162 -0.0078 -0.0733  0.1438
11649TIP3    H156438   3.777   1.511   5.248 -2.5754 -2.0626 -1.0358
11649TIP3    H256439   3.777   1.588   5.118 -0.4730 -0.5293 -0.1894
11650TIP3   OH256440   2.123   3.967  14.809  1.1993 -0.2104 -0.1668
11650TIP3    H156441   2.097   3.934  14.723 -1.0675 -1.0758  0.7589
11650TIP3    H256442   2.165   3.893  14.852  0.3810 -0.4840  0.2006
11651TIP3   OH256443   6.185   0.783   1.574 -0.2226  0.0447  0.1528
11651TIP3    H156444   6.195   0.698   1.531 -1.1423  0.2472 -0.5072
11651TIP3    H256445   6.219   0.846   1.511 -0.0786  0.2126  0.3981
11652TIP3   OH256446   0.149   3.936  11.518  0.7273 -0.0305 -0.1001
11652TIP3    H156447   0.184   3.856  11.558  1.3516  0.3782  0.1975
11652TIP3    H256448   0.058   3.941  11.549  0.2932 -1.2562 -1.1102
11653TIP3   OH256449   5.692   6.454   1.453  0.0448  0.5738  0.3106
11653TIP3    H156450   5.764   6.457   1.515  0.3290  0.1554  0.0059
11653TIP3    H256451   5.713   6.381   1.394 -0.4929  0.6107  0.0607
11654TIP3   OH256452   5.195   0.579  12.147  0.6824 -0.1055  0.5058
11654TIP3    H156453   5.181   0.589  12.241  1.1868 -1.7662  0.7994
11654TIP3    H256454   5.290   0.575  12.138  0.6351  0.0192 -0.0595
11655TIP3   OH256455   4.847   3.694   2.195 -0.4260  0.4098 -0.4936
11655TIP3    H156456   4.835   3.788   2.183  1.6044  0.8554  0.5147
11655TIP3    H256457   4.776   3.668   2.254  0.6449  1.9298  1.6025
11656TIP3   OH256458   5.521   4.346   3.220 -0.0937 -0.3653 -0.1788
11656TIP3    H156459   5.434   4.307   3.224 -0.6658  0.5810 -1.9580
11656TIP3    H256460   5.505   4.440   3.226  0.7301 -0.1511 -1.0815
11657TIP3   OH256461   5.807   5.232   2.365 -0.1795  0.0373 -0.1895
11657TIP3    H156462   5.751   5.215   2.290  1.5376 -0.7831 -1.3498
11657TIP3    H256463   5.776   5.172   2.433 -0.0174 -1.1896 -1.1748
11658TIP3   OH256464   0.764   2.089   3.703  0.3475  0.8709  0.2374
11658TIP3    H156465   0.721   2.122   3.782  0.2487  1.5559 -0.0964
11658TIP3    H256466   0.714   2.011   3.680  0.9882  0.0812  1.4063
11659TIP3   OH256467   3.472   0.559   1.236 -0.6811 -1.0551  0.3932
11659TIP3    H156468   3.483   0.471   1.272  0.5421 -2.3709 -2.7981
11659TIP3    H256469   3.493   0.618   1.308 -1.7672 -3.3279  2.7024
11660TIP3   OH256470   6.172   6.226   0.473 -0.0246  0.1901 -0.7308
11660TIP3    H156471   6.153   6.309   0.428  1.0905  0.2719 -1.0881
11660TIP3    H256472   6.088   6.182   0.479 -0.6308  1.3213 -0.5953
11661TIP3   OH256473   5.587   1.915   5.927  0.0462 -0.5975 -0.4574
11661TIP3    H156474   5.539   1.924   6.009  1.5255  0.9287  0.3053
11661TIP3    H256475   5.520   1.918   5.859 -1.0014  0.8963  0.5774
11662TIP3   OH256476   0.649   0.698  16.800 -0.1141 -0.0259  0.0506
11662TIP3    H156477   0.730   0.747  16.788 -0.0607  0.5666  2.4578
11662TIP3    H256478   0.642   0.645  16.720  2.3235  0.3272 -0.4828
11663TIP3   OH256479   4.210   2.605   4.110  0.0167  0.1220  0.2216
11663TIP3    H156480   4.177   2.552   4.182 -1.8240  0.2053 -0.4837
11663TIP3    H256481   4.137   2.663   4.088  0.9723  0.9607 -0.8873
11664TIP3   OH256482   1.034   4.109   5.308  0.1483 -0.1405 -0.4221
11664TIP3    H156483   1.030   4.201   5.283  0.8847 -0.0006 -0.0595
11664TIP3    H256484   1.001   4.061   5.232  0.6713  0.3727 -0.9776
11665TIP3   OH256485   3.839   0.878  12.623  0.2621  0.2400  0.2256
11665TIP3    H156486   3.791   0.939  12.680 -0.5838  0.8108 -1.0643
11665TIP3    H256487   3.921   0.924  12.602 -0.5100  1.1075 -0.9984
11666TIP3   OH256488   1.214   6.224   5.733 -0.4171  0.5150  0.1799
11666TIP3    H156489   1.162   6.144   5.719  1.6833 -0.8171 -0.5595
11666TIP3    H256490   1.214   6.236   5.828 -1.0992 -0.1095  0.2718
11667TIP3   OH256491   3.318   6.033  16.098  0.4511 -0.0914  0.2616
11667TIP3    H156492   3.314   5.977  16.175  0.5055  0.5506  0.7426
11667TIP3    H256493   3.328   5.973  16.024 -1.7882 -0.8555  0.5266
11668TIP3   OH256494   6.371   5.564  15.046 -0.3177  0.6055 -0.3707
11668TIP3    H156495   6.400   5.485  15.000 -2.2214  0.1050 -0.8319
11668TIP3    H256496   6.275   5.563  15.037 -0.6672  1.3266  2.2332
11669TIP3   OH256497   6.017   0.613  12.493  0.2312 -0.3441  0.1397
11669TIP3    H156498   5.954   0.685  12.494  0.7667  0.1617 -1.0267
11669TIP3    H256499   6.008   0.572  12.580  0.2367  1.3953  0.9951
11670TIP3   OH256500   1.881   1.321  14.679  1.0007  0.4121  0.1170
11670TIP3    H156501   1.921   1.295  14.597  1.9566  2.0047  0.0390
11670TIP3    H256502   1.849   1.409  14.663 -3.4172 -0.9797 -0.0964
11671TIP3   OH256503   2.532   6.112  17.009  0.1488  0.3146 -0.5729
11671TIP3    H156504   2.502   6.028  17.043 -1.8828  0.8798 -0.8057
11671TIP3    H256505   2.457   6.145  16.959  0.5164  2.6691  0.3033
11672TIP3   OH256506   2.795   4.747  13.630 -0.0496 -0.0566 -0.3279
11672TIP3    H156507   2.878   4.723  13.671 -1.4904 -0.8198  2.3987
11672TIP3    H256508   2.777   4.835  13.663 -1.1897 -0.6370  0.6372
11673TIP3   OH256509   2.829   4.360  15.058  0.0438  0.3937  0.1484
11673TIP3    H156510   2.747   4.349  15.011 -0.2137 -1.4423  0.9642
11673TIP3    H256511   2.824   4.449  15.093 -1.5999  0.3231  0.1844
11674TIP3   OH256512   3.366   1.751  12.512  0.5427  0.4108 -0.4067
11674TIP3    H156513   3.345   1.738  12.604 -0.6683 -2.1419 -0.9429
11674TIP3    H256514   3.320   1.679  12.467  0.7646  1.8038 -3.0388
11675TIP3   OH256515   4.566   3.679  13.795  0.4156  0.1239  0.0992
11675TIP3    H156516   4.502   3.645  13.733  0.8091 -1.1405  0.3489
11675TIP3    H256517   4.523   3.753  13.837  0.3094  1.3050 -1.9775
11676TIP3   OH256518   3.349   2.651   1.572 -0.6525  0.2498  0.2395
11676TIP3    H156519   3.363   2.745   1.583  0.6856  0.2518 -1.1074
11676TIP3    H256520   3.258   2.643   1.543 -0.4015  1.2582 -0.8804
11677TIP3   OH256521   0.921   4.094  15.232  0.4170  0.9115 -0.1610
11677TIP3    H156522   0.953   4.087  15.322 -0.9212  0.7814  0.3242
11677TIP3    H256523   0.941   4.184  15.207 -0.3198  1.3352  0.7240
11678TIP3   OH256524   3.037   3.562  13.661  0.4843  0.5289 -0.5977
11678TIP3    H156525   3.024   3.469  13.644 -2.3400  0.6013  0.7107
11678TIP3    H256526   3.019   3.573  13.754  2.5197  2.1655 -0.3017
11679TIP3   OH256527   3.595   6.135   2.667  0.2579 -0.4516  0.0715
11679TIP3    H156528   3.662   6.147   2.600 -0.1487 -1.8295 -0.6298
11679TIP3    H256529   3.602   6.043   2.692 -1.5493 -0.7204 -0.2417
11680TIP3   OH256530   5.283   3.058  14.510  0.7706 -0.4057  0.1233
11680TIP3    H156531   5.319   2.986  14.563 -1.3936 -1.4868  0.2212
11680TIP3    H256532   5.328   3.050  14.426  0.2097 -2.2382 -0.0442
11681TIP3   OH256533   3.883   4.732   1.243  0.1406 -0.3659  0.2917
11681TIP3    H156534   3.829   4.789   1.189 -0.0503 -0.4423  0.4024
11681TIP3    H256535   3.969   4.775   1.245 -0.5106  0.9704  1.9970
11682TIP3   OH256536   4.876   0.185  16.648 -0.5627 -0.0252 -0.7696
11682TIP3    H156537   4.857   0.091  16.650  0.4826 -0.2509  0.6688
11682TIP3    H256538   4.791   0.227  16.659 -0.8393 -0.8754  0.7183
11683TIP3   OH256539   2.567   4.645   5.311 -0.0901 -0.7192 -0.0251
11683TIP3    H156540   2.473   4.660   5.300  0.1899  0.6270 -0.7986
11683TIP3    H256541   2.597   4.717   5.367  1.4144  2.5448 -4.3964
11684TIP3   OH256542   3.207   3.084  16.299  0.2241 -0.0844  0.1249
11684TIP3    H156543   3.216   3.003  16.350 -0.6620 -0.0718  0.3179
11684TIP3    H256544   3.219   3.154  16.363  0.0114 -0.0685  0.1487
11685TIP3   OH256545   6.721   1.470  13.529 -0.2514 -0.0123 -0.7289
11685TIP3    H156546   6.711   1.510  13.616  1.1599  0.1406 -0.6102
11685TIP3    H256547   6.637   1.428  13.512 -0.6063  0.0923  0.6413
11686TIP3   OH256548   6.795   5.674   2.753 -0.5590 -0.5096 -0.0054
11686TIP3    H156549   6.803   5.755   2.804 -0.1423 -1.2254  1.1046
11686TIP3    H256550   6.755   5.701   2.671  0.7441  1.0279 -0.1827
11687TIP3   OH256551   1.188   1.957  15.740 -0.2351 -0.1651  0.8173
11687TIP3    H156552   1.224   1.878  15.700  0.9207  0.0033  1.4762
11687TIP3    H256553   1.107   1.975  15.691 -0.2318 -1.4433  0.3217
11688TIP3   OH256554   5.076   3.973  14.937 -0.1363  0.2050  0.3003
11688TIP3    H156555   5.051   3.901  14.879  0.7336  0.1797 -0.0527
11688TIP3    H256556   5.065   3.937  15.025 -0.7311 -0.0051  0.1484
11689TIP3   OH256557   4.492   5.193   0.428  0.1553  0.5792  1.1223
11689TIP3    H156558   4.555   5.265   0.416  0.2684  0.1555 -1.1446
11689TIP3    H256559   4.526   5.144   0.503  1.5714  1.3660  1.0241
11690TIP3   OH256560   6.461   4.862   1.646  0.7528 -0.3348  0.2265
11690TIP3    H156561   6.518   4.806   1.698  1.2763 -0.2518 -0.2439
11690TIP3    H256562   6.495   4.854   1.557  0.7860  0.6595  0.1393
11691TIP3   OH256563   5.804   2.094  13.929 -0.1214 -0.1481  0.1689
11691TIP3    H156564   5.716   2.058  13.918  0.1374 -0.8173  0.1960
11691TIP3    H256565   5.795   2.160  13.997 -0.4821 -0.6878  0.6580
11692TIP3   OH256566   0.025   5.213  11.325  0.0110  0.0732 -0.2150
11692TIP3    H156567   0.042   5.189  11.416 -0.1485  0.4038 -0.0999
11692TIP3    H256568   0.111   5.234  11.290  0.0250  0.3151 -0.0362
11693TIP3   OH256569   3.505   4.964   1.495  0.5915  0.5189  0.2139
11693TIP3    H156570   3.526   4.877   1.462  3.4236  1.4177 -0.6580
11693TIP3    H256571   3.481   5.014   1.417 -1.2352  0.5323  0.7316
11694TIP3   OH256572   0.188   3.406  14.705  0.1778  0.3173 -0.1200
11694TIP3    H156573   0.266   3.356  14.730  0.3751 -0.1842 -1.6199
11694TIP3    H256574   0.158   3.446  14.786 -0.1922 -2.4746  1.2314
11695TIP3   OH256575   2.906   5.085   3.523  0.1307 -0.0740  0.2217
11695TIP3    H156576   2.889   5.134   3.603 -0.1677  0.9824 -0.4639
11695TIP3    H256577   2.979   5.132   3.482 -1.6221  1.2253 -1.5674
11696TIP3   OH256578   1.847   0.706  17.038  0.4792  0.7707  0.4979
11696TIP3    H156579   1.860   0.635  16.975  4.1689  1.1539  0.6118
11696TIP3    H256580   1.865   0.786  16.987 -0.3733  1.3988  1.1520
11697TIP3   OH256581   2.713   4.569  15.380 -0.5766  0.5735 -0.0825
11697TIP3    H156582   2.661   4.507  15.429 -0.2432 -0.0857 -0.5532
11697TIP3    H256583   2.660   4.590  15.303 -0.7184  0.9407  0.1074
11698TIP3   OH256584   6.684   0.968   2.431  0.4258 -0.1169 -0.5448
11698TIP3    H156585   6.731   0.952   2.513 -1.2781  0.1903  0.5351
11698TIP3    H256586   6.645   0.884   2.409  0.1406  0.0214 -0.5609
11699TIP3   OH256587   2.375   3.749  16.844  0.3019 -0.3973 -0.1589
11699TIP3    H156588   2.281   3.732  16.836  0.0646  0.0849  1.2336
11699TIP3    H256589   2.380   3.835  16.886  1.3317 -0.9012  0.8096
11700TIP3   OH256590   4.067   2.521  16.989 -0.1251 -0.4957  0.0840
11700TIP3    H156591   4.061   2.548  16.897 -1.7978  1.7276  0.7537
11700TIP3    H256592   4.156   2.488  16.999  0.9480  1.6235 -1.7537
11701TIP3   OH256593   3.775   0.184  16.355  0.0053 -0.1940  0.6184
11701TIP3    H156594   3.791   0.279  16.348 -1.5470  0.1034  0.7970
11701TIP3    H256595   3.863   0.145  16.355  0.6411  1.1359 -0.8684
11702TIP3   OH256596   4.940   6.137  15.830  0.3271 -0.1119  0.3722
11702TIP3    H156597   4.883   6.110  15.901  2.3240 -1.4233  1.5801
11702TIP3    H256598   4.949   6.232  15.841 -0.9445 -0.0052  0.6264
11703TIP3   OH256599   1.712   4.496  12.331 -0.3441 -0.0428  0.9120
11703TIP3    H156600   1.742   4.498  12.422  1.4106 -1.7085  0.4270
11703TIP3    H256601   1.737   4.581  12.295 -0.6664  0.4647  1.8390
11704TIP3   OH256602   2.636   0.294  12.791  0.2233  0.3958 -0.3014
11704TIP3    H156603   2.720   0.290  12.746 -0.1096  1.6590 -1.0762
11704TIP3    H256604   2.651   0.251  12.875  1.6402  0.6188 -0.4300
11705TIP3   OH256605   4.166   2.073   4.575 -0.2668 -0.3726  0.3309
11705TIP3    H156606   4.172   1.978   4.584  0.9101 -0.2130  1.5152
11705TIP3    H256607   4.096   2.086   4.511 -0.0893 -2.0419 -0.2746
11706TIP3   OH256608   3.884   3.277   4.698  0.5798  0.0125  0.0903
11706TIP3    H156609   3.885   3.294   4.604 -1.2455  3.6854  0.5732
11706TIP3    H256610   3.973   3.247   4.718  1.4141  0.4432 -2.5788
11707TIP3   OH256611   3.156   5.641  12.101  0.0464 -0.1776 -0.6727
11707TIP3    H156612   3.176   5.724  12.145 -0.0450 -0.2611 -0.4706
11707TIP3    H256613   3.219   5.578  12.138 -0.0957 -0.2706 -0.5893
11708TIP3   OH256614   1.616   1.287   2.731 -0.4143 -0.2788 -0.6075
11708TIP3    H156615   1.577   1.299   2.818  1.1297  0.9488 -0.0328
11708TIP3    H256616   1.636   1.376   2.701  0.4477 -0.7737 -1.5581
11709TIP3   OH256617   1.495   5.984   0.795  0.0202  0.0427  0.0595
11709TIP3    H156618   1.467   6.069   0.828 -0.4087  0.3214 -0.9646
11709TIP3    H256619   1.481   5.924   0.868  0.9734  0.9592  1.0238
11710TIP3   OH256620   0.899   5.475   2.792  0.0812  0.2251  0.6132
11710TIP3    H156621   0.957   5.443   2.861 -0.1159  1.1941  1.2406
11710TIP3    H256622   0.957   5.526   2.735  0.0797  0.1349  0.5301
11711TIP3   OH256623   4.080   6.383  15.322 -0.2457 -0.8237 -0.1167
11711TIP3    H156624   4.096   6.432  15.241  2.2513  0.2408  0.9049
11711TIP3    H256625   4.094   6.447  15.392 -1.7621 -1.8598  1.2071
11712TIP3   OH256626   4.986   4.314  10.888  0.4405 -1.0038  0.4174
11712TIP3    H156627   4.970   4.408  10.894  2.4782 -0.4576 -1.4016
11712TIP3    H256628   4.918   4.274  10.942  0.1146  1.5444  2.0472
11713TIP3   OH256629   1.815   6.723  13.754 -0.3233 -0.2526 -0.2871
11713TIP3    H156630   1.773   6.648  13.797  0.2106 -1.6745 -2.1235
11713TIP3    H256631   1.841   6.690  13.668  2.5246  1.2012 -0.1064
11714TIP3   OH256632   5.650   4.048  13.924  0.1994 -0.0247  0.0230
11714TIP3    H156633   5.684   4.110  13.988 -1.1117 -0.3733  1.1185
11714TIP3    H256634   5.689   4.074  13.841  0.7053  1.4316  0.6904
11715TIP3   OH256635   0.283   0.311   2.974 -0.5836  0.5861  0.0773
11715TIP3    H156636   0.202   0.261   2.988 -0.8905  0.7291 -1.0975
11715TIP3    H256637   0.256   0.385   2.920  0.2212  0.9810  0.2104
11716TIP3   OH256638   0.426   5.106   3.748 -0.2447  0.7610 -1.0894
11716TIP3    H156639   0.428   5.027   3.802  0.0902  1.2811 -0.3064
11716TIP3    H256640   0.435   5.075   3.658  0.7593 -0.0299 -0.7283
11717TIP3   OH256641   4.060   2.462  12.177 -0.5459 -0.0658  0.1824
11717TIP3    H156642   4.131   2.447  12.115  0.5721 -0.5569  1.5172
11717TIP3    H256643   4.025   2.375  12.194  0.1732 -0.1590  1.3481
11718TIP3   OH256644   3.159   1.875  10.876 -0.1173 -0.3313  0.2710
11718TIP3    H156645   3.110   1.927  10.811  2.1901 -0.0746 -1.3692
11718TIP3    H256646   3.125   1.786  10.866  0.1854 -0.2957 -1.3205
11719TIP3   OH256647   3.567   4.047  12.227 -0.0706  0.1059 -0.7063
11719TIP3    H156648   3.662   4.051  12.212  0.0157 -0.1118 -0.2371
11719TIP3    H256649   3.531   4.110  12.165  0.4905  1.1446 -0.0067
11720TIP3   OH256650   5.838   3.431   1.900 -0.4501  0.0691 -0.1474
11720TIP3    H156651   5.933   3.438   1.912 -0.2123 -1.0278 -1.1562
11720TIP3    H256652   5.828   3.385   1.816 -1.8777  0.1200 -0.0290
11721TIP3   OH256653   4.744   3.511  17.291 -0.3648 -0.2301 -0.2043
11721TIP3    H156654   4.759   3.594  17.338 -0.3516 -0.4677  0.2143
11721TIP3    H256655   4.677   3.466  17.343  1.3319 -1.5604  0.9596
11722TIP3   OH256656   0.573   2.715  15.585  0.0778  0.0362 -0.5037
11722TIP3    H156657   0.583   2.805  15.554  0.7236 -0.3404 -1.4220
11722TIP3    H256658   0.479   2.699  15.581 -0.3085  1.3300  1.6386
11723TIP3   OH256659   5.903   6.728   0.002 -0.4075 -0.5442 -0.3679
11723TIP3    H156660   5.861   6.642  -0.004 -0.9258 -0.4428  1.3010
11723TIP3    H256661   5.831   6.789   0.011 -0.0974  0.2384 -2.5028
11724TIP3   OH256662   2.715   0.520  15.978  0.1622 -0.1082 -0.5097
11724TIP3    H156663   2.707   0.532  15.883  5.3362  0.0827 -1.2169
11724TIP3    H256664   2.705   0.609  16.014 -0.2464  0.0739 -1.0567
11725TIP3   OH256665   6.549   1.360   1.756 -0.6433  0.3584 -0.7672
11725TIP3    H156666   6.619   1.329   1.698 -0.5697  0.2053 -0.5977
11725TIP3    H256667   6.555   1.304   1.833 -0.0811  1.2189 -0.1702
11726TIP3   OH256668   5.539   1.374  14.971 -0.1030  0.4116 -0.0167
11726TIP3    H156669   5.520   1.322  14.894  0.7074 -1.2913  0.8818
11726TIP3    H256670   5.459   1.372  15.023  0.0268 -0.2213  0.1625
11727TIP3   OH256671   0.454   6.189   2.872 -0.2825  0.2524 -0.2547
11727TIP3    H156672   0.496   6.147   2.798 -0.0783 -1.9676  1.0242
11727TIP3    H256673   0.487   6.279   2.871  3.0415 -0.8346 -0.4597
11728TIP3   OH256674   1.698   3.630   5.480 -0.3991 -0.2526  0.2064
11728TIP3    H156675   1.617   3.681   5.477  0.4374  1.1161  0.1334
11728TIP3    H256676   1.714   3.603   5.390 -0.7348 -0.4852  0.2141
11729TIP3   OH256677   1.290   2.856   1.075  0.4092  0.0185 -0.4679
11729TIP3    H156678   1.348   2.890   1.143 -0.3209  2.9609 -1.1506
11729TIP3    H256679   1.347   2.843   0.999  0.9225 -1.6468  0.1598
11730TIP3   OH256680   1.979   0.140   3.713 -0.5977  1.0119  0.1219
11730TIP3    H156681   1.920   0.215   3.702 -0.2486  1.1480 -1.0218
11730TIP3    H256682   1.967   0.113   3.804 -2.8175  0.6830 -0.2211
11731TIP3   OH256683   6.676   5.859   3.993 -0.4593 -0.7390  0.7028
11731TIP3    H156684   6.641   5.820   4.073 -0.6487  0.9025  1.4489
11731TIP3    H256685   6.743   5.920   4.023  1.4464 -2.0874 -0.5714
11732TIP3   OH256686   6.298   5.130  17.251 -0.5232  0.3268 -0.5490
11732TIP3    H156687   6.346   5.209  17.278 -0.1928 -0.9738  3.2973
11732TIP3    H256688   6.210   5.143  17.286 -0.6975 -0.6348 -0.6180
11733TIP3   OH256689   5.886   0.686   2.296 -0.0559 -0.2738 -0.2163
11733TIP3    H156690   5.928   0.733   2.224  0.3122 -0.6879 -0.2783
11733TIP3    H256691   5.944   0.611   2.312  1.3432  1.2087  2.2957
11734TIP3   OH256692   3.227   5.883  13.606 -0.3551 -0.4411 -0.0274
11734TIP3    H156693   3.132   5.873  13.601 -0.2787 -0.8658 -0.6377
11734TIP3    H256694   3.248   5.864  13.698 -0.6490 -2.2110 -0.2888
11735TIP3   OH256695   3.083   4.297  14.911  0.5479 -0.0017 -0.8261
11735TIP3    H156696   3.123   4.216  14.943 -1.1681 -0.1611  1.1278
11735TIP3    H256697   3.018   4.319  14.977 -0.5957  1.7760 -2.4389
11736TIP3   OH256698   2.786   4.945   0.758  0.5672 -0.5341  0.7457
11736TIP3    H156699   2.745   4.878   0.812 -0.7404 -0.0512  0.4101
11736TIP3    H256700   2.757   4.925   0.669 -0.8926  1.1466  0.7796
11737TIP3   OH256701   3.545   2.562  16.717 -0.1290 -0.4617 -0.4290
11737TIP3    H156702   3.489   2.585  16.643  0.8934  0.6641 -0.8763
11737TIP3    H256703   3.634   2.571  16.685  0.3824 -2.9693  0.0573
11738TIP3   OH256704   2.636   0.076  10.865 -0.3419  0.6292 -0.5587
11738TIP3    H156705   2.579   0.135  10.914  0.5747  0.8239  0.3227
11738TIP3    H256706   2.579   0.033  10.803 -1.3096  1.3474 -0.1930
11739TIP3   OH256707   2.826   2.955   5.598  0.8513 -0.2306  0.4054
11739TIP3    H156708   2.736   2.926   5.586  1.0883 -0.3223 -1.3350
11739TIP3    H256709   2.875   2.875   5.614  0.9186 -0.4025 -0.6192
11740TIP3   OH256710   4.407   4.294  14.724  0.3980  0.0799 -0.3269
11740TIP3    H156711   4.387   4.388  14.717 -0.9737 -0.0796  0.9049
11740TIP3    H256712   4.366   4.255  14.647 -3.3865 -0.0829  1.5566
11741TIP3   OH256713   6.615   5.360  11.696  0.2433  0.6349  0.1779
11741TIP3    H156714   6.636   5.407  11.777 -0.8369  1.5530 -0.0587
11741TIP3    H256715   6.546   5.299  11.721  1.7486 -1.0219  0.5215
11742TIP3   OH256716   3.085   5.507   3.594 -0.2357 -0.3957  0.2412
11742TIP3    H156717   3.092   5.525   3.688  1.7576 -0.9729  0.2561
11742TIP3    H256718   3.139   5.575   3.553 -2.4653  0.9298 -0.6824
11743TIP3   OH256719   1.480   1.751   3.527  0.0256  0.3082  0.2201
11743TIP3    H156720   1.482   1.699   3.608  0.0126 -1.7296 -1.0041
11743TIP3    H256721   1.525   1.832   3.549  1.2500 -0.7676  1.8956
11744TIP3   OH256722   6.097   5.143   3.228 -0.1029 -0.2521  1.0849
11744TIP3    H156723   6.132   5.167   3.142 -2.4525 -0.9782 -0.1417
11744TIP3    H256724   6.171   5.157   3.288  2.3260 -1.7710 -1.3103
11745TIP3   OH256725   3.625   4.826  15.759 -0.5583 -0.2747  0.2386
11745TIP3    H156726   3.645   4.816  15.852 -0.7878  0.5530  0.3864
11745TIP3    H256727   3.705   4.797  15.714  0.5840  1.8008  0.7747
11746TIP3   OH256728   6.158   1.677   1.842  0.5101  0.3818 -0.1540
11746TIP3    H156729   6.081   1.622   1.857 -0.1887  0.2471 -3.4787
11746TIP3    H256730   6.134   1.762   1.879  0.3407 -0.6280  2.2184
11747TIP3   OH256731   5.368   5.576  16.176 -0.4389 -0.4207 -0.5036
11747TIP3    H156732   5.336   5.550  16.262  0.0512 -2.7691 -0.9789
11747TIP3    H256733   5.390   5.494  16.132  1.3112  0.8068 -2.1062
11748TIP3   OH256734   2.433   1.278   1.730 -0.7633  0.0435 -0.3700
11748TIP3    H156735   2.476   1.363   1.716  0.7170 -0.6548 -0.2256
11748TIP3    H256736   2.459   1.253   1.819  0.1617 -1.3035 -1.0005
11749TIP3   OH256737   2.840   3.726   2.437  0.4366 -1.1391  0.0929
11749TIP3    H156738   2.811   3.657   2.496  1.6129  0.0233  2.1303
11749TIP3    H256739   2.927   3.750   2.468  0.7871  0.0665 -1.6520
11750TIP3   OH256740   5.889   1.503  12.624  0.5535 -0.4941  0.1530
11750TIP3    H156741   5.838   1.549  12.691 -0.4228 -1.6224  0.2272
11750TIP3    H256742   5.857   1.537  12.541 -1.4548 -2.1931  0.1308
11751TIP3   OH256743   1.846   6.345   3.993 -0.7038 -0.5624 -0.0836
11751TIP3    H156744   1.902   6.386   3.927  0.0708 -0.2391  0.7464
11751TIP3    H256745   1.758   6.379   3.974 -0.0974  1.5036  0.5441
11752TIP3   OH256746   3.467   2.874   3.822  0.7864 -0.1775 -0.1131
11752TIP3    H156747   3.377   2.885   3.853  1.5474  2.3209  1.5239
11752TIP3    H256748   3.500   2.799   3.871 -0.5767 -1.6599 -1.3470
11753TIP3   OH256749   1.547   0.511  12.720 -0.1151  0.3829  0.3599
11753TIP3    H156750   1.460   0.506  12.678 -0.4000  0.4386  0.9333
11753TIP3    H256751   1.568   0.605  12.719 -0.6406  0.5286  1.3585
11754TIP3   OH256752   3.886   1.751  15.281 -0.2467  0.0349  0.1061
11754TIP3    H156753   3.904   1.666  15.322 -0.4516 -0.4372 -0.7549
11754TIP3    H256754   3.968   1.800  15.289  0.9320 -1.3780 -2.0886
11755TIP3   OH256755   4.254   2.369   1.316 -0.3989  0.5008 -0.1314
11755TIP3    H156756   4.347   2.394   1.320 -0.0682 -0.6218 -0.4929
11755TIP3    H256757   4.208   2.451   1.296  0.3472  1.3721  1.5316
11756TIP3   OH256758   1.606   0.120  15.940 -0.1728  0.1893 -0.0800
11756TIP3    H156759   1.694   0.150  15.918 -1.2078  3.0880 -0.6284
11756TIP3    H256760   1.560   0.119  15.856 -1.2737  0.9944  0.4890
11757TIP3   OH256761   5.542   2.278   4.963  0.0578 -0.2408  0.2734
11757TIP3    H156762   5.597   2.301   4.889 -0.9797  1.0001 -0.1384
11757TIP3    H256763   5.597   2.291   5.040  0.2560  1.3467 -0.1057
11758TIP3   OH256764   2.828   1.812  11.409  0.1304  0.1279  0.1629
11758TIP3    H156765   2.815   1.744  11.343 -2.4377 -0.3631  1.0557
11758TIP3    H256766   2.780   1.781  11.486  1.5858  1.4811  1.7122
11759TIP3   OH256767   2.753   1.523  15.758 -0.1502 -0.1599 -0.1643
11759TIP3    H156768   2.776   1.510  15.666 -1.0038  0.3356 -0.4615
11759TIP3    H256769   2.740   1.435  15.792  2.3912 -0.4852  0.1053
11760TIP3   OH256770   1.155   3.594  17.255  0.5022  0.4793  0.0964
11760TIP3    H156771   1.108   3.541  17.319  0.9338  0.0395  0.0563
11760TIP3    H256772   1.214   3.532  17.212  0.0825  0.7254 -0.8608
11761TIP3   OH256773   2.048   5.586  13.435 -0.2232  0.4953  0.4215
11761TIP3    H156774   2.113   5.610  13.370 -0.6820 -0.4091 -0.3865
11761TIP3    H256775   1.966   5.624  13.403 -0.2375  1.0367  1.0761
11762TIP3   OH256776   5.609   1.749  16.307 -0.3759 -0.2995 -0.0885
11762TIP3    H156777   5.600   1.794  16.223 -3.2879  1.3626  0.9820
11762TIP3    H256778   5.684   1.690  16.294 -1.5550 -1.2434 -4.3032
11763TIP3   OH256779   2.220   3.361  15.022  0.2309 -0.1434  0.0143
11763TIP3    H156780   2.170   3.434  14.988  0.6961  0.1819  0.0149
11763TIP3    H256781   2.285   3.342  14.953  1.7660  1.0996  1.0480
11764TIP3   OH256782   3.244   6.035   0.889 -0.2592  0.2600  0.4500
11764TIP3    H156783   3.261   6.103   0.955 -0.0103 -0.8777  1.6113
11764TIP3    H256784   3.299   5.961   0.917  1.7621  0.5236 -2.4163
11765TIP3   OH256785   6.799   1.993   5.078  0.0758 -0.2089 -0.1123
11765TIP3    H156786   6.747   1.953   5.009  0.2703  1.1947 -1.1271
11765TIP3    H256787   6.880   2.021   5.034  1.2764 -1.4265  1.2132
11766TIP3   OH256788   5.716   1.623  11.391 -0.1438  0.0654  0.0280
11766TIP3    H156789   5.774   1.594  11.320 -1.2334  0.1062 -0.9122
11766TIP3    H256790   5.774   1.666  11.453  0.8086  0.2966 -0.9827
11767TIP3   OH256791   5.129   2.210   3.664  0.0104  0.1928  0.6930
11767TIP3    H156792   5.127   2.160   3.582  1.4878 -0.3795  0.9634
11767TIP3    H256793   5.042   2.249   3.671 -0.5449 -0.7580 -0.5210
11768TIP3   OH256794   0.501   5.345   5.609  0.0355 -0.0391  0.0462
11768TIP3    H156795   0.416   5.384   5.629 -0.2513 -0.2291 -0.8025
11768TIP3    H256796   0.520   5.290   5.685 -0.7624 -0.2707  0.0836
11769TIP3   OH256797   5.001   5.808  15.972  0.2155 -0.4829  0.2823
11769TIP3    H156798   4.926   5.771  15.926 -0.7461 -0.0115  1.4187
11769TIP3    H256799   4.968   5.828  16.059  1.7242 -0.4300  0.8650
11770TIP3   OH256800   6.635   4.995  16.106  0.7755 -0.3730 -0.3978
11770TIP3    H156801   6.543   4.967  16.104 -0.4542  3.1854 -0.9138
11770TIP3    H256802   6.652   5.023  16.016  1.3679  1.7007  0.3204
11771TIP3   OH256803   1.231   1.191  13.045 -0.0534 -0.3106  0.2954
11771TIP3    H156804   1.306   1.226  12.997  0.5287 -0.4947  1.0568
11771TIP3    H256805   1.175   1.152  12.977 -0.6625  1.9435 -0.5814
11772TIP3   OH256806   1.180   5.043  17.254  0.4492  0.1985  0.0368
11772TIP3    H156807   1.144   5.121  17.213 -1.3325 -0.9199 -0.6413
11772TIP3    H256808   1.125   5.028  17.330  1.0236 -0.1766  0.3867
11773TIP3   OH256809   4.969   2.124  14.445 -0.1369  0.2873  0.0943
11773TIP3    H156810   4.931   2.118  14.357 -0.9406 -1.0192  0.5082
11773TIP3    H256811   4.912   2.070  14.499  0.3903  1.0232  1.4229
11774TIP3   OH256812   5.473   1.543  11.506 -0.3420 -1.1820  0.3544
11774TIP3    H156813   5.524   1.564  11.585  0.2680  0.6401 -0.4681
11774TIP3    H256814   5.528   1.573  11.434 -1.9087 -0.6005 -0.6407
11775TIP3   OH256815   3.158   6.551  13.959 -0.0417 -0.2862  0.5179
11775TIP3    H156816   3.103   6.611  13.908  0.1831  0.2804  0.9273
11775TIP3    H256817   3.125   6.464  13.938 -0.0085 -0.0586 -0.5262
11776TIP3   OH256818   2.723   3.651  13.769  0.1256  0.0709  0.4263
11776TIP3    H156819   2.695   3.635  13.860  1.9167 -0.0720  0.9896
11776TIP3    H256820   2.718   3.566  13.727  0.4245 -0.1013  0.7336
11777TIP3   OH256821   0.057   1.136   4.040 -0.6579  0.0829  0.3621
11777TIP3    H156822   0.069   1.181   4.124 -0.4725  0.3110  0.2140
11777TIP3    H256823   0.095   1.050   4.054  2.5179  1.2126 -0.5065
11778TIP3   OH256824   4.818   6.741  15.782 -0.0701 -0.5768  0.1205
11778TIP3    H156825   4.795   6.680  15.853 -0.9319 -0.6984 -0.2464
11778TIP3    H256826   4.877   6.691  15.726 -0.6997 -1.0599 -0.1289
11779TIP3   OH256827   4.923   1.050  14.780  0.3333 -0.5467  0.0887
11779TIP3    H156828   4.940   1.144  14.781  0.2832 -0.5283 -0.3423
11779TIP3    H256829   4.911   1.026  14.872 -3.0642  0.4784  0.0341
11780TIP3   OH256830   6.577   0.553   0.942  0.2926 -0.0147  0.4261
11780TIP3    H156831   6.484   0.570   0.929  0.3309  0.7489  1.0673
11780TIP3    H256832   6.621   0.618   0.887  0.4954 -1.8700 -1.7677
11781TIP3   OH256833   3.387   0.658  16.071 -0.1405  0.0521  0.2447
11781TIP3    H156834   3.377   0.744  16.113 -0.3764  0.4210 -0.5427
11781TIP3    H256835   3.381   0.595  16.143 -0.5636  0.6672  0.7588
11782TIP3   OH256836   5.530   1.536  12.683 -0.4110  0.1640 -0.0826
11782TIP3    H156837   5.546   1.511  12.592  1.9409 -1.6802  0.7048
11782TIP3    H256838   5.561   1.626  12.690 -0.1723  0.1591 -1.0035
11783TIP3   OH256839   2.645   6.523  13.278 -0.3298  0.2932  0.0764
11783TIP3    H156840   2.632   6.433  13.307 -0.7186  0.5714  0.7851
11783TIP3    H256841   2.609   6.525  13.189 -1.5470  0.0721  0.5477
11784TIP3   OH256842   3.477   1.844   5.825  0.1079  0.0118  0.3442
11784TIP3    H156843   3.499   1.847   5.918  0.0686 -0.4862  0.3690
11784TIP3    H256844   3.423   1.766   5.815  1.5353 -0.9132 -0.4142
11785TIP3   OH256845   5.283   0.833   0.654 -0.4506  0.4591  0.3017
11785TIP3    H156846   5.262   0.765   0.590 -0.0049  1.5654 -1.0525
11785TIP3    H256847   5.285   0.914   0.604 -0.6890  1.4552  1.8367
11786TIP3   OH256848   3.529   1.056  12.739 -0.5196 -0.6579 -0.1290
11786TIP3    H156849   3.488   1.133  12.700  2.4452  1.1905  0.0778
11786TIP3    H256850   3.514   0.986  12.676 -1.0207  0.7715 -1.6596
11787TIP3   OH256851   3.850   6.344   6.256 -0.0417 -0.1356 -0.0885
11787TIP3    H156852   3.932   6.336   6.208 -0.3544 -0.3637 -0.5988
11787TIP3    H256853   3.876   6.365   6.346  0.5379  1.0546 -0.5062
11788TIP3   OH256854   1.914   5.337  10.982  0.4604  0.2882 -0.3918
11788TIP3    H156855   1.961   5.410  11.022  0.0175 -0.6500  1.9496
11788TIP3    H256856   1.982   5.273  10.962  0.5844  0.4033 -0.3398
11789TIP3   OH256857   1.569   2.350   3.544 -0.0557  0.0392 -0.5158
11789TIP3    H156858   1.645   2.327   3.490 -0.1585  0.6401 -0.9268
11789TIP3    H256859   1.597   2.332   3.633  0.4657 -0.0357 -0.6897
11790TIP3   OH256860   1.228   5.510  13.032  0.0237 -0.0459  0.0479
11790TIP3    H156861   1.288   5.525  12.959  0.2348  1.4483  0.5105
11790TIP3    H256862   1.279   5.460  13.096 -0.3296 -1.8663 -1.0113
11791TIP3   OH256863   2.131   0.491  16.184  0.3164 -0.6276 -0.1292
11791TIP3    H156864   2.073   0.418  16.160 -1.7392  0.8177  0.1412
11791TIP3    H256865   2.206   0.483  16.125 -0.6020 -2.0549 -1.1683
11792TIP3   OH256866   0.967   2.773   3.763 -0.2329  0.1225  0.0357
11792TIP3    H156867   0.891   2.829   3.745 -0.7654 -0.6558 -0.1773
11792TIP3    H256868   1.036   2.834   3.789 -0.1046  1.1210 -2.3692
11793TIP3   OH256869   2.619   1.353   1.154 -0.4450  0.4449  0.1339
11793TIP3    H156870   2.610   1.416   1.225  0.7660 -0.4846  1.1749
11793TIP3    H256871   2.642   1.271   1.198  1.9424  0.2040 -1.3859
11794TIP3   OH256872   2.670   5.083   0.260  0.1363 -0.1459 -0.5389
11794TIP3    H156873   2.726   5.011   0.232  0.8149 -0.1218  0.6736
11794TIP3    H256874   2.583   5.044   0.266  0.6168 -1.1173  0.8295
11795TIP3   OH256875   0.884   1.663   2.914  0.0313  0.3140 -0.0971
11795TIP3    H156876   0.807   1.607   2.926  0.3709  0.1807  1.7031
11795TIP3    H256877   0.848   1.752   2.912 -0.2190  0.2267  0.3147
11796TIP3   OH256878   1.993   5.871  12.265  0.0831  0.5716 -0.8013
11796TIP3    H156879   2.052   5.801  12.239 -1.4404 -1.2079  0.2991
11796TIP3    H256880   2.015   5.888  12.357 -1.2686 -0.3546 -0.2732
11797TIP3   OH256881   2.889   1.425   1.243 -0.2443 -0.1384 -0.1707
11797TIP3    H156882   2.895   1.388   1.331 -0.6997 -0.4053 -0.2489
11797TIP3    H256883   2.800   1.405   1.214  0.2282 -0.9639 -1.0996
11798TIP3   OH256884   5.166   2.627  11.937 -0.2270 -0.4964  0.1701
11798TIP3    H156885   5.112   2.666  12.006 -0.0898 -1.1749  0.6654
11798TIP3    H256886   5.157   2.533  11.950 -1.2279 -0.6701 -1.5216
11799TIP3   OH256887   2.724   0.658  13.412 -0.1269 -0.0787 -0.0395
11799TIP3    H156888   2.783   0.614  13.474  0.5911  1.2770  0.2866
11799TIP3    H256889   2.717   0.748  13.445 -1.1056  0.2165 -0.9814
11800TIP3   OH256890   1.879   0.471  16.877  0.2825 -0.4142  0.3142
11800TIP3    H156891   1.974   0.466  16.890  0.2083 -0.1409  1.0071
11800TIP3    H256892   1.849   0.380  16.882  0.4164 -0.4315  0.8452
11801TIP3   OH256893   6.025   2.608  15.463 -0.0662  0.4275 -0.0611
11801TIP3    H156894   5.932   2.584  15.467 -0.5488  2.2532  0.7774
11801TIP3    H256895   6.053   2.582  15.375 -0.4245 -3.2135  0.7648
11802TIP3   OH256896   3.425   1.171  13.289 -0.2041 -0.0849 -0.1337
11802TIP3    H156897   3.363   1.234  13.326  0.6579  1.1309 -0.7212
11802TIP3    H256898   3.413   1.177  13.195  0.3351 -0.3254 -0.2217
11803TIP3   OH256899   0.002   2.997  12.686 -0.5097 -0.2359 -0.2244
11803TIP3    H156900  -0.033   3.026  12.771  0.4711  0.8383 -0.1595
11803TIP3    H256901   0.048   2.916  12.705 -0.2252  0.0420  0.3023
11804TIP3   OH256902   4.631   0.596  11.848  0.8025  0.3493  0.2287
11804TIP3    H156903   4.560   0.644  11.891 -0.9150 -0.0842 -1.9768
11804TIP3    H256904   4.692   0.664  11.820 -0.8120  1.1758 -1.4659
11805TIP3   OH256905   2.519   6.153  15.824 -0.0487  0.1486 -0.4174
11805TIP3    H156906   2.533   6.102  15.744 -0.4261  1.2357 -1.2084
11805TIP3    H256907   2.598   6.207  15.832  0.7500 -1.1335  0.9042
11806TIP3   OH256908   1.138   5.189   0.746  0.6428  0.6407 -0.0448
11806TIP3    H156909   1.048   5.177   0.716  0.1275 -0.2046  1.7610
11806TIP3    H256910   1.190   5.187   0.665 -0.6912 -1.4563 -0.9402
11807TIP3   OH256911   6.629   2.051  10.758  0.3209  1.1823 -0.0056
11807TIP3    H156912   6.622   1.972  10.811 -1.2966  2.7244  2.2815
11807TIP3    H256913   6.717   2.084  10.773  0.1902  1.0855  1.0099
11808TIP3   OH256914   4.321   1.138   0.633  0.1858 -0.4170  0.3226
11808TIP3    H156915   4.235   1.155   0.672 -0.2965  0.5959 -1.0963
11808TIP3    H256916   4.383   1.168   0.700 -0.5470 -0.8692  1.2395
11809TIP3   OH256917   4.996   5.158   1.382 -0.9733 -0.4563 -0.3388
11809TIP3    H156918   5.009   5.230   1.321  0.6108 -1.1203 -0.8524
11809TIP3    H256919   5.009   5.079   1.329 -0.7603 -1.0743  0.6037
11810TIP3   OH256920   6.485   1.717  13.771 -0.1421 -0.0659  0.8306
11810TIP3    H156921   6.416   1.700  13.835  1.0286 -0.3242  2.0956
11810TIP3    H256922   6.497   1.812  13.772  0.8885 -0.1804  2.1685
11811TIP3   OH256923   0.338   1.926  15.130 -0.6709 -0.0241  1.4450
11811TIP3    H156924   0.293   1.857  15.081  0.1101  1.2221 -1.2320
11811TIP3    H256925   0.271   1.964  15.186 -2.2142 -0.2343 -0.1599
11812TIP3   OH256926   0.913   4.941  13.789  0.2374  0.3742  0.2288
11812TIP3    H156927   0.932   4.918  13.698  1.7575  0.7515  0.4231
11812TIP3    H256928   0.947   4.868  13.840 -2.1576 -0.6566  0.4437
11813TIP3   OH256929   4.023   6.648   3.604 -0.5263  0.8463  0.2962
11813TIP3    H156930   4.050   6.561   3.575  0.7549  1.1503  0.5187
11813TIP3    H256931   4.026   6.701   3.524 -0.6953  0.8354  0.2813
11814TIP3   OH256932   6.711   0.608   1.574 -0.1252  0.0716  0.0755
11814TIP3    H156933   6.646   0.677   1.585  0.0527  0.0642  1.2615
11814TIP3    H256934   6.702   0.554   1.653  1.3471  0.0985  0.2777
11815TIP3   OH256935   0.308   1.104   5.770 -0.0704  0.1610  0.8732
11815TIP3    H156936   0.221   1.084   5.736  0.3727 -0.5691  0.1305
11815TIP3    H256937   0.301   1.085   5.864 -0.3995 -1.0716  0.6271
11816TIP3   OH256938   2.026   1.548  14.949  0.5996 -0.0920 -0.2571
11816TIP3    H156939   2.038   1.453  14.944  0.3845 -0.3060  2.0353
11816TIP3    H256940   2.066   1.573  15.033  1.0370  1.9238 -0.9998
11817TIP3   OH256941   0.040   4.854   0.788 -0.1324 -0.1295  0.0868
11817TIP3    H156942  -0.043   4.864   0.741  0.3132  0.5106 -0.5919
11817TIP3    H256943   0.106   4.846   0.719  0.0995 -3.7440  0.5617
11818TIP3   OH256944   3.098   0.599   0.671  0.2221 -0.1669 -0.7849
11818TIP3    H156945   3.040   0.560   0.606 -0.2465 -0.0523 -0.4363
11818TIP3    H256946   3.043   0.660   0.719  0.4108 -0.7126  0.1384
11819TIP3   OH256947   0.641   4.612   0.283  0.1412  0.4651  0.3129
11819TIP3    H156948   0.690   4.549   0.336 -0.6296  0.4950  1.0612
11819TIP3    H256949   0.677   4.600   0.194  1.1973  0.1814  0.7592
11820TIP3   OH256950   6.481   0.659  13.642  0.3908  0.2311 -0.4619
11820TIP3    H156951   6.456   0.751  13.658  1.1499  0.1078  1.8727
11820TIP3    H256952   6.419   0.609  13.696  0.5539 -0.5699 -1.0205
11821TIP3   OH256953   2.301   1.692   3.680  0.2821 -0.9252 -0.3338
11821TIP3    H156954   2.357   1.627   3.637  1.8583  0.4416 -0.4457
11821TIP3    H256955   2.358   1.733   3.745 -1.0378 -0.4869  0.5896
11822TIP3   OH256956   0.914   1.200  15.053  0.2890  0.5850  0.4653
11822TIP3    H156957   0.857   1.153  14.992  2.3428 -0.0463 -1.0580
11822TIP3    H256958   0.865   1.279  15.075 -1.4911 -0.2936 -0.1395
11823TIP3   OH256959   5.698   4.342  15.081 -0.0546 -0.3576 -0.5122
11823TIP3    H156960   5.613   4.340  15.126 -0.0254 -1.0010 -0.4734
11823TIP3    H256961   5.690   4.413  15.018 -0.6255 -0.4160 -0.5109
11824TIP3   OH256962   1.188   1.959  14.097  0.0990 -0.1284 -0.0443
11824TIP3    H156963   1.192   1.871  14.135  1.3803 -1.1136 -2.2112
11824TIP3    H256964   1.270   2.001  14.125  0.9304 -0.7702 -1.3718
11825TIP3   OH256965   2.436   3.144   1.258  0.1532 -0.0445  0.0680
11825TIP3    H156966   2.451   3.115   1.348 -0.7505  0.3713  0.3682
11825TIP3    H256967   2.351   3.189   1.262  0.3885  0.4975 -0.8712
11826TIP3   OH256968   1.436   4.974   1.272  0.3807 -0.1618  0.4910
11826TIP3    H156969   1.427   4.951   1.364  0.4371 -0.0240  0.5315
11826TIP3    H256970   1.468   5.064   1.273 -1.2365  0.4528  0.3328
11827TIP3   OH256971   3.038   0.033   4.829 -0.1458  0.2283 -0.1671
11827TIP3    H156972   3.050   0.127   4.840  1.1312  0.2047 -1.1167
11827TIP3    H256973   2.945   0.022   4.812 -0.3185  1.3038  0.0364
11828TIP3   OH256974   0.387   5.753   2.246 -0.3578  0.4328  0.1734
11828TIP3    H156975   0.426   5.805   2.175 -1.2210 -0.0962 -0.7090
11828TIP3    H256976   0.441   5.674   2.249  2.5274  2.2387  3.1379
11829TIP3   OH256977   3.209   5.862  12.596 -0.2703 -0.3103  0.4953
11829TIP3    H156978   3.284   5.807  12.574 -0.3293 -0.9789  1.8754
11829TIP3    H256979   3.247   5.939  12.639 -0.3293 -0.2808  0.4957
11830TIP3   OH256980   6.590   2.202  14.891 -0.2928 -0.1993 -0.1565
11830TIP3    H156981   6.583   2.189  14.796 -0.4990  1.3794 -0.3875
11830TIP3    H256982   6.591   2.297  14.902  1.0111 -0.3524  1.3490
11831TIP3   OH256983   2.437   3.751   1.161 -0.0606  0.0039  0.1643
11831TIP3    H156984   2.411   3.828   1.110  0.7747 -0.3689 -0.8492
11831TIP3    H256985   2.492   3.787   1.231 -0.2760  0.4085  0.1284
11832TIP3   OH256986   3.651   3.263  12.210  0.1338  0.5995 -0.2078
11832TIP3    H156987   3.739   3.265  12.248 -0.3015 -0.4930  0.9298
11832TIP3    H256988   3.641   3.174  12.177 -0.7279  0.5528  0.1471
11833TIP3   OH256989   0.052   3.877  14.108 -0.2216 -0.0324  0.1376
11833TIP3    H156990   0.014   3.803  14.156 -0.3804 -0.1229 -0.1284
11833TIP3    H256991  -0.024   3.926  14.075 -0.1249  0.4400  0.6004
11834TIP3   OH256992   3.995   3.780  15.703 -0.4368 -0.2591  0.3817
11834TIP3    H156993   4.002   3.726  15.782  0.3547 -2.4678 -1.1286
11834TIP3    H256994   3.997   3.718  15.630  1.2047  1.8097 -1.4986
11835TIP3   OH256995   3.372   5.539  14.127 -0.1575 -0.4920 -0.2508
11835TIP3    H156996   3.329   5.624  14.141 -0.0036 -0.6561  1.4614
11835TIP3    H256997   3.465   5.557  14.140  0.0412 -0.6328 -1.4206
11836TIP3   OH256998   4.346   3.809   1.922 -0.3188  0.3974 -0.0724
11836TIP3    H156999   4.258   3.813   1.960 -0.3412  0.9031 -0.1699
11836TIP3    H257000   4.330   3.809   1.827 -0.1974  0.9492 -0.0940
11837TIP3   OH257001   1.875   1.880   1.470 -0.3273 -0.5522  0.0941
11837TIP3    H157002   1.897   1.790   1.447  0.4005 -0.1590 -0.8607
11837TIP3    H257003   1.917   1.933   1.401 -1.5295  0.4586  0.0977
11838TIP3   OH257004   3.076   6.730   1.614  0.2623  0.2795  1.0450
11838TIP3    H157005   3.037   6.774   1.539  2.2462  0.2236 -0.1019
11838TIP3    H257006   3.022   6.757   1.689 -0.0186  2.7440  0.0448
11839TIP3   OH257007   3.566   2.733  13.027 -0.2020  0.2006 -0.0779
11839TIP3    H157008   3.550   2.663  13.090 -1.4648  0.2135 -0.3555
11839TIP3    H257009   3.492   2.793  13.038  1.2905  1.9879  0.7718
11840TIP3   OH257010   4.140   6.790   5.681  0.3327  0.4054 -0.5638
11840TIP3    H157011   4.193   6.732   5.626 -0.8269 -0.7241 -0.5467
11840TIP3    H257012   4.199   6.862   5.704  1.1219  0.4736 -2.5464
11841TIP3   OH257013   5.393   6.334   1.630 -0.2371 -0.4586 -0.3555
11841TIP3    H157014   5.465   6.376   1.583 -1.1178  0.2788 -1.0750
11841TIP3    H257015   5.385   6.248   1.588 -0.6428 -0.0236 -1.2075
11842TIP3   OH257016   2.616   4.208   5.164  0.6899  0.4958  0.0783
11842TIP3    H157017   2.558   4.214   5.240  0.7929  0.1255  0.1858
11842TIP3    H257018   2.693   4.161   5.195  0.3197 -0.5128 -0.4999
11843TIP3   OH257019   4.355   3.899  13.388 -0.6555  0.4070  0.0844
11843TIP3    H157020   4.372   3.973  13.446 -1.3810 -0.1750  1.0640
11843TIP3    H257021   4.429   3.900  13.326 -1.0132  2.3559 -0.3800
11844TIP3   OH257022   2.417   5.420  15.274  0.6054 -0.5875  0.2011
11844TIP3    H157023   2.366   5.466  15.208 -0.6222  0.9202  2.1063
11844TIP3    H257024   2.509   5.436  15.250  0.1947  1.5011 -0.1189
11845TIP3   OH257025   2.557   4.441  17.005  0.1256  0.6251  0.4838
11845TIP3    H157026   2.541   4.535  17.017  1.3561  0.6450  2.4069
11845TIP3    H257027   2.581   4.433  16.913  0.1313  2.2151  0.3111
11846TIP3   OH257028   5.031   3.956  15.402 -0.6397 -0.4495  0.1370
11846TIP3    H157029   5.020   4.046  15.434 -0.6942 -0.3722 -0.0914
11846TIP3    H257030   5.100   3.964  15.335 -0.4933 -0.6149  0.2677
11847TIP3   OH257031   5.925   6.090  16.293  0.4712  0.0240  0.8656
11847TIP3    H157032   5.859   6.034  16.251  2.4325 -2.2889  0.6558
11847TIP3    H257033   5.912   6.075  16.387  1.8696 -2.0003  0.7917
11848TIP3   OH257034   4.947   0.105   2.447  0.3501 -0.3053 -0.3956
11848TIP3    H157035   4.939   0.153   2.530 -0.1922 -2.0645  0.6113
11848TIP3    H257036   4.881   0.144   2.391  0.4266  0.6261  0.1342
11849TIP3   OH257037   6.657   1.176  13.202 -1.0516  0.1438 -0.0749
11849TIP3    H157038   6.596   1.248  13.187 -1.2495 -0.2837 -1.3839
11849TIP3    H257039   6.664   1.131  13.118 -0.0351 -0.6803  0.4190
11850TIP3   OH257040   3.490   4.934   4.501  0.2255  0.4445 -0.5513
11850TIP3    H157041   3.527   5.016   4.535  0.9092 -0.6555  1.4911
11850TIP3    H257042   3.540   4.917   4.421  3.3320 -0.2560  1.3667
11851TIP3   OH257043   2.336   4.580  13.720 -0.0635 -0.0456  0.5743
11851TIP3    H157044   2.273   4.625  13.663  1.0014 -0.2846 -0.8459
11851TIP3    H257045   2.358   4.500  13.672  0.8503 -0.2732  1.3562
11852TIP3   OH257046   2.378   6.578  13.787  0.3046  0.0540 -0.0252
11852TIP3    H157047   2.402   6.508  13.847  0.3226  0.7225  0.7594
11852TIP3    H257048   2.283   6.575  13.783  0.1354  1.4866  1.8846
11853TIP3   OH257049   4.879   1.456   3.068 -0.2026 -0.3544  0.4278
11853TIP3    H157050   4.932   1.377   3.080 -1.4726 -1.2035  0.5437
11853TIP3    H257051   4.904   1.488   2.981  1.9620  0.4211  1.2488
11854TIP3   OH257052   2.851   0.283  15.939  0.3047 -0.0412  0.2710
11854TIP3    H157053   2.816   0.262  15.853 -0.3327  0.6469  0.3472
11854TIP3    H257054   2.815   0.370  15.958  2.0247  0.7002  0.3655
11855TIP3   OH257055   4.437   2.770   2.005 -0.0629  0.0880  0.3833
11855TIP3    H157056   4.459   2.700   2.067 -1.8115 -0.0423  0.9288
11855TIP3    H257057   4.355   2.742   1.965 -0.3597  1.4231 -0.0127
11856TIP3   OH257058   3.765   1.289  17.193 -0.2227  0.0257 -0.8134
11856TIP3    H157059   3.709   1.365  17.173 -1.2144 -0.1044  1.2090
11856TIP3    H257060   3.841   1.327  17.238 -0.3330 -0.1138 -0.5118
11857TIP3   OH257061   2.137   4.972  13.704  0.2010 -0.2709 -0.1216
11857TIP3    H157062   2.171   4.932  13.784 -1.1410 -1.7442 -0.2276
11857TIP3    H257063   2.138   5.066  13.722 -1.2132 -0.6028  2.1503
11858TIP3   OH257064   5.166   2.410   5.513  0.1587  0.3453  0.2484
11858TIP3    H157065   5.113   2.420   5.434 -1.7796  0.9329  1.5547
11858TIP3    H257066   5.183   2.499   5.543  1.4570  0.1507  0.1762
11859TIP3   OH257067   2.494   1.794   0.054 -0.1176 -0.3884 -0.1799
11859TIP3    H157068   2.537   1.870   0.013 -1.3497  0.9305  0.9053
11859TIP3    H257069   2.552   1.770   0.126 -0.4892  0.5056  0.4230
11860TIP3   OH257070   5.262   0.552   1.697 -0.4734 -0.1823 -0.2287
11860TIP3    H157071   5.208   0.622   1.735 -0.3410  0.2135 -0.7587
11860TIP3    H257072   5.214   0.472   1.718 -1.7409  0.2151 -1.4059
11861TIP3   OH257073   5.004   1.316   0.028  0.1802 -0.3080 -0.1700
11861TIP3    H157074   4.961   1.394  -0.007 -1.1821 -0.6409  0.6623
11861TIP3    H257075   4.938   1.275   0.084  0.9303 -1.9427 -0.3974
11862TIP3   OH257076   6.378   4.561  11.059 -0.3193  0.2650 -0.3720
11862TIP3    H157077   6.377   4.498  10.987  0.9906 -0.1458 -0.0692
11862TIP3    H257078   6.379   4.647  11.016  0.8638  0.0226 -0.8884
11863TIP3   OH257079   3.265   6.775  13.177  0.3321 -0.3178  0.1779
11863TIP3    H157080   3.325   6.748  13.107 -0.0632  2.1491 -1.2153
11863TIP3    H257081   3.180   6.737  13.152  0.2246  0.4362 -0.6249
11864TIP3   OH257082   3.027   3.348  13.100 -0.2522 -0.4146 -0.3343
11864TIP3    H157083   2.965   3.284  13.065 -0.6306 -1.1194  1.4981
11864TIP3    H257084   3.105   3.338  13.045 -0.8030 -1.4796 -0.9514
11865TIP3   OH257085   4.779   0.986  12.986  0.4503  0.4484  0.6219
11865TIP3    H157086   4.848   1.004  12.921 -0.8174  2.6469 -0.2207
11865TIP3    H257087   4.819   1.008  13.070  1.4310 -0.3895  0.4038
11866TIP3   OH257088   4.091   4.686   4.019 -0.3378  0.0433 -0.0715
11866TIP3    H157089   4.078   4.596   3.991 -0.1253 -0.4600  1.3300
11866TIP3    H257090   4.153   4.723   3.957 -0.4487 -0.7730 -0.6736
11867TIP3   OH257091   2.596   5.815   4.479  0.4280 -0.0811 -0.2163
11867TIP3    H157092   2.572   5.808   4.386 -1.1100 -0.6787  0.1972
11867TIP3    H257093   2.629   5.729   4.502 -0.3309 -0.2969  0.0829
11868TIP3   OH257094   0.941   4.605  11.101 -0.1937  0.2327  0.2055
11868TIP3    H157095   0.979   4.522  11.129 -0.0795  0.3122  0.2848
11868TIP3    H257096   0.876   4.580  11.035  1.2649  0.2016 -1.3003
11869TIP3   OH257097   3.003   6.715   0.624  0.1373  0.0497  0.0158
11869TIP3    H157098   3.080   6.708   0.568  0.1722  1.2351 -0.1066
11869TIP3    H257099   3.019   6.794   0.677 -0.6006 -0.1748  0.5951
11870TIP3   OH257100   5.688   5.261   5.543  0.0027 -0.0949 -0.4873
11870TIP3    H157101   5.725   5.286   5.628  1.1441  1.0326 -1.2571
11870TIP3    H257102   5.594   5.270   5.554 -0.0985 -2.4952  1.3975
11871TIP3   OH257103   0.451   5.163   6.471  0.1343  0.2339 -0.3436
11871TIP3    H157104   0.427   5.116   6.391 -0.4601 -0.2480  0.1140
11871TIP3    H257105   0.392   5.130   6.538  1.1457  0.0543  0.4929
11872TIP3   OH257106   6.113   6.481   0.365  0.5465  0.2201  0.0651
11872TIP3    H157107   6.030   6.459   0.322  0.4675  0.5103  0.0686
11872TIP3    H257108   6.178   6.474   0.295  0.6030 -0.5433  0.1841
11873TIP3   OH257109   4.497   6.361   4.008  0.3117  0.3395  0.2065
11873TIP3    H157110   4.526   6.274   4.034 -1.2340 -0.5006 -0.7710
11873TIP3    H257111   4.474   6.353   3.916  0.0384  1.7629  0.1179
11874TIP3   OH257112   1.605   0.166   4.160  0.1803 -0.1200 -0.1774
11874TIP3    H157113   1.662   0.235   4.127  0.7934 -0.4131  0.2586
11874TIP3    H257114   1.643   0.141   4.244 -0.2943 -0.6779 -0.1186
11875TIP3   OH257115   1.365   0.604   4.150 -0.0916 -0.0149  0.1084
11875TIP3    H157116   1.302   0.663   4.109  1.1411  0.5810 -1.0387
11875TIP3    H257117   1.387   0.646   4.233 -0.0822  0.5616 -0.1811
11876TIP3   OH257118   0.687   3.115   2.861  0.2594 -0.2742 -0.3612
11876TIP3    H157119   0.713   3.113   2.954  1.0322 -2.5012 -0.5604
11876TIP3    H257120   0.617   3.050   2.854  1.1148 -1.1177 -1.5436
11877TIP3   OH257121   3.943   1.463  16.826 -0.0577  0.3665  0.3254
11877TIP3    H157122   3.855   1.471  16.861  0.4303  0.7441  1.5211
11877TIP3    H257123   4.000   1.469  16.902  1.1080  2.2161 -0.6227
11878TIP3   OH257124   5.322   0.028  13.030 -0.3423 -0.2539 -0.2075
11878TIP3    H157125   5.297   0.114  13.064 -0.8193  0.4243 -2.1561
11878TIP3    H257126   5.250  -0.029  13.055 -0.5126  0.1324  0.2008
11879TIP3   OH257127   0.803   0.941   5.813 -0.8575 -0.4618 -0.3133
11879TIP3    H157128   0.889   0.958   5.853 -0.5637 -1.7403 -0.3663
11879TIP3    H257129   0.746   0.920   5.887 -0.9353 -0.3490 -0.3418
11880TIP3   OH257130   2.214   1.594   2.837 -0.1676 -0.1171 -0.5943
11880TIP3    H157131   2.226   1.575   2.743  0.5651  0.3199 -0.5973
11880TIP3    H257132   2.298   1.573   2.876 -0.4904 -0.3446 -0.0201
11881TIP3   OH257133   0.748   6.711  14.595 -0.6793 -0.3071  0.1947
11881TIP3    H157134   0.763   6.618  14.606 -0.0401 -0.0488  1.6494
11881TIP3    H257135   0.821   6.742  14.541 -0.5685 -0.5405  0.2141
11882TIP3   OH257136   5.872   5.722   2.430 -0.3221 -0.4094 -0.4000
11882TIP3    H157137   5.939   5.656   2.416 -0.1126 -0.3907  0.4998
11882TIP3    H257138   5.884   5.784   2.358  2.8027  1.4130  1.5179
11883TIP3   OH257139   2.690   2.576   6.761 -0.5446 -0.4428  0.0924
11883TIP3    H157140   2.600   2.547   6.744 -0.4337 -0.5311 -0.3538
11883TIP3    H257141   2.744   2.523   6.702 -0.0851 -1.2161  1.1887
11884TIP3   OH257142   2.113   4.188  16.519 -0.7485 -0.6206 -0.7280
11884TIP3    H157143   2.179   4.165  16.584 -0.9512 -0.0186 -0.2909
11884TIP3    H257144   2.029   4.173  16.563 -0.9189 -1.7631 -1.4150
11885TIP3   OH257145   6.410   4.290   0.119  0.1500 -0.3640 -0.0300
11885TIP3    H157146   6.439   4.224   0.182  1.0559 -0.8715 -0.9565
11885TIP3    H257147   6.433   4.373   0.160 -1.4784 -0.5486  1.3893
11886TIP3   OH257148   4.224   0.022  13.928  0.4389 -0.2720 -0.2683
11886TIP3    H157149   4.186   0.091  13.982  1.1827  0.5713 -0.7873
11886TIP3    H257150   4.236   0.062  13.842  0.1394 -1.3039 -0.8135
11887TIP3   OH257151   5.923   4.789   2.045 -0.1635 -0.2291 -0.2089
11887TIP3    H157152   6.012   4.820   2.065 -0.2425 -0.5294  0.6063
11887TIP3    H257153   5.869   4.827   2.113 -0.6156 -0.3341 -0.5090
11888TIP3   OH257154   5.626   0.803   1.282  0.3830  0.2616  0.0390
11888TIP3    H157155   5.662   0.720   1.311  1.8507  1.1157  0.7776
11888TIP3    H257156   5.549   0.816   1.337  1.0833  0.1528  1.0757
11889TIP3   OH257157   4.989   2.743   5.749  0.3507 -0.2386  0.5236
11889TIP3    H157158   5.010   2.705   5.834  0.9597 -0.6994  0.1813
11889TIP3    H257159   4.904   2.707   5.726  0.5084 -0.6773  0.6228
11890TIP3   OH257160   2.225   1.456   3.125 -0.1491  0.2080 -0.0154
11890TIP3    H157161   2.256   1.421   3.209  1.7231 -0.8535 -1.0668
11890TIP3    H257162   2.300   1.505   3.091 -0.7446  0.3155 -1.2216
11891TIP3   OH257163   6.656   3.426  13.661 -0.1002  0.5221 -0.0599
11891TIP3    H157164   6.742   3.451  13.697  1.2919 -1.5748 -1.6975
11891TIP3    H257165   6.644   3.484  13.586  0.9635 -0.5558 -1.1131
11892TIP3   OH257166   4.133   3.735  16.552 -0.2363  0.0083 -0.3192
11892TIP3    H157167   4.170   3.823  16.561 -0.0584 -0.1414  0.4990
11892TIP3    H257168   4.207   3.676  16.563 -0.6594 -0.2901  1.1143
11893TIP3   OH257169   5.001   6.011  13.387  0.3863  0.0904  0.1915
11893TIP3    H157170   5.045   6.033  13.304  0.9607  0.8533  0.6894
11893TIP3    H257171   5.005   5.915  13.391  0.6747  0.0677 -0.4914
11894TIP3   OH257172   0.591   4.120  13.332  0.0143  0.1606  0.5517
11894TIP3    H157173   0.680   4.117  13.295  0.4903 -0.4752  1.7025
11894TIP3    H257174   0.561   4.029  13.327 -1.9844  0.8354 -3.0416
11895TIP3   OH257175   5.031   3.377   1.530  0.3683 -0.4090 -0.6920
11895TIP3    H157176   5.008   3.284   1.519 -0.9170 -0.0061 -1.6550
11895TIP3    H257177   4.958   3.413   1.579  1.6770 -0.2263  1.2024
11896TIP3   OH257178   5.092   2.065   1.497  0.2708 -0.0359 -0.5472
11896TIP3    H157179   5.175   2.090   1.538 -0.0819  1.2145 -0.5453
11896TIP3    H257180   5.113   2.052   1.405  0.6132 -0.5119 -0.4054
11897TIP3   OH257181   6.229   4.939   3.531 -0.3286 -0.1055  0.1383
11897TIP3    H157182   6.270   4.962   3.614  0.1152  0.4461 -0.2280
11897TIP3    H257183   6.302   4.923   3.471 -0.5821  1.8639 -0.7956
11898TIP3   OH257184   4.486   2.313   2.132  0.4712 -0.1416 -1.0459
11898TIP3    H157185   4.547   2.337   2.062  0.9032  0.2953 -0.5225
11898TIP3    H257186   4.468   2.395   2.178  1.0248 -0.6046  0.0223
11899TIP3   OH257187   4.505   0.207  10.600 -0.5003 -0.4581 -0.5389
11899TIP3    H157188   4.464   0.219  10.686 -0.4699 -0.3851 -0.5343
11899TIP3    H257189   4.522   0.296  10.569  0.7143 -0.4864 -0.0310
11900TIP3   OH257190   4.765   5.880  16.180 -0.3677  0.1083  0.4273
11900TIP3    H157191   4.720   5.810  16.227  0.4167  0.9285  2.5297
11900TIP3    H257192   4.700   5.912  16.117 -0.8897 -2.1615 -0.2721
11901TIP3   OH257193   2.044   6.260   1.738  0.2359 -0.9581 -0.1330
11901TIP3    H157194   1.995   6.271   1.820 -0.3243 -0.1040 -0.5686
11901TIP3    H257195   2.133   6.287   1.761 -0.3856  1.4539 -0.3124
11902TIP3   OH257196   2.510   6.155   4.454  0.2508 -0.0795 -0.4339
11902TIP3    H157197   2.468   6.238   4.475 -0.1710 -0.3093 -0.3401
11902TIP3    H257198   2.456   6.089   4.499 -0.0060 -0.4866 -1.3172
11903TIP3   OH257199   4.067   1.581   4.073  0.0753 -0.7593  0.0158
11903TIP3    H157200   4.084   1.487   4.075 -0.2122 -0.8990 -1.9092
11903TIP3    H257201   4.144   1.621   4.114  0.3149 -1.8132  0.6198
11904TIP3   OH257202   3.561   4.084  11.483  0.6606 -0.0904 -0.5667
11904TIP3    H157203   3.553   4.031  11.562  1.1545 -3.0293 -2.3394
11904TIP3    H257204   3.618   4.157  11.509  0.9636 -1.0546  1.7200
11905TIP3   OH257205   0.217   3.451   3.345 -0.3763  0.0894 -0.0150
11905TIP3    H157206   0.189   3.467   3.435  0.7914 -2.1246  0.8241
11905TIP3    H257207   0.283   3.382   3.353 -2.0301 -1.9897 -2.7878
11906TIP3   OH257208   0.396   1.186  16.265 -0.3804 -0.2154 -0.2024
11906TIP3    H157209   0.426   1.154  16.350 -2.6858 -0.4584  0.5885
11906TIP3    H257210   0.419   1.278  16.265  0.4174 -0.3999  0.3047
11907TIP3   OH257211   4.704   0.248   6.467 -0.1794 -0.5160  0.4546
11907TIP3    H157212   4.691   0.226   6.559  0.2820 -1.0034  0.4082
11907TIP3    H257213   4.797   0.269   6.460 -0.3905  0.3898  0.2715
11908TIP3   OH257214   6.667   4.002  17.130 -0.4850  0.3985  0.1738
11908TIP3    H157215   6.585   4.053  17.132 -0.2348  0.8100  0.0639
11908TIP3    H257216   6.725   4.048  17.190 -0.0240  0.6460 -0.4530
11909TIP3   OH257217   4.918   5.652  13.792 -0.3890 -0.3893  0.4548
11909TIP3    H157218   4.901   5.737  13.832  0.9931  0.4703 -0.7017
11909TIP3    H257219   4.840   5.635  13.739 -0.2343  0.6857 -0.1515
11910TIP3   OH257220   1.584   2.951  15.457 -0.3503 -0.2615 -0.0348
11910TIP3    H157221   1.489   2.949  15.462 -0.3460 -1.1300 -0.1344
11910TIP3    H257222   1.607   2.877  15.402  0.3463  0.5297 -0.8363
11911TIP3   OH257223   5.107   2.851   4.225  0.1499 -0.3396 -0.0873
11911TIP3    H157224   5.129   2.758   4.217 -1.3464 -0.6420 -1.0904
11911TIP3    H257225   5.142   2.877   4.311  0.0105 -1.9921  0.4969
11912TIP3   OH257226   6.365   5.289  11.842 -0.2913  0.0068  0.1865
11912TIP3    H157227   6.325   5.239  11.772 -0.2637  1.5813 -1.0052
11912TIP3    H257228   6.392   5.223  11.906 -2.1273 -1.3119 -0.3203
11913TIP3   OH257229   0.373   2.929  10.845  0.2088  0.1759 -0.7950
11913TIP3    H157230   0.360   2.899  10.935  1.0647  0.6781 -0.4951
11913TIP3    H257231   0.293   2.978  10.824 -0.7662 -1.4071 -0.9446
11914TIP3   OH257232   2.340   3.102   4.543  0.2096  0.2268  0.1522
11914TIP3    H157233   2.273   3.047   4.502  0.3587  0.5285 -0.4973
11914TIP3    H257234   2.292   3.149   4.612  0.1156 -0.8180  0.8124
11915TIP3   OH257235   0.900   6.076   1.913  0.2492 -0.4690 -0.0014
11915TIP3    H157236   0.945   6.034   1.986 -2.1911  0.2321  2.0296
11915TIP3    H257237   0.932   6.166   1.913 -0.0841 -0.3481  0.5196
11916TIP3   OH257238   5.702   3.487   6.556 -0.5833  0.0996 -0.0182
11916TIP3    H157239   5.698   3.474   6.650 -0.1864 -1.9143 -0.2398
11916TIP3    H257240   5.618   3.526   6.533 -1.1701 -0.5330  1.0037
11917TIP3   OH257241   6.597   3.297  15.318  0.5198  0.2588 -0.2803
11917TIP3    H157242   6.655   3.361  15.359  0.6496 -0.1711  0.2199
11917TIP3    H257243   6.533   3.350  15.271 -0.8003  0.8574  2.0286
11918TIP3   OH257244   4.980   0.232  11.254  0.0033 -0.1237 -0.0771
11918TIP3    H157245   5.026   0.157  11.215  0.7458 -0.3733  1.2373
11918TIP3    H257246   4.979   0.214  11.348  0.5268  1.6653  0.3174
11919TIP3   OH257247   6.673   1.027   2.138  0.0869 -0.0160  0.6293
11919TIP3    H157248   6.623   0.946   2.131  1.0892 -0.6366  0.4039
11919TIP3    H257249   6.696   1.033   2.231 -0.7393  0.4923  0.8127
11920TIP3   OH257250   1.354   2.071   3.753 -0.0496 -0.5273 -0.3244
11920TIP3    H157251   1.287   2.102   3.814  0.4342  1.2664 -0.6477
11920TIP3    H257252   1.311   2.073   3.667  0.7898  2.1754 -0.7754
11921TIP3   OH257253   5.987   3.995   5.110 -0.0487  0.0167 -0.1711
11921TIP3    H157254   5.976   4.012   5.016  2.0157  0.5903 -0.3505
11921TIP3    H257255   6.023   4.077   5.145  1.1848 -0.8748  0.7230
11922TIP3   OH257256   3.692   2.118  12.353 -0.2686 -0.3831 -0.1864
11922TIP3    H157257   3.761   2.136  12.416 -0.0017 -0.5752 -0.4233
11922TIP3    H257258   3.646   2.202  12.344  0.5803  0.0310 -0.8128
11923TIP3   OH257259   0.782   3.216  13.283 -0.1115 -0.3439  0.1243
11923TIP3    H157260   0.785   3.179  13.371  2.0765 -0.3649  0.0985
11923TIP3    H257261   0.710   3.170  13.240 -1.5914  0.0592  2.0392
11924TIP3   OH257262   1.751   6.383  17.065  0.2757 -0.1175  0.2146
11924TIP3    H157263   1.802   6.455  17.103 -0.1931 -0.0122  0.6558
11924TIP3    H257264   1.796   6.304  17.096 -0.5624 -0.0571  1.6967
11925TIP3   OH257265   5.620   0.773   1.615 -0.3910  0.3849 -0.2134
11925TIP3    H157266   5.689   0.713   1.585 -0.7658 -0.6434  0.8989
11925TIP3    H257267   5.588   0.734   1.697 -2.8569  0.3715 -1.0865
11926TIP3   OH257268   5.586   1.964  12.760 -0.0836 -0.0239  0.3350
11926TIP3    H157269   5.537   2.013  12.694 -2.6087 -1.8190  0.7496
11926TIP3    H257270   5.570   2.011  12.842  1.0832  0.8418  0.0938
11927TIP3   OH257271   6.567   2.925  13.104 -0.3889 -0.4234  0.2142
11927TIP3    H157272   6.645   2.883  13.068 -0.1500  0.4359 -0.2862
11927TIP3    H257273   6.537   2.865  13.172  1.1891 -0.3629  0.9967
11928TIP3   OH257274   6.314   3.852   4.104 -0.0358 -0.5221  0.7644
11928TIP3    H157275   6.345   3.906   4.176 -2.0736  0.4130  1.0013
11928TIP3    H257276   6.222   3.875   4.094  0.0440 -0.9368 -1.8522
11929TIP3   OH257277   1.812   4.595   2.130  0.3081 -0.5586  0.0667
11929TIP3    H157278   1.798   4.505   2.160  1.3017 -1.1093 -0.9844
11929TIP3    H257279   1.834   4.585   2.037  1.5264  0.6661  0.1907
11930TIP3   OH257280   1.856   3.296   0.657  0.0737 -0.4673  0.2722
11930TIP3    H157281   1.940   3.331   0.628  0.1677 -0.9722 -0.0720
11930TIP3    H257282   1.801   3.374   0.671  0.4551 -0.1579  0.0662
11931TIP3   OH257283   5.666   0.207  11.756  0.0549  0.0913  0.2627
11931TIP3    H157284   5.653   0.133  11.696 -0.3539  0.1170  0.3175
11931TIP3    H257285   5.752   0.242  11.733  0.6465 -0.9447  0.8208
11932TIP3   OH257286   6.777   3.736   0.522  0.1274  0.5260  0.1756
11932TIP3    H157287   6.795   3.643   0.509 -2.5583 -0.0664  0.1875
11932TIP3    H257288   6.850   3.768   0.575 -0.5486 -2.3753  3.1002
11933TIP3   OH257289   0.256   5.533  15.085 -0.1314 -0.1675  0.0050
11933TIP3    H157290   0.349   5.508  15.088 -0.5288 -1.6464  1.5019
11933TIP3    H257291   0.257   5.622  15.051  2.0068  0.5638  1.7269
11934TIP3   OH257292   5.203   1.562  15.724  0.1668 -0.2716  0.0135
11934TIP3    H157293   5.219   1.646  15.767 -0.2966 -1.1359  2.0101
11934TIP3    H257294   5.173   1.585  15.636  2.0323  1.5756 -0.2105
11935TIP3   OH257295   1.830   5.802   4.336  0.3542  0.2124  0.1605
11935TIP3    H157296   1.738   5.819   4.359  0.2401 -1.1923  0.8497
11935TIP3    H257297   1.843   5.849   4.254 -0.7199  1.1739  0.5078
11936TIP3   OH257298   6.324   4.652   1.467 -0.8467  0.1039  0.4342
11936TIP3    H157299   6.318   4.576   1.525 -2.5134 -0.3187 -0.2255
11936TIP3    H257300   6.363   4.721   1.521  0.2790 -1.0741  1.1753
11937TIP3   OH257301   6.570   3.438  14.930  0.4332  0.4078  0.4836
11937TIP3    H157302   6.477   3.463  14.930  0.4646  0.5248 -0.0812
11937TIP3    H257303   6.616   3.517  14.957  0.6825  1.6017 -2.9172
11938TIP3   OH257304   6.384   5.736   4.383  0.5370  0.4723  0.1594
11938TIP3    H157305   6.342   5.663   4.429 -1.8597  0.7294 -1.4557
11938TIP3    H257306   6.387   5.805   4.449  0.4542 -0.2684  0.9682
11939TIP3   OH257307   1.187   6.373   0.393  0.1465 -0.1498  0.2383
11939TIP3    H157308   1.162   6.414   0.475  0.8518  0.2766  0.2495
11939TIP3    H257309   1.182   6.444   0.328 -1.1012 -0.6454 -0.2296
11940TIP3   OH257310   4.387   1.133  10.797  0.1268  0.8802  0.4473
11940TIP3    H157311   4.338   1.130  10.714 -0.1987 -1.9978  0.6568
11940TIP3    H257312   4.479   1.142  10.770 -0.0527  0.8175 -0.2026
11941TIP3   OH257313   3.137   1.698   4.977  0.3276 -0.0687 -0.6478
11941TIP3    H157314   3.121   1.717   4.885 -1.9054  0.1061 -0.2815
11941TIP3    H257315   3.109   1.777   5.023 -1.7660 -1.3083  0.3573
11942TIP3   OH257316   4.347   2.266   3.491  0.1369 -0.4777  0.4120
11942TIP3    H157317   4.297   2.343   3.514 -0.4375 -0.3529 -1.1297
11942TIP3    H257318   4.308   2.235   3.410  2.4027 -0.4896 -0.7648
11943TIP3   OH257319   1.110   6.324   1.885  0.4239 -0.3040  0.0176
11943TIP3    H157320   1.147   6.294   1.802  0.1726 -1.1958  0.2234
11943TIP3    H257321   1.120   6.419   1.882 -0.2336 -0.2493 -1.3492
11944TIP3   OH257322   6.216   2.418  12.874 -0.4195 -0.1595 -0.4527
11944TIP3    H157323   6.282   2.411  12.943  1.6431 -1.4534 -2.3847
11944TIP3    H257324   6.224   2.336  12.825 -2.3436  0.3656 -1.7602
11945TIP3   OH257325   4.555   3.599   1.679  0.0982  0.4645 -0.2366
11945TIP3    H157326   4.481   3.572   1.732 -0.1780  0.4998 -0.6002
11945TIP3    H257327   4.562   3.693   1.694  0.5993  0.3283  0.4511
11946TIP3   OH257328   0.211   4.374   5.254  0.1854 -0.1372  0.0454
11946TIP3    H157329   0.222   4.316   5.330 -3.0541 -0.6584  0.2574
11946TIP3    H257330   0.253   4.456   5.281  1.1178 -1.0289  1.4695
11947TIP3   OH257331   0.892   2.098   0.967  0.4075  0.5003 -0.0018
11947TIP3    H157332   0.960   2.031   0.973 -1.0246 -0.9004  2.2277
11947TIP3    H257333   0.870   2.118   1.058 -2.3590  0.6012 -0.5918
11948TIP3   OH257334   4.109   2.050  16.492  0.3664 -0.0694  0.0920
11948TIP3    H157335   4.046   2.001  16.545  0.3368 -0.3368 -0.1883
11948TIP3    H257336   4.139   2.120  16.550  0.9794 -0.8625  0.7677
11949TIP3   OH257337   5.536   3.639   6.232  0.8889  0.0707  0.1598
11949TIP3    H157338   5.471   3.625   6.163  1.1727  1.4439 -0.4141
11949TIP3    H257339   5.539   3.555   6.279 -2.2654  0.3363  1.0717
11950TIP3   OH257340   5.627   2.576  11.206 -0.1510  0.0208  0.0707
11950TIP3    H157341   5.668   2.555  11.123 -1.3603 -1.4083 -0.2177
11950TIP3    H257342   5.700   2.585  11.268  0.8710  2.5522 -1.3695
11951TIP3   OH257343   3.453   4.923  14.952 -0.4685 -0.1099 -0.2101
11951TIP3    H157344   3.381   4.955  14.898 -1.3568 -1.7624 -0.0773
11951TIP3    H257345   3.460   4.830  14.931  2.4010  0.1977 -1.0533
11952TIP3   OH257346   3.287   4.787  11.432  0.1679 -0.2844  0.3812
11952TIP3    H157347   3.220   4.807  11.497 -0.2673  0.6911 -0.3403
11952TIP3    H257348   3.240   4.741  11.362  0.7298 -1.8043  0.9706
11953TIP3   OH257349   4.295   6.184   0.953  0.1217 -0.0734  0.0042
11953TIP3    H157350   4.249   6.107   0.985  0.5812 -0.3759 -0.0492
11953TIP3    H257351   4.275   6.252   1.018 -2.6767  0.6366 -1.4357
11954TIP3   OH257352   2.994   1.247  12.671 -0.1850  0.1172 -0.5211
11954TIP3    H157353   3.002   1.155  12.647 -0.0405  0.5050 -2.0741
11954TIP3    H257354   2.965   1.290  12.590  1.7576  1.7274 -0.4347
11955TIP3   OH257355   4.180   3.866  15.261 -0.3442  0.4282 -0.2272
11955TIP3    H157356   4.156   3.780  15.297 -1.5472  0.3185 -1.2508
11955TIP3    H257357   4.115   3.926  15.297  0.0445  0.7860 -0.1152
11956TIP3   OH257358   3.771   1.138   4.866  0.1485  0.0899  0.5436
11956TIP3    H157359   3.860   1.109   4.849  0.2490  0.2805  0.7333
11956TIP3    H257360   3.720   1.057   4.869 -0.1183  0.0984 -1.9014
11957TIP3   OH257361   3.824   5.795  11.731 -0.2949  0.2421  0.1850
11957TIP3    H157362   3.872   5.766  11.653 -0.9986 -0.5153  0.0252
11957TIP3    H257363   3.749   5.737  11.737 -2.0625  2.3202 -0.4240
11958TIP3   OH257364   4.332   6.151  17.272 -0.0563 -0.1770 -0.1713
11958TIP3    H157365   4.300   6.143  17.183 -1.6161  1.5947  0.1846
11958TIP3    H257366   4.425   6.172  17.262 -0.3849  0.8023 -1.4062
11959TIP3   OH257367   2.796   6.473  14.268  0.0317  0.6123  1.0121
11959TIP3    H157368   2.803   6.499  14.360  0.7031  2.3573  0.4905
11959TIP3    H257369   2.778   6.554  14.221 -0.8072 -0.3278 -0.3675
11960TIP3   OH257370   5.803   4.539  16.841  0.2502  0.5226 -0.2275
11960TIP3    H157371   5.876   4.553  16.901 -1.8763 -1.0885  3.0421
11960TIP3    H257372   5.780   4.447  16.852 -2.2924  0.9753 -1.0587
11961TIP3   OH257373   2.780   0.335  14.417 -0.1320 -0.4277  0.4036
11961TIP3    H157374   2.707   0.302  14.366 -0.0342  0.4295 -0.3114
11961TIP3    H257375   2.746   0.415  14.459  0.1393 -0.4860  0.7380
11962TIP3   OH257376   5.551   3.956   3.872  0.4844  0.5999  0.5606
11962TIP3    H157377   5.477   3.910   3.833 -0.3299  1.1546  1.4166
11962TIP3    H257378   5.528   4.049   3.865 -0.6794  0.7200  4.1390
11963TIP3   OH257379   4.354   0.822   3.588 -0.4706 -0.5005  0.1061
11963TIP3    H157380   4.278   0.763   3.593  1.4503 -3.0036  2.3382
11963TIP3    H257381   4.414   0.779   3.528 -0.0821  0.5966 -0.3141
11964TIP3   OH257382   0.302   3.656   5.064  0.1942 -0.3395  0.3817
11964TIP3    H157383   0.396   3.655   5.083  0.2927 -1.1805 -0.0888
11964TIP3    H257384   0.269   3.574   5.102 -0.5461  0.3969  1.4116
11965TIP3   OH257385   5.324   5.718  17.079  0.1592  0.7720 -0.1405
11965TIP3    H157386   5.356   5.808  17.087 -1.5964  1.4215  0.0483
11965TIP3    H257387   5.290   5.712  16.990 -1.2291  0.8338  0.3701
11966TIP3   OH257388   2.907   3.958   2.975  0.3687 -0.0506  0.7695
11966TIP3    H157389   2.878   4.002   2.895  0.2620 -1.5081 -0.0282
11966TIP3    H257390   2.829   3.959   3.032  0.4194  0.9120  0.8378
11967TIP3   OH257391   2.782   2.866  13.964 -0.1334  0.0302 -0.1008
11967TIP3    H157392   2.872   2.834  13.973 -0.1744  0.1396  0.7480
11967TIP3    H257393   2.779   2.905  13.876  0.4911 -0.4631 -0.3464
11968TIP3   OH257394   4.868   1.085  11.045 -0.5575  0.6358  0.1942
11968TIP3    H157395   4.788   1.135  11.064 -0.6737  0.7625 -0.6097
11968TIP3    H257396   4.846   1.033  10.967 -0.7256 -1.3134  1.4671
11969TIP3   OH257397   5.710   2.405  14.804  0.2272  0.6286  0.2746
11969TIP3    H157398   5.699   2.361  14.888  1.7705 -0.3299  0.0088
11969TIP3    H257399   5.630   2.384  14.755  1.1110 -2.4767 -0.0611
11970TIP3   OH257400   3.769   1.088  14.232 -0.4708 -0.0183 -0.0621
11970TIP3    H157401   3.806   1.076  14.144 -1.2612 -1.8063 -0.2106
11970TIP3    H257402   3.838   1.061  14.292 -0.2307  0.3505 -0.1727
11971TIP3   OH257403   5.142   0.291   0.236 -0.0072 -0.8614 -0.3320
11971TIP3    H157404   5.225   0.336   0.253  0.1038 -0.9433 -0.6490
11971TIP3    H257405   5.123   0.310   0.144  0.3483 -1.9479 -0.6473
11972TIP3   OH257406   6.473   1.595  11.819 -0.0016 -0.0736  0.4606
11972TIP3    H157407   6.383   1.619  11.795  1.1342  0.5355 -4.0197
11972TIP3    H257408   6.510   1.676  11.853 -0.1104  0.8879 -1.5393
11973TIP3   OH257409   1.591   5.342   2.637 -0.1227  0.2783 -0.8605
11973TIP3    H157410   1.505   5.309   2.663 -0.7545  0.5560 -2.4562
11973TIP3    H257411   1.634   5.367   2.719 -2.0678  1.3495 -0.1266
11974TIP3   OH257412   0.055   2.682   6.758 -0.4687  0.4391 -0.1501
11974TIP3    H157413   0.098   2.616   6.813 -0.1663  1.3254  0.7063
11974TIP3    H257414  -0.038   2.670   6.774 -0.3601  1.4362  1.5126
11975TIP3   OH257415   3.886   2.079   1.261  0.3163  0.1885  0.0173
11975TIP3    H157416   3.858   2.114   1.176 -0.5593 -1.2276 -0.3083
11975TIP3    H257417   3.857   2.144   1.324 -0.1557  0.6549 -0.6600
11976TIP3   OH257418   5.031   4.510   1.267 -0.5089 -0.1315 -0.2369
11976TIP3    H157419   5.102   4.446   1.261  0.3680  0.9242 -2.0274
11976TIP3    H257420   5.073   4.588   1.304 -0.9780  0.1698 -0.3327
11977TIP3   OH257421   3.513   1.212  11.527  0.2810 -0.0162 -0.1987
11977TIP3    H157422   3.468   1.158  11.591  0.4381 -1.2170 -1.0518
11977TIP3    H257423   3.605   1.189  11.536  0.6450  1.6880  0.8534
11978TIP3   OH257424   5.106   3.353  15.550  0.6836 -0.3386  0.7493
11978TIP3    H157425   5.038   3.377  15.487  1.3278  0.1930  0.2494
11978TIP3    H257426   5.155   3.434  15.565 -0.8130  0.1723  3.6597
11979TIP3   OH257427   0.642   2.287  14.467  0.7750  0.6801  0.9786
11979TIP3    H157428   0.643   2.298  14.372  1.4793 -2.3352  0.5314
11979TIP3    H257429   0.558   2.245  14.486 -0.0470  2.6187  1.9717
11980TIP3   OH257430   4.060   5.514   5.847  0.3951 -0.1551  0.2835
11980TIP3    H157431   3.969   5.524   5.873 -0.1834 -0.7902 -1.4056
11980TIP3    H257432   4.102   5.596   5.875 -1.3104  1.3711 -1.3532
11981TIP3   OH257433   2.764   2.287   4.466  0.0906  0.1425  0.2387
11981TIP3    H157434   2.737   2.338   4.542 -0.5814  1.7326 -1.0180
11981TIP3    H257435   2.695   2.302   4.401  0.3493 -1.6500 -0.5120
11982TIP3   OH257436   4.915   5.330   3.785 -0.2692 -0.1503 -0.4962
11982TIP3    H157437   4.895   5.409   3.735  0.2496  0.8775  0.8330
11982TIP3    H257438   4.906   5.357   3.877  0.9738 -1.3328  0.0156
11983TIP3   OH257439   2.916   5.712  14.429 -0.1602  0.3352  0.0539
11983TIP3    H157440   2.936   5.802  14.456 -1.7362  0.2662  1.6316
11983TIP3    H257441   2.939   5.659  14.505 -0.9150 -0.3893 -0.2137
11984TIP3   OH257442   3.589   6.140   0.584 -0.6351 -0.3376 -0.1218
11984TIP3    H157443   3.642   6.081   0.637  0.2672 -0.2990 -0.9612
11984TIP3    H257444   3.639   6.222   0.580 -0.3808 -0.5352 -1.5279
11985TIP3   OH257445   0.664   3.599   3.282  0.2372 -0.2634  0.0617
11985TIP3    H157446   0.602   3.579   3.211 -0.8580 -1.7940  1.3764
11985TIP3    H257447   0.721   3.523   3.285 -0.5400 -0.8305  1.6157
11986TIP3   OH257448   5.953   2.081  12.399  0.0253 -0.1298  0.1499
11986TIP3    H157449   5.925   1.991  12.384 -0.9082  0.3244 -1.0427
11986TIP3    H257450   6.038   2.074  12.441  0.0230 -1.5646 -0.0473
11987TIP3   OH257451   6.065   5.214  12.491 -1.0132  0.1357  0.2072
11987TIP3    H157452   5.994   5.153  12.471  1.1753 -2.5141 -0.0897
11987TIP3    H257453   6.046   5.291  12.438 -2.8112 -1.1185 -1.0819
11988TIP3   OH257454   5.101   0.314   1.735  0.0082 -0.2628  0.2754
11988TIP3    H157455   5.058   0.270   1.807 -0.0851  0.7367  0.8477
11988TIP3    H257456   5.031   0.362   1.691  0.6941  2.9763  2.3773
11989TIP3   OH257457   2.863   3.921   0.395  0.3000  0.1781  0.6129
11989TIP3    H157458   2.782   3.926   0.344 -0.0870  0.0592  1.2033
11989TIP3    H257459   2.839   3.956   0.481  0.8251 -0.0446  0.8519
11990TIP3   OH257460   1.155   2.307   1.979 -0.2465 -0.3806 -0.1841
11990TIP3    H157461   1.217   2.361   2.027 -1.2635 -0.0989  0.8776
11990TIP3    H257462   1.185   2.310   1.888  2.0585 -1.3895  0.4873
11991TIP3   OH257463   3.085   4.446  16.593 -0.1103 -0.2952 -0.0002
11991TIP3    H157464   3.152   4.382  16.619  0.6924  0.7423  0.5380
11991TIP3    H257465   3.099   4.520  16.651 -1.2306  0.2650 -0.4185
11992TIP3   OH257466   1.931   4.320   1.614 -0.1376  0.4494 -0.3711
11992TIP3    H157467   1.927   4.364   1.530  0.4176 -0.8978 -1.1302
11992TIP3    H257468   2.025   4.310   1.632 -0.2452 -0.2707 -0.1536
11993TIP3   OH257469   3.819   5.885  16.809 -0.5777 -0.0894 -0.6072
11993TIP3    H157470   3.771   5.860  16.889 -2.5041  1.8715 -1.0677
11993TIP3    H257471   3.772   5.841  16.738 -1.7031  1.7498 -1.0538
11994TIP3   OH257472   5.261   4.610  15.841  0.1908 -0.5160 -0.4023
11994TIP3    H157473   5.290   4.537  15.896  1.1281  0.6558  0.7382
11994TIP3    H257474   5.180   4.640  15.882  1.0380  0.5366  0.5593
11995TIP3   OH257475   6.343   0.344  14.149  0.1169 -0.2389 -0.1085
11995TIP3    H157476   6.333   0.313  14.239  0.6636 -0.2199 -0.0361
11995TIP3    H257477   6.254   0.360  14.119 -0.2660 -2.4876 -0.3602
11996TIP3   OH257478   0.806   4.311  12.347  0.3963  0.0521 -0.7652
11996TIP3    H157479   0.767   4.342  12.428 -1.0872 -0.9738 -1.0564
11996TIP3    H257480   0.881   4.369  12.333  0.0153  0.9576  0.7254
11997TIP3   OH257481   5.615   0.113  14.474 -0.2250 -0.1322 -0.0879
11997TIP3    H157482   5.691   0.089  14.421 -0.4485 -0.0649 -0.4453
11997TIP3    H257483   5.644   0.102  14.564  0.7842  1.5724 -0.1585
11998TIP3   OH257484   0.931   1.628  14.353 -0.1742 -0.1338 -0.1170
11998TIP3    H157485   0.874   1.688  14.402  0.5617 -0.1875  0.8222
11998TIP3    H257486   0.882   1.546  14.351 -0.4413  0.0160  0.0749
11999TIP3   OH257487   0.275   5.719  13.299 -0.2716  0.2900 -0.2610
11999TIP3    H157488   0.321   5.794  13.261 -2.6564  1.5420 -0.8642
11999TIP3    H257489   0.321   5.643  13.264  2.4223  1.3926  0.6193
12000TIP3   OH257490   1.427   6.774   4.104 -0.1729  0.8120  0.1275
12000TIP3    H157491   1.482   6.853   4.102  2.8087 -1.1370 -0.7978
12000TIP3    H257492   1.451   6.730   4.185 -1.2918  0.4801  0.2935
12001TIP3   OH257493   2.377   3.538   0.749 -0.5777  0.2159  0.2562
12001TIP3    H157494   2.402   3.446   0.758 -1.2251 -0.0739 -0.6972
12001TIP3    H257495   2.459   3.586   0.760 -0.2146 -0.4778  0.6680
12002TIP3   OH257496   0.602   4.259   0.427  0.0068  0.2360  0.1646
12002TIP3    H157497   0.571   4.282   0.339 -1.3480 -0.4066  0.4538
12002TIP3    H257498   0.626   4.166   0.420 -0.1149  0.1818  0.4782
12003TIP3   OH257499   4.533   4.882  11.386 -0.4349  0.3396 -0.9319
12003TIP3    H157500   4.626   4.905  11.397 -0.7033  0.6148  1.0034
12003TIP3    H257501   4.527   4.854  11.295  2.3880 -3.4628 -0.1921
12004TIP3   OH257502   5.551   0.257  15.467 -0.2953 -0.0306  0.6589
12004TIP3    H157503   5.480   0.210  15.422 -0.8911  1.2508  0.2274
12004TIP3    H257504   5.581   0.195  15.534 -1.0430 -1.0370  0.1019
12005TIP3   OH257505   4.482   0.757   0.442 -0.5188  0.3716 -0.4735
12005TIP3    H157506   4.398   0.743   0.398 -1.1786  0.8047  0.6268
12005TIP3    H257507   4.528   0.820   0.386 -0.6206 -0.3807 -1.4464
12006TIP3   OH257508   4.521   4.276   4.448 -0.0673  0.4903 -0.2610
12006TIP3    H157509   4.554   4.188   4.466 -0.1679  0.6614  0.8239
12006TIP3    H257510   4.526   4.284   4.353 -0.3412 -0.7951 -0.4101
12007TIP3   OH257511   3.902   1.792  13.008  0.4055 -0.3081 -0.4177
12007TIP3    H157512   3.955   1.870  13.024 -0.9022  0.4940  0.1982
12007TIP3    H257513   3.859   1.775  13.092 -0.5390 -0.7501 -0.9771
12008TIP3   OH257514   2.271   0.984   2.314 -0.7304  0.0382  0.5694
12008TIP3    H157515   2.364   0.994   2.295 -0.9837  0.5761 -0.4997
12008TIP3    H257516   2.240   0.921   2.249 -1.0154 -0.5750  1.2808
12009TIP3   OH257517   0.681   1.422  11.259  0.1177 -0.3316 -0.2309
12009TIP3    H157518   0.593   1.456  11.247 -0.2749 -1.3923 -0.4457
12009TIP3    H257519   0.735   1.500  11.275 -0.4680  0.5486 -2.2656
12010TIP3   OH257520   0.416   2.334  15.260  0.4230 -0.0287  1.0380
12010TIP3    H157521   0.385   2.283  15.185  0.0992  1.1774  0.3220
12010TIP3    H257522   0.383   2.423  15.243  1.2163  0.4810  2.1011
12011TIP3   OH257523   5.246   4.845   6.200  0.3867 -0.3859  0.4453
12011TIP3    H157524   5.339   4.869   6.206  0.4615  0.5629 -2.5253
12011TIP3    H257525   5.200   4.928   6.188 -0.5430 -0.9826 -0.3406
12012TIP3   OH257526   0.325   5.924   2.838  0.4240 -0.0970  0.1913
12012TIP3    H157527   0.335   6.005   2.888 -2.5803  0.5511 -0.0793
12012TIP3    H257528   0.286   5.862   2.901  0.2658 -0.5078 -0.3067
12013TIP3   OH257529   5.207   1.889  12.895 -0.8032 -0.0245 -0.1220
12013TIP3    H157530   5.221   1.983  12.895  0.3433 -0.1624  1.1794
12013TIP3    H257531   5.167   1.870  12.980 -0.9397 -0.7271 -0.3292
12014TIP3   OH257532   3.031   3.052   0.665 -0.1740 -0.3616 -0.3928
12014TIP3    H157533   3.089   3.082   0.735 -0.7651 -0.2636  0.0648
12014TIP3    H257534   2.943   3.070   0.698 -0.4552 -0.0785 -1.2695
12015TIP3   OH257535   0.199   1.025  12.852  0.6448  0.0862 -0.2422
12015TIP3    H157536   0.112   1.048  12.886  0.2661 -0.6095 -0.7109
12015TIP3    H257537   0.219   0.941  12.893 -0.0208 -0.9975 -2.0301
12016TIP3   OH257538   1.680   4.393   2.710 -0.7954  0.1311  0.1251
12016TIP3    H157539   1.638   4.378   2.626 -0.6222 -0.5643  0.1528
12016TIP3    H257540   1.773   4.377   2.694 -0.7922 -0.2532  0.5001
12017TIP3   OH257541   0.662   3.249  12.851  0.1633 -0.0713 -0.3817
12017TIP3    H157542   0.630   3.340  12.849  0.7486  0.1772  0.9825
12017TIP3    H257543   0.600   3.202  12.796 -1.0027  0.9008  0.0425
12018TIP3   OH257544   5.394   3.085   2.836 -0.1615 -0.0458  1.0533
12018TIP3    H157545   5.400   3.179   2.850  0.3653  0.0159  0.4743
12018TIP3    H257546   5.386   3.075   2.741  2.8262 -0.6917  0.7755
12019TIP3   OH257547   4.237   4.125  15.865 -0.4554  0.0414 -0.3147
12019TIP3    H157548   4.241   4.034  15.894  1.0277  0.2730  0.2882
12019TIP3    H257549   4.176   4.167  15.926  0.6942 -0.0473  0.9579
12020TIP3   OH257550   5.213   0.127  16.705  0.0585  0.2127  0.0114
12020TIP3    H157551   5.237   0.068  16.776  1.1023 -0.4879 -0.8866
12020TIP3    H257552   5.129   0.093  16.674 -0.0021  0.0230  0.3707
12021TIP3   OH257553   6.046   4.200  12.324  0.5558 -0.2134  0.2628
12021TIP3    H157554   6.050   4.120  12.376  2.0316  0.9865  2.1243
12021TIP3    H257555   6.114   4.190  12.258  1.5564 -0.0304  1.2446
12022TIP3   OH257556   6.199   3.644  15.715 -0.4658  0.6246  0.1791
12022TIP3    H157557   6.171   3.657  15.805 -0.0787 -0.8536  0.5371
12022TIP3    H257558   6.190   3.549  15.700  1.2346  0.5566 -0.7151
12023TIP3   OH257559   6.041   4.480   3.444  0.0627 -0.3107  0.1266
12023TIP3    H157560   6.002   4.452   3.362 -0.2844 -1.3155  0.6172
12023TIP3    H257561   6.043   4.575   3.439 -0.5683 -0.3371 -0.7597
12024TIP3   OH257562   6.734   4.882   1.042  0.1638 -0.5936 -0.9734
12024TIP3    H157563   6.801   4.835   1.092  0.2925  0.3564 -0.2257
12024TIP3    H257564   6.760   4.871   0.951 -0.0443 -2.3107 -0.8505
12025TIP3   OH257565   1.512   6.198  14.116 -0.1298 -0.4388  0.1148
12025TIP3    H157566   1.593   6.204  14.166  0.2346 -1.0490 -0.3999
12025TIP3    H257567   1.472   6.116  14.145  0.7702 -1.5275 -1.5854
12026TIP3   OH257568   5.963   1.732  13.388  0.3576 -0.0997 -0.1805
12026TIP3    H157569   5.897   1.764  13.450  0.2386 -0.8963  0.1212
12026TIP3    H257570   5.913   1.680  13.325  0.8708 -2.6026  1.3074
12027TIP3   OH257571   4.721   3.455  14.786 -0.2198  0.0514 -0.3554
12027TIP3    H157572   4.775   3.382  14.757  0.2289  0.4732 -0.5959
12027TIP3    H257573   4.771   3.495  14.857 -0.5692 -0.0106 -0.0721
12028TIP3   OH257574   0.182   2.193   0.993 -0.1076 -0.2328 -0.6360
12028TIP3    H157575   0.191   2.250   1.069 -0.4382 -0.7976 -0.1572
12028TIP3    H257576   0.262   2.205   0.944 -0.7152  1.6167 -1.2394
12029TIP3   OH257577   2.172   1.179   2.969  0.0793  0.3681  0.1121
12029TIP3    H157578   2.099   1.164   3.029 -0.1186 -0.5877 -0.3468
12029TIP3    H257579   2.203   1.268   2.990 -0.6667  0.4575  0.8824
12030TIP3   OH257580   2.121   6.502   3.457  0.2578 -0.5483  0.5695
12030TIP3    H157581   2.158   6.540   3.378 -0.3538 -1.7569 -0.3355
12030TIP3    H257582   2.121   6.574   3.521  0.6317  0.4840 -0.5585
12031TIP3   OH257583   5.409   0.821   0.122 -0.2907  0.5744 -0.1552
12031TIP3    H157584   5.348   0.765   0.169  0.5213 -0.7332 -0.6150
12031TIP3    H257585   5.353   0.877   0.068 -1.0930 -1.0814 -1.1058
12032TIP3   OH257586   1.614   3.195   0.078 -0.1336  0.3191 -0.2611
12032TIP3    H157587   1.631   3.229   0.165 -0.3913  0.5734 -0.3073
12032TIP3    H257588   1.523   3.164   0.081  0.3103 -1.0366 -0.0111
12033TIP3   OH257589   0.713   3.807   5.354 -0.5790 -0.1156 -0.0068
12033TIP3    H157590   0.709   3.894   5.313 -0.9495 -0.5400 -0.9124
12033TIP3    H257591   0.752   3.822   5.440 -0.5264  0.9294 -0.2025
12034TIP3   OH257592   4.485   3.093   3.422 -0.3662 -0.8016  0.0661
12034TIP3    H157593   4.426   3.038   3.370 -2.6381  0.2420  1.4237
12034TIP3    H257594   4.509   3.038   3.496 -0.9940 -0.6617  0.3750
12035TIP3   OH257595   2.914   6.641  13.841 -0.2876 -0.3970  0.1286
12035TIP3    H157596   2.858   6.575  13.881 -0.9011  0.2398  0.3420
12035TIP3    H257597   2.876   6.725  13.869  0.0101  0.0516 -0.7745
12036TIP3   OH257598   2.007   1.828  15.174  0.4027  0.3567  0.3152
12036TIP3    H157599   1.930   1.828  15.117  1.7913  1.1406 -1.6766
12036TIP3    H257600   2.015   1.737  15.204 -1.8187  0.4479  1.4184
12037TIP3   OH257601   5.358   6.404  12.888 -0.0508  0.6114  0.1747
12037TIP3    H157602   5.406   6.486  12.897 -0.6918  1.2421 -1.7141
12037TIP3    H257603   5.334   6.380  12.978  0.5479  2.2373  0.7969
12038TIP3   OH257604   5.767   5.411   5.752  0.0613 -0.1130  0.1670
12038TIP3    H157605   5.833   5.450   5.809 -1.2090 -0.7914  2.2027
12038TIP3    H257606   5.692   5.470   5.757 -1.6089 -2.2408  2.6826
12039TIP3   OH257607   5.872   4.657   3.970  0.2450  0.2457  0.2925
12039TIP3    H157608   5.886   4.749   3.990  1.7358  0.3181 -0.9426
12039TIP3    H257609   5.959   4.618   3.970 -0.0740 -0.5917 -1.7571
12040TIP3   OH257610   1.441   4.835   3.632 -0.0275  0.5867  0.0603
12040TIP3    H157611   1.361   4.783   3.646 -0.9118  2.2793  1.5993
12040TIP3    H257612   1.512   4.776   3.655 -0.8609 -0.6843 -0.4922
12041TIP3   OH257613   4.741   2.204   3.003  0.1753 -0.0177  0.1181
12041TIP3    H157614   4.753   2.256   3.082 -0.2586 -2.0392  1.5983
12041TIP3    H257615   4.822   2.155   2.994 -0.6188 -1.4812  0.6569
12042TIP3   OH257616   1.705   0.882  12.210  0.0016  0.1402 -0.8941
12042TIP3    H157617   1.651   0.959  12.227  0.8919  0.6315 -0.2677
12042TIP3    H257618   1.642   0.816  12.180 -1.0474  0.5082  0.3917
12043TIP3   OH257619   1.301   3.999   2.280  0.4016  0.1374 -0.1371
12043TIP3    H157620   1.210   3.981   2.304  0.7614 -2.0506 -0.2350
12043TIP3    H257621   1.329   4.066   2.342 -1.1790  0.6879  0.0458
12044TIP3   OH257622   3.835   2.810  13.616  0.2663  0.1362 -0.0230
12044TIP3    H157623   3.881   2.837  13.537  0.0821 -1.1881 -0.6093
12044TIP3    H257624   3.904   2.796  13.681  0.7031 -1.5266 -0.7998
12045TIP3   OH257625   3.233   2.748   5.902 -0.5828 -0.2820  1.0277
12045TIP3    H157626   3.238   2.674   5.962  1.3640  0.0529  1.3299
12045TIP3    H257627   3.199   2.820   5.955  0.5854 -0.1368  1.5991
12046TIP3   OH257628   3.766   1.358  14.554 -0.0716  0.0143  0.2797
12046TIP3    H157629   3.742   1.397  14.470  0.8961 -0.3945 -0.2044
12046TIP3    H257630   3.858   1.381  14.565 -0.5105  1.1673  1.8644
12047TIP3   OH257631   1.315   0.644  12.715 -0.2688  0.9499  0.1884
12047TIP3    H157632   1.244   0.606  12.767 -0.0352  1.1172  0.6352
12047TIP3    H257633   1.271   0.687  12.642 -0.5912  0.5615  0.1537
12048TIP3   OH257634   1.579   2.664  12.549 -0.1088  0.7214  0.2446
12048TIP3    H157635   1.651   2.620  12.504 -0.1550 -0.6931  1.4815
12048TIP3    H257636   1.530   2.707  12.479 -1.5275 -3.2554 -1.4949
12049TIP3   OH257637   2.323   0.292   0.122 -0.0540 -0.4230 -0.3468
12049TIP3    H157638   2.333   0.319   0.031 -0.4769 -0.3562 -0.3756
12049TIP3    H257639   2.230   0.270   0.131  0.6473 -4.7214 -1.1140
12050TIP3   OH257640   2.191   5.939   5.623 -0.5257 -0.4768 -0.2870
12050TIP3    H157641   2.257   5.979   5.566  0.0898 -0.7039  0.2480
12050TIP3    H257642   2.116   5.998   5.618  0.1496  0.4370  0.0141
12051TIP3   OH257643   4.219   3.165  14.887 -0.9380 -0.0969 -0.3742
12051TIP3    H157644   4.300   3.157  14.838  0.1997 -0.1755  1.4302
12051TIP3    H257645   4.193   3.075  14.906  0.3260 -0.0912  1.7337
12052TIP3   OH257646   6.738   1.617  15.010  0.2030  0.7482 -0.3347
12052TIP3    H157647   6.692   1.695  14.980 -0.1031  0.2954 -1.0842
12052TIP3    H257648   6.689   1.588  15.087 -0.1238  0.8805 -0.4916
12053TIP3   OH257649   3.232   5.003   0.932  0.3909 -0.0359  0.2879
12053TIP3    H157650   3.183   4.939   0.983 -0.0598  0.0571 -0.0211
12053TIP3    H257651   3.214   5.087   0.974 -1.7203  0.3542 -1.2493
12054TIP3   OH257652   6.196   4.735  15.056  0.4589  0.2130 -0.3199
12054TIP3    H157653   6.194   4.683  15.136  0.5445 -1.6134 -1.4600
12054TIP3    H257654   6.134   4.806  15.072 -0.3474 -0.7307  0.9485
12055TIP3   OH257655   4.450   5.080  17.201  0.3535  0.0889  0.5554
12055TIP3    H157656   4.487   5.067  17.288 -0.4199 -0.7741  0.7700
12055TIP3    H257657   4.478   5.169  17.176  1.0830  0.1184  1.4192
12056TIP3   OH257658   6.244   0.322   5.302  0.2838  0.0384  0.3872
12056TIP3    H157659   6.331   0.343   5.335  0.1100 -1.2064  1.6870
12056TIP3    H257660   6.247   0.348   5.209  1.2691  2.1759  0.9429
12057TIP3   OH257661   2.740   2.820   0.863 -0.1036  0.6964  0.3354
12057TIP3    H157662   2.652   2.818   0.901  0.0464  0.9293  0.6926
12057TIP3    H257663   2.745   2.739   0.812 -0.0121 -0.0554  1.4874
12058TIP3   OH257664   5.602   1.433   4.007 -0.4365  0.0047  0.1353
12058TIP3    H157665   5.669   1.426   4.075  0.3772 -0.6247 -0.6957
12058TIP3    H257666   5.580   1.526   4.004  0.2398  0.1861  0.5812
12059TIP3   OH257667   2.250   1.369   3.934 -0.3636  0.0658  0.5413
12059TIP3    H157668   2.325   1.312   3.918 -0.8160  0.1851 -2.4446
12059TIP3    H257669   2.174   1.315   3.917 -0.8788  0.8210  0.3980
12060TIP3   OH257670   5.431   0.468  15.322 -0.3534 -0.1413  0.3443
12060TIP3    H157671   5.352   0.500  15.366 -0.1999  0.8714 -0.0692
12060TIP3    H257672   5.485   0.432  15.392 -0.0676  1.5397  1.0466
12061TIP3   OH257673   1.874   5.779   6.238  0.1801 -0.5943 -0.0857
12061TIP3    H157674   1.855   5.784   6.332 -1.0135  2.5956 -0.3375
12061TIP3    H257675   1.920   5.697   6.226 -0.0053 -1.3050  3.2226
12062TIP3   OH257676   2.346   4.490  13.340 -0.2950  0.1964 -0.6315
12062TIP3    H157677   2.440   4.491  13.323 -0.1489 -0.7044  0.0294
12062TIP3    H257678   2.339   4.459  13.431 -1.2658 -0.9933 -1.0774
12063TIP3   OH257679   5.022   1.042  12.819  0.6572 -0.4124  0.2835
12063TIP3    H157680   5.115   1.047  12.797  0.6536  1.7005  0.5424
12063TIP3    H257681   4.990   1.131  12.807 -1.8311 -1.4931 -1.7868
12064TIP3   OH257682   4.193   6.261  10.410 -0.0077  0.0182  0.3593
12064TIP3    H157683   4.283   6.244  10.382 -0.3284 -1.5237  0.2076
12064TIP3    H257684   4.142   6.187  10.377 -1.2132  0.4699  1.1036
12065TIP3   OH257685   6.810   5.717  15.478 -0.3619 -0.6692 -0.0358
12065TIP3    H157686   6.802   5.640  15.422  2.3322 -0.5658 -0.6707
12065TIP3    H257687   6.882   5.768  15.441 -1.8511  2.0766  0.5265
12066TIP3   OH257688   3.093   2.063  13.458  0.3357 -0.4347  0.7946
12066TIP3    H157689   3.113   1.970  13.445 -1.4253 -0.9917  1.8276
12066TIP3    H257690   3.122   2.081  13.548  3.3147  0.8372 -0.2724
12067TIP3   OH257691   3.568   5.038  14.479 -0.0680 -0.0533  0.1642
12067TIP3    H157692   3.555   5.054  14.573 -0.2069 -0.5074  0.2276
12067TIP3    H257693   3.570   5.125  14.440 -3.2722  0.1193  0.1483
12068TIP3   OH257694   1.411   0.931  14.886  0.0570  0.1336 -0.3167
12068TIP3    H157695   1.376   0.912  14.973 -0.4492  0.3625 -0.4686
12068TIP3    H257696   1.381   0.857  14.832  0.8708 -0.3178 -0.1721
12069TIP3   OH257697   3.389   3.226  12.419  0.8246  0.3240  0.2070
12069TIP3    H157698   3.429   3.309  12.393  2.0856 -0.2418  0.2636
12069TIP3    H257699   3.344   3.246  12.501 -2.5574  1.9548 -1.7818
12070TIP3   OH257700   3.997   0.688   1.727 -0.8677  0.2658  0.5621
12070TIP3    H157701   3.956   0.614   1.772 -0.8998 -0.7635 -1.0901
12070TIP3    H257702   4.089   0.664   1.719 -0.3580  1.4848  2.0659
12071TIP3   OH257703   1.704   3.916   5.659 -0.1998  0.3758  0.4398
12071TIP3    H157704   1.614   3.938   5.684 -1.1842 -2.8346  0.2670
12071TIP3    H257705   1.752   3.915   5.742 -0.7786  0.3987  0.7853
12072TIP3   OH257706   2.372   0.898   3.164 -0.4262 -0.2473 -0.7640
12072TIP3    H157707   2.279   0.897   3.141 -0.5695  0.5955 -0.2799
12072TIP3    H257708   2.411   0.958   3.100 -0.4055  0.2021 -0.3396
12073TIP3   OH257709   3.965   5.153  14.482 -0.1082  0.1998 -0.3766
12073TIP3    H157710   4.053   5.146  14.520  0.0820  0.4358 -0.7673
12073TIP3    H257711   3.937   5.063  14.469  0.1210  0.1247 -0.3522
12074TIP3   OH257712   5.850   6.436  13.445  0.0409 -0.0818  0.3190
12074TIP3    H157713   5.769   6.487  13.457  0.1177 -0.3092  2.1519
12074TIP3    H257714   5.914   6.482  13.499  0.7188 -0.8147  0.1389
12075TIP3   OH257715   1.192   2.203  14.450 -0.2838 -0.1580  0.3616
12075TIP3    H157716   1.237   2.279  14.414  1.6257 -0.9359  0.9816
12075TIP3    H257717   1.123   2.184  14.386 -0.2672  1.5686 -0.2166
12076TIP3   OH257718   3.707   0.773  13.550 -0.1501 -0.0948 -0.2331
12076TIP3    H157719   3.699   0.788  13.644  0.1819 -2.3369  0.2203
12076TIP3    H257720   3.618   0.779  13.516 -0.6635 -1.8318  0.7123
12077TIP3   OH257721   3.514   0.839   4.095 -0.5832  0.0675  0.1111
12077TIP3    H157722   3.523   0.915   4.153  0.2576  0.0087  0.0743
12077TIP3    H257723   3.553   0.867   4.012  2.1227 -1.1894  0.8450
12078TIP3   OH257724   3.397   3.298   3.257  0.7693  0.3887  0.6825
12078TIP3    H157725   3.382   3.391   3.277  1.1307  0.7354 -0.6094
12078TIP3    H257726   3.481   3.296   3.213 -0.6817 -0.1111 -2.2963
12079TIP3   OH257727   2.352   2.765   5.527 -0.2159 -0.4476 -0.1215
12079TIP3    H157728   2.429   2.801   5.484 -0.2738 -0.8335 -0.5630
12079TIP3    H257729   2.304   2.841   5.561  1.2481 -0.2758  1.7362
12080TIP3   OH257730   0.710   0.672  11.289  0.8976  0.2291 -0.3584
12080TIP3    H157731   0.760   0.750  11.314  0.7761  0.0375  0.5323
12080TIP3    H257732   0.618   0.700  11.294  0.8499  1.0820 -3.6393
12081TIP3   OH257733   3.466   0.648   2.844  0.1815 -0.4233 -0.8734
12081TIP3    H157734   3.424   0.622   2.925  2.2074 -0.3257  0.2718
12081TIP3    H257735   3.418   0.726   2.816 -0.6756 -0.5836  0.1016
12082TIP3   OH257736   5.304   6.377  12.242 -0.1794  0.1688  0.0319
12082TIP3    H157737   5.274   6.425  12.319  0.3619 -0.5766  0.7206
12082TIP3    H257738   5.224   6.348  12.198 -0.5249 -1.8961  1.8908
12083TIP3   OH257739   3.230   0.455  13.719 -0.6635  0.0835  0.5948
12083TIP3    H157740   3.210   0.404  13.797  3.2395 -0.0767  1.6968
12083TIP3    H257741   3.201   0.400  13.646 -2.4385 -0.7143  1.8419
12084TIP3   OH257742   6.290   5.459   4.319 -0.2708 -0.2355  0.2251
12084TIP3    H157743   6.268   5.366   4.322  0.5305 -0.4269  0.4667
12084TIP3    H257744   6.258   5.489   4.234 -1.3157 -0.5217  0.5080
12085TIP3   OH257745   3.638   0.919  13.989 -0.4826  0.5296 -0.2819
12085TIP3    H157746   3.709   0.941  14.049  0.8623  0.3936 -1.7591
12085TIP3    H257747   3.578   0.994  13.994 -1.2723 -0.1574  2.3601
12086TIP3   OH257748   4.041   0.655  17.200  0.4787 -0.4263  0.0290
12086TIP3    H157749   4.093   0.599  17.142  0.3766 -0.6160  0.1233
12086TIP3    H257750   4.061   0.744  17.170  0.1942 -0.5340 -0.4989
12087TIP3   OH257751   5.638   2.607   1.310  0.0864  0.5507  0.5542
12087TIP3    H157752   5.568   2.634   1.371 -1.2811  1.3615 -1.2721
12087TIP3    H257753   5.636   2.511   1.313 -1.0155  0.5600  0.6664
12088TIP3   OH257754   4.707   2.734   5.742 -0.6889  0.4970 -0.3242
12088TIP3    H157755   4.619   2.745   5.779 -1.0586 -0.6959 -0.8126
12088TIP3    H257756   4.696   2.751   5.649 -1.0279 -2.3345 -0.8931
12089TIP3   OH257757   2.573   1.828   4.961 -0.4128 -0.4445  0.2462
12089TIP3    H157758   2.517   1.753   4.939 -1.2275  0.3809 -0.5779
12089TIP3    H257759   2.657   1.788   4.987 -0.6792 -1.6232 -0.6073
12090TIP3   OH257760   1.740   1.026  15.327 -0.0462 -0.1130 -0.5683
12090TIP3    H157761   1.735   0.936  15.294  0.0741 -0.3797  0.1199
12090TIP3    H257762   1.656   1.040  15.371  0.6778 -0.5931  1.0423
12091TIP3   OH257763   4.636   4.903   1.298  0.3159  0.7634  0.0243
12091TIP3    H157764   4.578   4.898   1.373 -0.7897  0.0245 -0.8356
12091TIP3    H257765   4.686   4.821   1.301  1.8468  1.6851  1.1329
12092TIP3   OH257766   3.681   2.635  13.798 -0.1996  0.1988 -0.2664
12092TIP3    H157767   3.679   2.708  13.859  0.0219 -0.6070  0.7334
12092TIP3    H257768   3.721   2.671  13.718 -0.9984  1.3987 -0.1382
12093TIP3   OH257769   3.105   3.154   2.437 -0.3318  0.1762  0.5748
12093TIP3    H157770   3.109   3.158   2.341  1.0168  1.1947  0.6542
12093TIP3    H257771   3.191   3.122   2.463 -0.6690 -0.0315  1.4633
12094TIP3   OH257772   1.027   5.155  12.245  0.5037 -0.1990  0.1350
12094TIP3    H157773   0.987   5.075  12.278 -0.2918  0.5147  0.9495
12094TIP3    H257774   1.113   5.159  12.287  0.1275 -0.1063  0.9181
12095TIP3   OH257775   4.990   5.849  13.082 -0.1361  0.2553 -1.2945
12095TIP3    H157776   4.903   5.832  13.118  0.0939  1.4740 -0.0818
12095TIP3    H257777   5.003   5.779  13.018 -0.6176 -2.0236  0.9076
12096TIP3   OH257778   1.339   4.591   2.397  0.0915  0.1678 -0.7681
12096TIP3    H157779   1.343   4.520   2.333  0.5855 -1.3353  0.8875
12096TIP3    H257780   1.284   4.658   2.354  0.8079 -0.5459 -2.9551
12097TIP3   OH257781   6.481   5.456  11.443  0.5106 -0.4057 -1.0207
12097TIP3    H157782   6.475   5.385  11.507  1.1101  1.1220  0.8366
12097TIP3    H257783   6.543   5.425  11.377  0.0950 -1.9269 -0.7281
12098TIP3   OH257784   1.673   1.585   6.471  0.0765 -0.0362  0.6788
12098TIP3    H157785   1.767   1.604   6.480  0.5743 -2.5924  1.5779
12098TIP3    H257786   1.669   1.514   6.407 -1.4604  1.2874 -0.7771
12099TIP3   OH257787   3.599   2.528  14.274 -0.5640  0.4251 -0.4845
12099TIP3    H157788   3.564   2.607  14.316  0.2688  0.4470  0.2046
12099TIP3    H257789   3.522   2.478  14.249 -1.0981  1.0528 -0.1512
12100TIP3   OH257790   0.746   0.539   2.855  0.3757 -1.0299 -0.1279
12100TIP3    H157791   0.810   0.529   2.785  1.3472 -0.2090  0.6056
12100TIP3    H257792   0.722   0.632   2.854 -1.3764 -1.4567 -0.8480
12101TIP3   OH257793   1.187   4.460  15.197  0.8778  0.2578 -0.4704
12101TIP3    H157794   1.214   4.465  15.105  1.3432 -0.7495 -0.4107
12101TIP3    H257795   1.145   4.374  15.204  1.0583  0.2292  0.3067
12102TIP3   OH257796   6.546   0.594  14.128 -0.1865  0.1595  0.4150
12102TIP3    H157797   6.517   0.506  14.102  0.5386  0.0293  0.0213
12102TIP3    H257798   6.490   0.653  14.078  1.5585 -0.0770 -1.9983
12103TIP3   OH257799   1.226   2.422  13.064  0.0264 -0.1136  0.0863
12103TIP3    H157800   1.211   2.403  13.157  0.0576  1.2158  0.3879
12103TIP3    H257801   1.267   2.509  13.064 -1.5082  0.6557 -1.2640
12104TIP3   OH257802   0.585   4.027   3.937 -0.3219  0.6946 -0.2011
12104TIP3    H157803   0.549   4.116   3.932  1.1132  1.2277 -2.0908
12104TIP3    H257804   0.623   4.012   3.851  0.9372 -1.1331  0.6252
12105TIP3   OH257805   6.808   6.267   2.582  0.5664 -0.0765 -0.5876
12105TIP3    H157806   6.833   6.193   2.526  0.7117 -1.3902  1.1310
12105TIP3    H257807   6.872   6.267   2.652 -1.1555 -0.2115  1.0703
12106TIP3   OH257808   0.898   3.894  12.407 -0.4365  0.2453  0.4359
12106TIP3    H157809   0.832   3.825  12.412 -0.1052 -0.3389 -1.7986
12106TIP3    H257810   0.851   3.974  12.430 -1.7861 -0.2461 -0.4471
12107TIP3   OH257811   5.589   4.633   1.800 -0.0863  0.6218  0.7260
12107TIP3    H157812   5.648   4.586   1.859  0.1224 -0.3959 -0.2670
12107TIP3    H257813   5.632   4.628   1.714 -2.3795 -1.6159 -0.4049
12108TIP3   OH257814   4.786   4.535   4.413  0.1245  0.2418 -0.9130
12108TIP3    H157815   4.794   4.474   4.340 -0.1434  0.2345 -0.9368
12108TIP3    H257816   4.788   4.480   4.491  1.3391  0.3206 -0.8634
12109TIP3   OH257817   2.857   0.569   5.158 -0.2957  0.0822  0.6156
12109TIP3    H157818   2.825   0.618   5.083  0.7094 -2.4550 -1.6403
12109TIP3    H257819   2.952   0.566   5.146 -0.1791 -0.9638  1.6112
12110TIP3   OH257820   0.339   1.918  12.412 -0.1982 -0.1589  0.1811
12110TIP3    H157821   0.362   1.837  12.367  0.0295 -0.4327  0.7736
12110TIP3    H257822   0.286   1.967  12.349 -2.0536 -1.6354  0.5326
12111TIP3   OH257823   3.041   4.837  12.212  0.2017 -0.4615  0.3581
12111TIP3    H157824   3.061   4.808  12.123 -2.1508  0.9343 -0.7017
12111TIP3    H257825   3.103   4.908  12.229  0.3587 -0.4240 -0.3521
12112TIP3   OH257826   5.779   2.991  15.057 -0.1023 -0.4160 -0.2974
12112TIP3    H157827   5.696   3.018  15.018  0.2611 -1.3240 -1.7878
12112TIP3    H257828   5.845   3.016  14.992  0.6392 -0.9806  0.2240
12113TIP3   OH257829   5.691   5.993  15.533 -0.2568  0.1516  0.3916
12113TIP3    H157830   5.712   5.931  15.464  1.6224 -1.3907  2.2019
12113TIP3    H257831   5.617   5.953  15.579 -0.7840  0.6184 -0.0422
12114TIP3   OH257832   2.738   0.916  15.102  0.1685  0.2740 -0.2721
12114TIP3    H157833   2.817   0.970  15.104  0.4792 -0.1397 -0.9085
12114TIP3    H257834   2.671   0.972  15.063  0.1319  0.6450  0.3220
12115TIP3   OH257835   0.843   0.831   1.101  0.0132  0.3630  0.8993
12115TIP3    H157836   0.930   0.858   1.071  0.4978 -0.3884  1.5908
12115TIP3    H257837   0.858   0.748   1.145 -1.0789  0.1855  0.9529
12116TIP3   OH257838   0.225   0.390  12.366  0.1805  0.3030 -0.2185
12116TIP3    H157839   0.225   0.334  12.288 -1.6581 -0.9790  0.6498
12116TIP3    H257840   0.274   0.468  12.339 -1.1690  0.3188 -2.9733
12117TIP3   OH257841   2.800   2.930   1.131 -0.1033  0.3742 -0.2374
12117TIP3    H157842   2.820   3.018   1.100 -0.6949  0.7814  0.5150
12117TIP3    H257843   2.835   2.872   1.062  0.1657  1.1885 -0.8031
12118TIP3   OH257844   0.326   0.186   1.872  0.3626 -0.2606 -0.2595
12118TIP3    H157845   0.420   0.169   1.860  0.2600 -1.8991  1.0221
12118TIP3    H257846   0.321   0.233   1.955  0.0497 -0.1958 -0.3173
12119TIP3   OH257847   0.659   3.278   4.851  0.5179 -0.2443 -0.2232
12119TIP3    H157848   0.673   3.356   4.798  0.7082 -0.0478  0.1102
12119TIP3    H257849   0.660   3.205   4.788  3.3800 -0.2962 -0.2413
12120TIP3   OH257850   3.903   6.575   4.117 -0.7913 -0.3771  0.1431
12120TIP3    H157851   3.819   6.531   4.105 -0.9815  0.4146 -1.7493
12120TIP3    H257852   3.953   6.553   4.038  0.0067  0.8301  0.2866
12121TIP3   OH257853   5.444   3.007  17.181 -0.9596 -0.6782 -0.4050
12121TIP3    H157854   5.477   3.020  17.270  1.7321 -0.1335 -1.3987
12121TIP3    H257855   5.451   2.913  17.166  0.1330 -0.5756 -0.5806
12122TIP3   OH257856   5.601   5.454  16.726  0.2358  0.4911 -0.3518
12122TIP3    H157857   5.562   5.529  16.681  0.4203  0.0216 -1.3340
12122TIP3    H257858   5.629   5.488  16.810  0.4920  1.5723 -0.8580
12123TIP3   OH257859   5.174   2.196   6.049  0.2994 -0.7072 -0.4880
12123TIP3    H157860   5.139   2.285   6.053  2.9337  0.4211 -0.5140
12123TIP3    H257861   5.233   2.190   6.125  1.1109 -1.9856 -1.1875
12124TIP3   OH257862   3.793   0.359  12.065 -0.5449 -0.5172  0.3533
12124TIP3    H157863   3.844   0.432  12.029  0.0569 -1.3836 -0.6249
12124TIP3    H257864   3.854   0.314  12.124  0.2478 -2.1429 -1.5745
12125TIP3   OH257865   4.410   5.545  15.011 -0.3954  0.8236  0.1324
12125TIP3    H157866   4.360   5.601  14.952  0.1507  1.0396 -0.1338
12125TIP3    H257867   4.369   5.558  15.097 -0.3458  1.5451  0.0548
12126TIP3   OH257868   0.615   3.633  13.434 -0.2557  0.5765  0.0477
12126TIP3    H157869   0.579   3.556  13.479  0.2012 -0.4357 -1.2767
12126TIP3    H257870   0.703   3.607  13.409 -0.0138  1.6282 -0.2128
12127TIP3   OH257871   0.032   6.482  16.778 -0.0918  0.6961 -0.1936
12127TIP3    H157872   0.013   6.501  16.870 -1.0454  3.4779 -0.8593
12127TIP3    H257873  -0.028   6.411  16.755  1.5511 -1.4984  1.7377
12128TIP3   OH257874   5.991   2.542   2.265  0.1904 -0.1954 -0.1799
12128TIP3    H157875   6.083   2.533   2.239  0.1381 -0.6571 -0.2049
12128TIP3    H257876   5.994   2.594   2.345  0.4774 -0.2478 -0.1566
12129TIP3   OH257877   3.594   3.935   2.003  0.0077  0.0181  0.4445
12129TIP3    H157878   3.510   3.957   1.962  0.1812 -0.6278 -0.2595
12129TIP3    H257879   3.647   3.898   1.933  1.1619  1.0849  0.7086
12130TIP3   OH257880   2.179   3.016   5.542 -0.2738 -0.3967 -0.3009
12130TIP3    H157881   2.148   3.101   5.508 -0.5349  0.0172  0.8928
12130TIP3    H257882   2.101   2.978   5.584  0.6092  0.3916  2.2427
12131TIP3   OH257883   4.326   6.155   4.890  0.2142  0.1635 -0.4572
12131TIP3    H157884   4.362   6.067   4.898 -0.2575  0.0936  1.2487
12131TIP3    H257885   4.386   6.210   4.940 -1.3921  0.2058  1.5571
12132TIP3   OH257886   5.789   5.221  15.294  0.0895 -0.3033 -0.0185
12132TIP3    H157887   5.767   5.240  15.202  0.5636 -0.5242 -0.1819
12132TIP3    H257888   5.855   5.151  15.289 -1.1192 -1.5262  0.5420
12133TIP3   OH257889   3.033   1.083  11.115  0.5422  0.3040 -0.3264
12133TIP3    H157890   3.029   1.110  11.206  0.6545  0.6178 -0.4126
12133TIP3    H257891   3.014   0.990  11.116 -1.8451  0.7259 -0.2178
12134TIP3   OH257892   3.573   3.803   1.070 -0.4384 -0.0683  0.0462
12134TIP3    H157893   3.520   3.820   0.993 -0.2715  0.4946  0.0512
12134TIP3    H257894   3.518   3.830   1.144 -0.8052 -1.1126  0.1608
12135TIP3   OH257895   2.067   0.180  17.085  0.5554 -0.5207  0.2535
12135TIP3    H157896   2.037   0.109  17.028 -0.3830 -0.0775  0.1832
12135TIP3    H257897   2.133   0.227  17.033 -0.3091 -0.1016 -0.4903
12136TIP3   OH257898   0.322   0.774  13.920  0.1457 -0.0309 -0.1206
12136TIP3    H157899   0.275   0.787  14.002  0.0561  1.0241 -0.3234
12136TIP3    H257900   0.259   0.798  13.852  0.1878 -0.9854 -0.5105
12137TIP3   OH257901   4.719   0.745  15.451  0.4650  0.5920  0.6659
12137TIP3    H157902   4.707   0.814  15.516 -0.5504  0.7191  0.3545
12137TIP3    H257903   4.791   0.776  15.396 -0.2809  1.6303  0.2468
12138TIP3   OH257904   5.813   5.035  12.800 -0.2155  0.3574  0.2056
12138TIP3    H157905   5.818   5.129  12.782  0.8825  0.2653 -0.0451
12138TIP3    H257906   5.883   4.997  12.746 -2.5741 -0.9879 -2.1430
12139TIP3   OH257907   0.227   1.052   2.884  0.0610 -0.0316  0.4277
12139TIP3    H157908   0.284   1.118   2.846 -0.9319  1.2290  1.0564
12139TIP3    H257909   0.269   1.029   2.967 -1.9988  3.5695  2.7218
12140TIP3   OH257910   5.233   0.974   4.336  0.5072  0.7286 -0.1972
12140TIP3    H157911   5.303   0.919   4.371 -1.2564 -0.1341  2.2615
12140TIP3    H257912   5.192   0.920   4.268 -1.0367 -1.0268  2.0043
12141TIP3   OH257913   4.096   1.466  17.097  0.2221 -0.4978 -0.5766
12141TIP3    H157914   4.014   1.501  17.132  1.2134  2.2645 -0.7984
12141TIP3    H257915   4.162   1.494  17.160  1.2396 -1.1664 -1.3231
12142TIP3   OH257916   5.026   0.528  13.603 -0.3546  0.2393  0.0168
12142TIP3    H157917   5.050   0.570  13.521  0.1499 -0.1278 -0.0358
12142TIP3    H257918   5.060   0.438  13.594 -1.6040 -0.2507  0.0282
12143TIP3   OH257919   4.764   3.447   1.214 -0.0533  0.1881  0.4037
12143TIP3    H157920   4.756   3.488   1.300 -0.2008 -0.6922  0.8102
12143TIP3    H257921   4.740   3.517   1.153 -1.4283  0.4059  1.1450
12144TIP3   OH257922   4.906   6.423  15.787  0.4016 -0.2387 -0.0812
12144TIP3    H157923   4.857   6.477  15.849  0.9613 -0.9220  1.0020
12144TIP3    H257924   4.977   6.479  15.757  1.1435 -0.4074  1.2469
12145TIP3   OH257925   5.170   1.758  13.661  0.1830  0.0023  0.2999
12145TIP3    H157926   5.215   1.817  13.721  0.1921  0.5934 -0.2754
12145TIP3    H257927   5.085   1.800  13.645  1.7741  2.3168 -3.6103
12146TIP3   OH257928   5.410   2.357   4.165 -0.0544 -0.2933  0.2762
12146TIP3    H157929   5.480   2.360   4.230  0.7642  2.4237 -0.6237
12146TIP3    H257930   5.455   2.359   4.081 -1.1836 -0.0537 -0.3391
12147TIP3   OH257931   0.377   6.159   4.387 -0.4242 -0.5099  0.0064
12147TIP3    H157932   0.386   6.248   4.422 -0.0444 -0.9174  1.0004
12147TIP3    H257933   0.283   6.142   4.390 -0.5309 -0.0248 -0.4970
12148TIP3   OH257934   4.260   0.303   6.515  0.1577  0.4584 -0.5210
12148TIP3    H157935   4.264   0.209   6.534  1.5352  0.2759 -1.5657
12148TIP3    H257936   4.174   0.330   6.549 -0.3560 -1.2045 -0.3746
12149TIP3   OH257937   4.414   3.434  15.814 -0.3194 -0.0020 -0.1361
12149TIP3    H157938   4.402   3.353  15.766 -0.0374  0.1357 -0.4457
12149TIP3    H257939   4.449   3.495  15.749  1.4326 -0.2103  0.5612
12150TIP3   OH257940   5.490   2.116   5.202 -0.2640  0.3633  0.0199
12150TIP3    H157941   5.545   2.039   5.214  1.7650  1.5881 -0.9398
12150TIP3    H257942   5.489   2.159   5.287 -1.2481 -0.5726  0.5086
12151TIP3   OH257943   0.174   0.258   6.318 -0.1315 -0.1712  0.4954
12151TIP3    H157944   0.170   0.165   6.341  0.0846 -0.7255 -1.4596
12151TIP3    H257945   0.092   0.273   6.269  0.5834  0.2015 -0.6330
12152TIP3   OH257946   1.943   2.634   5.682  0.2141 -0.2748 -0.2683
12152TIP3    H157947   2.010   2.620   5.616  0.5431  0.7744 -0.1824
12152TIP3    H257948   1.985   2.612   5.765  0.1273 -0.5919 -0.3067
12153TIP3   OH257949   3.826   2.517   5.077 -0.3720 -0.4141  0.3205
12153TIP3    H157950   3.825   2.574   5.154 -0.1903 -1.6742  1.2907
12153TIP3    H257951   3.754   2.456   5.092  0.4847 -1.4891  0.1332
12154TIP3   OH257952   3.254   1.424   2.830  0.3504  0.3008  0.1033
12154TIP3    H157953   3.256   1.399   2.923 -1.3930 -1.3352 -0.2464
12154TIP3    H257954   3.317   1.366   2.788  0.4427  0.3906  0.1167
12155TIP3   OH257955   5.629   3.126   4.186 -0.1149 -0.4586  0.0913
12155TIP3    H157956   5.722   3.137   4.163 -0.6209 -0.5652 -2.2228
12155TIP3    H257957   5.617   3.031   4.192  0.0921 -0.4266  1.3139
12156TIP3   OH257958   6.384   0.046  12.764 -0.1719 -0.8336  0.1367
12156TIP3    H157959   6.335   0.080  12.690 -1.8769 -0.9455  1.1670
12156TIP3    H257960   6.473   0.034  12.731 -0.4101  1.0115 -1.3041
12157TIP3   OH257961   4.500   5.633   5.875  0.0408 -0.2656  0.2355
12157TIP3    H157962   4.450   5.553   5.892 -0.4572 -0.1922 -0.7619
12157TIP3    H257963   4.455   5.674   5.801  2.7728 -1.3339 -2.2600
12158TIP3   OH257964   4.787   2.919  15.675  0.2577 -0.0372  0.5898
12158TIP3    H157965   4.799   2.841  15.730 -2.9351 -0.9388  0.2163
12158TIP3    H257966   4.795   2.886  15.585 -0.1248  0.2517  0.4484
12159TIP3   OH257967   5.283   6.584  12.429  0.0339 -0.5250 -0.1582
12159TIP3    H157968   5.259   6.670  12.395  1.6350 -0.8658 -2.4117
12159TIP3    H257969   5.233   6.574  12.509 -0.7850  2.1718 -0.2638
12160TIP3   OH257970   6.460   1.917  16.085  0.2227  0.3982 -0.8198
12160TIP3    H157971   6.404   1.957  16.019 -1.6446 -0.1285  0.3623
12160TIP3    H257972   6.437   1.824  16.084  0.7639  0.2432 -0.0119
12161TIP3   OH257973   6.189   4.363   3.911 -0.5226  0.7094 -0.0848
12161TIP3    H157974   6.145   4.347   3.827  1.0186 -0.4731 -0.7250
12161TIP3    H257975   6.231   4.279   3.931  1.1659  1.6814  0.6206
12162TIP3   OH257976   5.078   4.890  12.153 -0.3360 -0.4539  0.1761
12162TIP3    H157977   5.054   4.982  12.155 -1.5710 -0.7539  0.1141
12162TIP3    H257978   5.045   4.855  12.236 -2.0873 -1.3335 -0.8372
12163TIP3   OH257979   3.431   3.625  14.924  0.0473 -0.2997  0.1420
12163TIP3    H157980   3.379   3.557  14.882  0.5871  0.0708 -1.1959
12163TIP3    H257981   3.373   3.662  14.991 -1.0654 -0.5554 -0.6442
12164TIP3   OH257982   6.782   3.914   4.709  0.1001 -0.0305 -0.3565
12164TIP3    H157983   6.802   3.959   4.791 -1.7896  0.9071 -0.3570
12164TIP3    H257984   6.761   3.824   4.735 -2.4876  0.7386  0.5292
12165TIP3   OH257985   5.689   5.874   1.676  0.1870 -0.3820 -0.3553
12165TIP3    H157986   5.721   5.791   1.711 -1.7611 -0.7669  0.6496
12165TIP3    H257987   5.763   5.934   1.683  0.4876 -0.9730  2.6469
12166TIP3   OH257988   1.946   4.947   2.669  0.3946 -0.3117 -0.1494
12166TIP3    H157989   1.920   5.029   2.626 -1.3687 -0.2149  0.9701
12166TIP3    H257990   1.960   4.972   2.760 -0.4614 -1.2836  0.2678
12167TIP3   OH257991   4.984   6.682  17.088  0.0171 -0.0638 -0.2069
12167TIP3    H157992   4.942   6.768  17.087  0.0163  0.0169  1.9847
12167TIP3    H257993   4.912   6.621  17.067 -0.0006  0.4225 -1.6723
12168TIP3   OH257994   5.103   1.239  11.865  0.1240  0.1928  0.6259
12168TIP3    H157995   5.137   1.228  11.776 -0.7063  2.1541  0.0160
12168TIP3    H257996   5.177   1.278  11.913  0.7908 -1.4632  1.0119
12169TIP3   OH257997   6.376   2.846   3.422  0.7836  0.0187  0.5654
12169TIP3    H157998   6.385   2.912   3.490 -1.2881 -0.0726  0.9908
12169TIP3    H257999   6.355   2.765   3.469 -1.1866  0.0612 -0.1591
12170TIP3   OH258000   0.350   4.908   4.582  0.5064  0.2248  0.0098
12170TIP3    H158001   0.358   4.998   4.550 -1.1671  0.2012 -0.5320
12170TIP3    H258002   0.391   4.911   4.669  0.6934  1.4554 -0.0978
12171TIP3   OH258003   5.654   0.059  16.902  0.0680  0.3520  0.0498
12171TIP3    H158004   5.645   0.085  16.810  1.7286 -1.2235 -0.6119
12171TIP3    H258005   5.667  -0.036  16.899 -0.0574  0.2365  1.9395
12172TIP3   OH258006   0.330   1.190  14.510 -0.5314  0.2142  0.2247
12172TIP3    H158007   0.314   1.243  14.588 -0.2385 -0.5483  0.8235
12172TIP3    H258008   0.378   1.248  14.451 -0.6561  0.7696  0.6543
12173TIP3   OH258009   2.742   1.808  10.682  0.2806  0.0785  0.1768
12173TIP3    H158010   2.696   1.862  10.618 -0.8094 -1.1737 -0.1412
12173TIP3    H258011   2.816   1.770  10.635 -0.1552 -0.3375 -0.1830
12174TIP3   OH258012   6.326   6.706   2.738  0.6776 -0.7198  0.1445
12174TIP3    H158013   6.308   6.632   2.680 -0.0354  0.6173 -1.4163
12174TIP3    H258014   6.403   6.679   2.788 -0.0066 -2.8023  0.1745
12175TIP3   OH258015   1.657   5.763   0.578 -0.3562 -0.1313 -0.3513
12175TIP3    H158016   1.739   5.740   0.621  0.7618  2.0425 -1.1914
12175TIP3    H258017   1.589   5.725   0.635  1.1656 -3.1524 -0.3577
12176TIP3   OH258018   0.375   1.516   1.055  0.0535  0.6085  0.0373
12176TIP3    H158019   0.441   1.579   1.027 -1.3728  1.6811 -1.0868
12176TIP3    H258020   0.407   1.432   1.022  0.2767  1.2978 -1.6258
12177TIP3   OH258021   2.137   3.450   6.226  0.1755  0.1733 -0.4803
12177TIP3    H158022   2.152   3.479   6.136  1.2439 -2.7669 -1.3802
12177TIP3    H258023   2.076   3.377   6.217  0.0398  0.0484  1.2309
12178TIP3   OH258024   2.064   0.852   3.201  0.2700  0.3185  0.4668
12178TIP3    H158025   2.017   0.935   3.193 -0.2630 -0.0149  0.0072
12178TIP3    H258026   2.031   0.813   3.282  0.6252  0.6149  0.7570
12179TIP3   OH258027   3.658   0.971   1.761 -0.4385  0.3592 -0.1591
12179TIP3    H158028   3.668   0.914   1.685 -1.5375 -0.8561  0.5494
12179TIP3    H258029   3.717   0.934   1.827 -0.3762  0.6719 -0.0387
12180TIP3   OH258030   1.104   3.529   2.790  0.0508  0.8307  0.5658
12180TIP3    H158031   1.161   3.455   2.813 -0.3979  0.0359 -0.7874
12180TIP3    H258032   1.119   3.593   2.859 -0.4554 -1.0016  2.4674
12181TIP3   OH258033   4.760   2.253   3.965  0.8569 -0.1006 -0.4660
12181TIP3    H158034   4.758   2.282   4.056  3.2273  0.1853 -0.4380
12181TIP3    H258035   4.711   2.320   3.917 -1.4517 -0.8579  0.6705
12182TIP3   OH258036   4.231   6.036  13.358 -0.2365  0.3177  0.3206
12182TIP3    H158037   4.240   6.045  13.453 -1.2644 -0.4036  0.4949
12182TIP3    H258038   4.170   6.105  13.333 -1.2075 -0.4915  0.4165
12183TIP3   OH258039   1.244   3.788   5.634  0.6313  0.1388 -0.3720
12183TIP3    H158040   1.311   3.727   5.604  1.3925  0.8164 -0.0957
12183TIP3    H258041   1.254   3.865   5.578  0.8322  0.6854  0.3967
12184TIP3   OH258042   2.438   4.393  11.802  0.3768  0.3344  0.2398
12184TIP3    H158043   2.528   4.398  11.770  0.8633  2.7422  1.7279
12184TIP3    H258044   2.443   4.421  11.893 -1.7585 -0.5429  0.7052
12185TIP3   OH258045   4.075   5.375   1.242  0.2018  0.9983  0.3645
12185TIP3    H158046   4.170   5.362   1.233  0.1413  0.4335  0.5206
12185TIP3    H258047   4.065   5.470   1.255  0.7871  0.9993  0.8603
12186TIP3   OH258048   6.604   0.363   2.595  0.3827 -0.2519 -0.3585
12186TIP3    H158049   6.634   0.350   2.685  1.4326  0.1914 -0.6369
12186TIP3    H258050   6.584   0.456   2.589 -1.3088 -0.5678 -0.1197
12187TIP3   OH258051   3.513   5.157  11.416  0.0351 -0.6570 -0.0925
12187TIP3    H158052   3.547   5.223  11.476 -3.7747  1.9258 -0.3797
12187TIP3    H258053   3.542   5.185  11.330 -0.6562  0.0940 -0.0993
12188TIP3   OH258054   4.429   4.457  14.073  0.4690 -0.1340  0.1917
12188TIP3    H158055   4.337   4.451  14.046  0.2120 -1.3668  1.2593
12188TIP3    H258056   4.465   4.371  14.053  1.3803  0.3154 -0.1375
12189TIP3   OH258057   5.834   4.784   2.629 -0.1263  0.2432 -0.0655
12189TIP3    H158058   5.766   4.750   2.571 -0.1961 -0.3124  0.3292
12189TIP3    H258059   5.915   4.744   2.596 -0.4173 -1.7506  1.4256
12190TIP3   OH258060   1.278   1.972   2.051  0.1775 -0.3408  0.3631
12190TIP3    H158061   1.257   1.938   1.964  2.0905 -0.2510 -0.1641
12190TIP3    H258062   1.206   2.032   2.070 -0.2883 -0.3600 -1.1507
12191TIP3   OH258063   5.017   3.849  12.502 -0.5162  0.1002 -0.0532
12191TIP3    H158064   5.072   3.925  12.486 -0.4676  0.0313 -0.2166
12191TIP3    H258065   5.054   3.780  12.446 -1.2636  0.2824 -0.8046
12192TIP3   OH258066   4.286   2.357   1.035 -0.4286  0.2956  0.9384
12192TIP3    H158067   4.319   2.275   1.072 -1.4424 -0.5688 -0.0068
12192TIP3    H258068   4.360   2.418   1.041  0.9592 -1.2308 -0.0418
12193TIP3   OH258069   4.075   6.073   5.379  0.1785 -0.0906  0.1066
12193TIP3    H158070   4.117   6.031   5.304  1.2417  0.8023  0.1641
12193TIP3    H258071   4.141   6.067   5.449  0.2645  1.4002  0.1836
12194TIP3   OH258072   4.940   5.787  14.831 -0.5653 -0.3557  0.2743
12194TIP3    H158073   4.939   5.877  14.800 -2.1170 -0.7832 -1.0638
12194TIP3    H258074   4.990   5.790  14.913  0.8221  1.4032 -0.5785
12195TIP3   OH258075   2.784   3.533   2.625  0.2087 -0.2017 -0.3357
12195TIP3    H158076   2.794   3.524   2.720 -0.6134 -0.0570 -0.2294
12195TIP3    H258077   2.848   3.472   2.588  1.2919  0.5337  0.2977
12196TIP3   OH258078   4.986   2.321  12.462  1.0444 -0.1070  0.1915
12196TIP3    H158079   4.946   2.407  12.470 -0.2574 -0.7320  0.6907
12196TIP3    H258080   5.058   2.321  12.526  1.0528  0.5963  0.1846
12197TIP3   OH258081   1.602   0.720  13.849  0.5725  0.1786 -0.4879
12197TIP3    H158082   1.596   0.658  13.922 -1.2193  0.8245 -0.0341
12197TIP3    H258083   1.650   0.673  13.781 -0.8524 -1.7966 -0.2273
12198TIP3   OH258084   4.781   3.237   5.772 -0.6528 -0.3821  0.0993
12198TIP3    H158085   4.799   3.148   5.803  1.2024  0.0595  0.3893
12198TIP3    H258086   4.686   3.246   5.781 -0.7611 -1.9723  1.0206
12199TIP3   OH258087   3.002   2.102  15.628  0.3038 -0.1614  0.0460
12199TIP3    H158088   3.034   2.147  15.706 -0.4024  0.9433 -0.2825
12199TIP3    H258089   2.936   2.161  15.591  1.1056 -0.3169 -1.7611
12200TIP3   OH258090   2.823   0.927   5.670 -0.3137  0.0116 -0.5145
12200TIP3    H158091   2.854   0.846   5.711  0.0454 -0.6978 -2.1074
12200TIP3    H258092   2.768   0.898   5.597 -1.1899  1.2304 -0.3811
12201TIP3   OH258093   2.749   0.308   5.237  0.6638  0.6626 -0.2789
12201TIP3    H158094   2.796   0.252   5.175  0.2563  1.3158 -1.1938
12201TIP3    H258095   2.779   0.397   5.217 -0.0082  0.9510 -0.0216
12202TIP3   OH258096   4.456   1.395  14.083 -0.0155  0.2280  0.3172
12202TIP3    H158097   4.507   1.475  14.098 -0.5112  0.9631 -1.5820
12202TIP3    H258098   4.426   1.403  13.993 -1.2655 -1.4639  0.5400
12203TIP3   OH258099   5.565   2.012  13.820  0.1592  0.4680  0.5472
12203TIP3    H158100   5.613   2.035  13.741 -0.4592  0.8567  0.2762
12203TIP3    H258101   5.537   1.922  13.806 -1.9136  1.2463 -0.7092
12204TIP3   OH258102   3.012   4.282   0.493 -0.4114  0.3366 -0.3002
12204TIP3    H158103   2.928   4.285   0.540 -0.0736 -0.1365  0.3476
12204TIP3    H258104   2.989   4.303   0.402 -1.0980  1.1229  0.0441
12205TIP3   OH258105   5.144   4.973  11.402  0.0260  0.2437 -0.7276
12205TIP3    H158106   5.217   4.913  11.390 -0.9709 -0.8918 -1.3806
12205TIP3    H258107   5.160   5.045  11.341  2.7050  2.2485  2.0093
12206TIP3   OH258108   2.527   5.635   5.886 -0.6337 -0.2165  0.3496
12206TIP3    H158109   2.533   5.612   5.979  1.9816 -0.0490  0.2989
12206TIP3    H258110   2.473   5.713   5.884 -0.1238  0.2036  1.8435
12207TIP3   OH258111   0.565   1.554  13.100 -0.9775  0.0325 -0.1015
12207TIP3    H158112   0.636   1.493  13.078 -1.4530 -0.3056 -0.7016
12207TIP3    H258113   0.611   1.635  13.126 -0.3668 -0.2422 -0.2988
12208TIP3   OH258114   1.375   0.240   6.549  0.3164 -0.4295 -0.3481
12208TIP3    H158115   1.400   0.332   6.543  1.6119 -0.5959  1.4704
12208TIP3    H258116   1.284   0.237   6.518  0.6040  1.2541 -1.4568
12209TIP3   OH258117   4.110   1.983   0.628  0.0267  0.3766  0.0509
12209TIP3    H158118   4.082   1.909   0.573 -1.9872  2.3016 -1.6780
12209TIP3    H258119   4.033   2.004   0.680  0.9869  0.5229  1.4702
12210TIP3   OH258120   4.781   5.550  10.985  0.4443  0.1032  0.7157
12210TIP3    H158121   4.774   5.543  11.080 -2.1666 -1.1165  0.5329
12210TIP3    H258122   4.698   5.516  10.953  1.5509 -0.2377 -2.0559
12211TIP3   OH258123   0.618   0.255  15.492  0.6185 -0.1946  0.2513
12211TIP3    H158124   0.641   0.291  15.406  0.2979  0.9702  0.6428
12211TIP3    H258125   0.676   0.301  15.553 -1.8109  1.9352  1.1294
12212TIP3   OH258126   2.642   3.030   5.950 -0.1466  0.2814  0.4792
12212TIP3    H158127   2.576   3.091   5.983  0.7595  1.6319 -0.1183
12212TIP3    H258128   2.611   3.006   5.863 -0.3591  0.1204  0.5991
12213TIP3   OH258129   6.231   2.803  15.318 -0.3409  0.0697  0.1791
12213TIP3    H158130   6.172   2.833  15.248 -0.2108 -0.2511 -0.0729
12213TIP3    H258131   6.181   2.816  15.399  0.0344  1.7945  0.1743
12214TIP3   OH258132   5.288   1.687   1.525  0.2191  0.0977  0.1237
12214TIP3    H158133   5.198   1.720   1.529 -0.1819 -0.6655 -1.6194
12214TIP3    H258134   5.303   1.648   1.611 -1.7365 -1.2292 -0.0511
12215TIP3   OH258135   2.363   6.647  14.262 -0.2809 -0.1641  0.3503
12215TIP3    H158136   2.445   6.626  14.306 -0.5256  0.6556  1.2491
12215TIP3    H258137   2.316   6.701  14.326 -0.5200  1.3302 -1.0385
12216TIP3   OH258138   0.615   0.317  13.920  0.1225  0.2714  0.1324
12216TIP3    H158139   0.567   0.310  13.837  1.9343 -0.6196 -0.9034
12216TIP3    H258140   0.564   0.380  13.972 -1.6457  0.0481 -1.2186
12217TIP3   OH258141   0.768   6.522  15.184 -0.0183 -0.2513  0.1422
12217TIP3    H158142   0.739   6.430  15.184 -0.5814 -0.0815  0.7787
12217TIP3    H258143   0.724   6.561  15.260 -0.9125  0.8996 -0.9377
12218TIP3   OH258144   6.527   1.794  11.518 -0.0521 -0.2130 -0.2295
12218TIP3    H158145   6.461   1.814  11.584 -1.1226 -2.8444 -0.3522
12218TIP3    H258146   6.609   1.825  11.555 -0.8025 -0.4222  1.7474
12219TIP3   OH258147   5.993   6.254  15.046 -0.4695 -0.0995 -0.5502
12219TIP3    H158148   5.962   6.211  15.126 -0.9989  0.2701 -0.5546
12219TIP3    H258149   5.989   6.186  14.979  0.6521 -0.6178 -0.1250
12220TIP3   OH258150   1.693   2.132  14.155 -0.0976 -0.2392  0.0525
12220TIP3    H158151   1.706   2.218  14.196 -1.1435 -0.5142  1.0249
12220TIP3    H258152   1.741   2.137  14.073  0.8413  0.8627  0.6335
12221TIP3   OH258153   6.454   0.317   1.030  0.0985  0.0588 -0.2161
12221TIP3    H158154   6.440   0.404   0.993  0.8956  0.1408 -0.3548
12221TIP3    H258155   6.548   0.314   1.049 -0.0577 -0.4757  0.5482
12222TIP3   OH258156   2.113   0.193   5.232 -0.2497 -0.4218  0.0625
12222TIP3    H158157   2.158   0.214   5.150  0.8243 -0.5325  0.6136
12222TIP3    H258158   2.057   0.118   5.210 -0.3733 -0.1167 -0.6914
12223TIP3   OH258159   6.569   3.513   0.425 -0.0251 -0.2014  0.2243
12223TIP3    H158160   6.520   3.527   0.507  0.4838  0.2910  0.4526
12223TIP3    H258161   6.538   3.583   0.367 -0.3702 -0.5380 -0.0026
12224TIP3   OH258162   5.232   6.247   0.768  0.3194  0.0532  0.2097
12224TIP3    H158163   5.316   6.256   0.722  0.3265 -0.2025  0.1718
12224TIP3    H258164   5.172   6.303   0.719 -0.1390 -1.6080 -1.2391
12225TIP3   OH258165   0.290   1.694   0.363  0.3459 -0.0468  0.1297
12225TIP3    H158166   0.292   1.695   0.459 -0.5925  1.8362  0.1775
12225TIP3    H258167   0.203   1.661   0.341 -0.3491  1.7398  0.0203
12226TIP3   OH258168   1.487   5.665  14.624  0.3462  0.0910 -0.3334
12226TIP3    H158169   1.557   5.615  14.665 -0.1643 -1.0067 -0.7433
12226TIP3    H258170   1.489   5.750  14.667  1.3876 -0.2088  0.2349
12227TIP3   OH258171   6.372   0.102   4.391  0.5280 -0.3318 -0.3002
12227TIP3    H158172   6.314   0.177   4.374  1.2458  0.2610 -0.2191
12227TIP3    H258173   6.340   0.065   4.473  1.7076  1.4759  1.0641
12228TIP3   OH258174   5.229   0.343  12.625  0.0418  0.0144 -0.5178
12228TIP3    H158175   5.279   0.383  12.554 -0.6860 -0.2638 -1.2124
12228TIP3    H258176   5.293   0.328  12.694  0.7436  0.4195 -1.0604
12229TIP3   OH258177   5.064   5.111  15.553  0.4284  0.6047  0.3827
12229TIP3    H158178   4.991   5.167  15.578  1.4611  2.0847  0.1963
12229TIP3    H258179   5.085   5.061  15.632 -1.5071 -0.7272  0.1122
12230TIP3   OH258180   0.142   0.661  15.071  0.1856 -0.0286  0.4452
12230TIP3    H158181   0.235   0.639  15.060 -0.1958 -0.8030 -1.7745
12230TIP3    H258182   0.130   0.668  15.166  1.9980 -2.2211  0.9311
12231TIP3   OH258183   3.402   1.126   0.151 -0.4667  0.0266 -0.1117
12231TIP3    H158184   3.493   1.098   0.144 -0.2465  0.5267  0.6173
12231TIP3    H258185   3.391   1.151   0.243 -1.0715  0.8711 -0.3936
12232TIP3   OH258186   1.658   5.564   5.020 -0.7069 -0.4375  0.0931
12232TIP3    H158187   1.701   5.487   5.057  0.2660 -0.6164 -1.3271
12232TIP3    H258188   1.609   5.531   4.945 -3.0328 -0.1597  1.3992
12233TIP3   OH258189   6.144   3.733   1.471  0.1254  0.3977 -0.0083
12233TIP3    H158190   6.076   3.792   1.501 -0.3621 -0.7743  1.2847
12233TIP3    H258191   6.098   3.652   1.449  0.8959  0.1540 -0.8204
12234TIP3   OH258192   3.080   3.264   5.403  0.1709  0.2759 -0.5831
12234TIP3    H158193   3.120   3.177   5.397  0.2042  0.3545 -1.7064
12234TIP3    H258194   3.095   3.304   5.317  3.1283  2.7112  0.8607
12235TIP3   OH258195   0.136   4.569  13.227  0.0350  0.3903  0.2652
12235TIP3    H158196   0.148   4.638  13.162  0.0620 -0.3056 -0.4869
12235TIP3    H258197   0.117   4.490  13.175 -2.5695  0.3186  1.1702
12236TIP3   OH258198   6.444   1.222  16.190  0.1927 -0.5821 -0.3319
12236TIP3    H158199   6.374   1.263  16.242  0.2064 -2.3701  1.2182
12236TIP3    H258200   6.485   1.160  16.251  2.1207 -0.6945 -1.6774
12237TIP3   OH258201   2.598   2.292   0.455  0.0471  0.5683 -0.3275
12237TIP3    H158202   2.635   2.370   0.497  1.1671 -0.3115  0.3728
12237TIP3    H258203   2.623   2.220   0.512 -0.3693 -0.3980 -1.3335
12238TIP3   OH258204   4.599   4.636  14.108 -0.1641 -0.6322  0.3316
12238TIP3    H158205   4.559   4.708  14.157  1.2657  0.8414 -0.5358
12238TIP3    H258206   4.527   4.578  14.087 -1.2021 -0.0254  2.0164
12239TIP3   OH258207   2.821   1.273  15.898 -0.3280 -0.4511  0.2109
12239TIP3    H158208   2.859   1.354  15.933  0.5132 -0.2726 -1.0632
12239TIP3    H258209   2.896   1.219  15.873 -0.8892 -1.0736 -0.1925
12240TIP3   OH258210   5.968   5.072  14.027  0.1186  0.1343 -0.1117
12240TIP3    H158211   5.926   5.153  14.000 -0.5228  0.1513  0.8646
12240TIP3    H258212   5.955   5.013  13.952 -2.6855 -0.2120  0.5133
12241TIP3   OH258213   5.671   6.214  11.147  0.2020 -0.2648 -0.0175
12241TIP3    H158214   5.710   6.295  11.113 -0.0375  1.0580  2.5834
12241TIP3    H258215   5.743   6.151  11.148  0.9853  0.6080  0.0350
12242TIP3   OH258216   6.051   5.508   2.580 -0.0523 -0.1568 -0.0656
12242TIP3    H158217   6.054   5.596   2.617  0.1064  0.1399 -0.7598
12242TIP3    H258218   6.130   5.465   2.612 -0.0445  0.0143  0.1419
12243TIP3   OH258219   3.880   5.743  14.063  0.4610 -0.5292 -0.0615
12243TIP3    H158220   3.839   5.817  14.107  0.4520  0.1531 -1.1940
12243TIP3    H258221   3.807   5.687  14.037  0.3167  0.1031 -1.0405
12244TIP3   OH258222   4.617   3.098  15.810  0.3856  0.5692  0.1965
12244TIP3    H158223   4.669   3.118  15.887  0.0563  0.3575  0.4783
12244TIP3    H258224   4.660   3.022  15.771  0.3207  0.4276  0.3979
12245TIP3   OH258225   0.044   5.181  15.107 -0.0064  0.3537 -0.0482
12245TIP3    H158226   0.084   5.247  15.051  0.0052  0.1660 -0.2650
12245TIP3    H258227   0.064   5.098  15.063 -0.4351  0.2430 -0.0344
12246TIP3   OH258228   0.500   1.407  14.412  0.0999 -0.1725 -0.1200
12246TIP3    H158229   0.539   1.471  14.351  0.7163  0.3054  0.7554
12246TIP3    H258230   0.575   1.372  14.460 -0.3374 -0.9102  0.0298
12247TIP3   OH258231   1.677   1.465   0.329 -0.1544 -0.1710 -0.3543
12247TIP3    H158232   1.694   1.545   0.279 -0.7122  0.5024  0.5026
12247TIP3    H258233   1.581   1.462   0.337 -0.1564 -1.0665 -0.5900
12248TIP3   OH258234   6.540   0.256  15.764 -0.0646 -0.7306  0.0697
12248TIP3    H158235   6.471   0.213  15.713 -2.1474 -0.0972  2.1772
12248TIP3    H258236   6.531   0.349  15.744  1.2862 -0.7667 -0.8441
12249TIP3   OH258237   5.340   5.577   5.015 -0.0142 -0.0968  0.1317
12249TIP3    H158238   5.271   5.572   4.949  0.3485  1.9845 -0.4841
12249TIP3    H258239   5.293   5.590   5.097 -0.4313 -1.7970  0.1985
12250TIP3   OH258240   2.365   4.437  15.490 -0.1332  0.3624 -0.2996
12250TIP3    H158241   2.323   4.522  15.492 -1.6311 -0.3595  0.5091
12250TIP3    H258242   2.458   4.455  15.505 -0.6994  1.6988  1.9777
12251TIP3   OH258243   4.457   5.001   1.519 -0.1643 -0.5380  0.3694
12251TIP3    H158244   4.511   5.079   1.533  0.3559 -0.7339 -0.4327
12251TIP3    H258245   4.382   5.013   1.577  0.2024  0.2701  0.7013
12252TIP3   OH258246   3.857   3.098  15.388 -0.5161 -0.0400  0.7023
12252TIP3    H158247   3.920   3.052  15.442  0.7773  1.7252  0.7804
12252TIP3    H258248   3.796   3.137  15.451  0.1153  0.7709  0.8270
12253TIP3   OH258249   4.662   4.270   6.102 -0.1663 -0.1473  0.6472
12253TIP3    H158250   4.705   4.204   6.047  1.8399  0.1194  1.8006
12253TIP3    H258251   4.677   4.240   6.191  0.2970  1.5731  1.1814
12254TIP3   OH258252   0.315   5.690  15.879  0.3684  0.0921  0.1592
12254TIP3    H158253   0.235   5.734  15.851 -0.3216 -1.3289 -0.2022
12254TIP3    H258254   0.339   5.733  15.961 -1.4813 -0.2865  0.9311
12255TIP3   OH258255   3.227   5.008  14.487 -0.0445  0.0360 -0.1443
12255TIP3    H158256   3.281   5.052  14.553 -0.4090  0.5835 -0.2129
12255TIP3    H258257   3.236   5.061  14.408  2.3515 -1.8909 -1.3290
12256TIP3   OH258258   0.902   3.652   3.733  0.1050 -0.0113 -0.2244
12256TIP3    H158259   0.874   3.564   3.707  0.6524 -0.1525 -0.3416
12256TIP3    H258260   0.997   3.646   3.740  0.3953  1.0994 -2.2932
12257TIP3   OH258261   1.409   6.215  12.788 -0.0090  0.5530  0.5389
12257TIP3    H158262   1.363   6.290  12.749 -1.3537 -0.6941 -0.3951
12257TIP3    H258263   1.412   6.150  12.718 -0.4891 -0.9308  1.8312
12258TIP3   OH258264   6.436   4.400  10.853 -0.3934 -0.5400  0.0197
12258TIP3    H158265   6.417   4.371  10.763  0.1401  0.4569 -0.4274
12258TIP3    H258266   6.529   4.422  10.852 -1.0800  2.9708 -0.2364
12259TIP3   OH258267   3.400   5.017   0.157 -0.1846  0.1875  0.0345
12259TIP3    H158268   3.481   5.052   0.195  0.3251 -1.0386  0.1546
12259TIP3    H258269   3.430   4.946   0.100 -1.1976 -0.5524  0.3892
12260TIP3   OH258270   2.478   4.404  15.835 -0.8025  0.1642 -0.2158
12260TIP3    H158271   2.419   4.478  15.823 -0.6124  0.4588  0.6450
12260TIP3    H258272   2.435   4.350  15.901 -1.2588 -0.8445 -1.2903
12261TIP3   OH258273   2.075   1.001   2.781 -0.4425 -0.3557  0.5673
12261TIP3    H158274   1.993   1.034   2.818  0.3371  1.6789  0.6354
12261TIP3    H258275   2.132   0.991   2.857 -0.4514 -1.3026  0.4633
12262TIP3   OH258276   2.761   3.201  13.052  0.0770  0.0734 -0.0987
12262TIP3    H158277   2.810   3.134  13.100  0.4584 -0.0742 -0.6847
12262TIP3    H258278   2.701   3.151  12.996 -1.1606  0.2517  1.0032
12263TIP3   OH258279   3.994   0.995   0.116  0.4949 -0.6136 -0.7600
12263TIP3    H158280   3.977   0.902   0.131  0.5268 -0.9092 -2.3221
12263TIP3    H258281   4.086   1.007   0.139  0.8523 -1.2798 -1.7832
12264TIP3   OH258282   4.099   0.501   4.860  0.0203 -0.0515 -0.1291
12264TIP3    H158283   4.060   0.500   4.773 -0.6595 -2.8738  0.1212
12264TIP3    H258284   4.026   0.518   4.919  0.2642  0.6170 -0.0104
12265TIP3   OH258285   3.313   2.612  13.170 -0.5854 -0.0279 -0.4288
12265TIP3    H158286   3.230   2.572  13.147  0.4311 -1.8073 -1.1883
12265TIP3    H258287   3.359   2.546  13.222  0.6849  0.5629 -0.7359
12266TIP3   OH258288   0.840   5.900  15.194 -0.3031  0.2363 -0.4251
12266TIP3    H158289   0.847   5.811  15.229 -0.8425  0.7403  1.0271
12266TIP3    H258290   0.854   5.957  15.269 -0.4156  1.3847 -1.2452
12267TIP3   OH258291   3.815   4.895   2.773 -0.2761 -0.0115  0.5293
12267TIP3    H158292   3.747   4.943   2.728  0.4237  0.4158 -0.1009
12267TIP3    H258293   3.853   4.838   2.706 -0.1698 -0.4176  0.9265
12268TIP3   OH258294   2.682   3.993   3.145  0.1881  0.6621 -0.4636
12268TIP3    H158295   2.611   3.929   3.138  0.3073  0.7065 -3.0961
12268TIP3    H258296   2.649   4.058   3.207 -0.1976 -1.5538  1.8032
12269TIP3   OH258297   2.646   5.527   0.508 -0.7206 -0.8460  0.0653
12269TIP3    H158298   2.702   5.450   0.516 -0.0107 -0.3536 -0.0849
12269TIP3    H258299   2.569   5.496   0.460 -0.2089 -1.3442 -0.4512
12270TIP3   OH258300   5.921   3.689  15.884  0.5018 -0.1777  0.5749
12270TIP3    H158301   5.940   3.620  15.948 -3.7208 -0.8504  1.3968
12270TIP3    H258302   5.906   3.767  15.937 -0.1560 -0.0040  0.1407
12271TIP3   OH258303   6.240   3.184  12.566 -0.4274  0.1434 -0.0221
12271TIP3    H158304   6.223   3.090  12.573 -3.4975  0.6137  0.3625
12271TIP3    H258305   6.327   3.196  12.604  0.4309 -2.6096 -0.8999
12272TIP3   OH258306   3.229   5.888   3.603  0.3250  0.3274  0.2618
12272TIP3    H158307   3.134   5.892   3.602  0.3696  1.6748 -0.0946
12272TIP3    H258308   3.258   5.970   3.563  1.6394 -0.2089  0.0402
12273TIP3   OH258309   1.676   2.878  14.213 -0.2330 -0.3786 -0.6829
12273TIP3    H158310   1.679   2.972  14.232 -0.0005 -0.5345  0.1150
12273TIP3    H258311   1.583   2.856  14.217 -0.2727 -0.2133 -0.6852
12274TIP3   OH258312   5.947   1.830  17.200  0.3884 -0.3088 -0.2192
12274TIP3    H158313   5.994   1.751  17.226 -0.8768 -0.8903  0.3650
12274TIP3    H258314   5.953   1.832  17.104  2.9640  0.5171 -0.1279
12275TIP3   OH258315   4.426   2.342  12.860 -0.0144  0.6207 -0.3167
12275TIP3    H158316   4.332   2.342  12.878  0.1460 -0.7937  0.6742
12275TIP3    H258317   4.434   2.303  12.773 -0.3309  0.2870 -0.2009
12276TIP3   OH258318   0.549   2.584  12.100  0.1054 -0.4472 -0.5124
12276TIP3    H158319   0.645   2.589  12.104  0.0852  4.4503  2.6731
12276TIP3    H258320   0.528   2.609  12.010  1.7325 -2.1649 -1.4351
12277TIP3   OH258321   6.030   1.687   5.781  0.7094 -0.1924 -0.1878
12277TIP3    H158322   5.976   1.607   5.778 -0.9934  0.9330 -0.7637
12277TIP3    H258323   5.982   1.746   5.839  1.4941  0.7477 -0.4739
12278TIP3   OH258324   0.031   6.245  13.649  0.2234 -0.1025 -0.1178
12278TIP3    H158325   0.008   6.260  13.741 -2.1330 -1.3844 -0.3982
12278TIP3    H258326  -0.052   6.220  13.608  1.4758 -0.9502 -2.3058
12279TIP3   OH258327   6.778   2.269  13.326 -0.0639 -0.2979  0.2211
12279TIP3    H158328   6.766   2.198  13.263 -3.0523 -0.7438  1.1386
12279TIP3    H258329   6.719   2.338  13.295  1.7994  1.3042  0.0888
12280TIP3   OH258330   4.307   2.022  14.398 -0.0202  0.0909  0.1892
12280TIP3    H158331   4.246   2.095  14.387  1.1342  1.1267  0.3525
12280TIP3    H258332   4.273   1.973  14.473 -2.3003 -1.1508 -1.5465
12281TIP3   OH258333   5.343   2.543  14.478  0.2454  0.3778  0.4516
12281TIP3    H158334   5.370   2.616  14.422 -0.6131  0.2398 -0.1657
12281TIP3    H258335   5.345   2.578  14.567  0.2735  1.0108  0.2049
12282TIP3   OH258336   2.708   4.682  10.750 -0.3865 -0.3142 -0.1446
12282TIP3    H158337   2.722   4.736  10.828 -2.0677  0.7384 -0.5394
12282TIP3    H258338   2.775   4.613  10.757  1.4190  1.4175  0.6914
12283TIP3   OH258339   4.923   6.642  12.271  0.0460 -0.3386 -0.4497
12283TIP3    H158340   4.864   6.679  12.337  0.8480 -0.2235  0.2180
12283TIP3    H258341   4.906   6.548  12.273  0.5065 -0.4144  0.3799
12284TIP3   OH258342   3.250   2.046   3.174  0.1354  0.4173  0.3216
12284TIP3    H158343   3.160   2.051   3.208 -0.1754 -0.1386 -0.3767
12284TIP3    H258344   3.303   2.092   3.239 -0.8350  1.9524  0.0896
12285TIP3   OH258345   0.951   4.888  13.141 -0.0206 -0.2480  0.0921
12285TIP3    H158346   0.905   4.815  13.182 -0.6010 -0.0673 -0.2273
12285TIP3    H258347   1.035   4.851  13.114 -0.3689 -0.8398 -0.2081
12286TIP3   OH258348   0.075   0.220   2.754  0.3167 -1.2504 -0.6163
12286TIP3    H158349   0.036   0.219   2.666 -0.1084 -1.3365 -0.4306
12286TIP3    H258350   0.154   0.168   2.746  0.0010 -1.6998 -0.8262
12287TIP3   OH258351   3.263   0.303   6.059 -0.1962 -0.4437  0.4539
12287TIP3    H158352   3.251   0.289   6.153  0.4086 -0.1701  0.5802
12287TIP3    H258353   3.175   0.315   6.025 -0.3367  0.9533  1.2325
12288TIP3   OH258354   3.328   2.624  14.349  0.0224  0.0649 -1.2629
12288TIP3    H158355   3.235   2.631  14.327 -0.3640  1.3428  0.5351
12288TIP3    H258356   3.350   2.532  14.331 -2.8433 -1.6510  2.5841
12289TIP3   OH258357   1.666   2.618  13.185 -0.1578 -0.0181 -0.0388
12289TIP3    H158358   1.578   2.583  13.193 -0.3427  0.1668 -1.1132
12289TIP3    H258359   1.723   2.540  13.185 -0.5632 -0.3671 -2.4059
12290TIP3   OH258360   3.510   6.543  16.665 -0.3311  0.5053 -0.6228
12290TIP3    H158361   3.553   6.564  16.748  0.0117 -1.6079 -0.1938
12290TIP3    H258362   3.551   6.600  16.601  0.5135  1.0834  0.4013
12291TIP3   OH258363   2.664   4.042   0.586 -0.0012  0.8188  0.2715
12291TIP3    H158364   2.682   4.074   0.674 -0.7704  0.4434  0.5744
12291TIP3    H258365   2.570   4.052   0.576 -0.6856 -3.0783  1.1516
12292TIP3   OH258366   2.543   6.564   3.514 -0.2040 -0.2481  0.0549
12292TIP3    H158367   2.522   6.612   3.434 -0.9768 -2.7071 -1.3303
12292TIP3    H258368   2.551   6.632   3.582 -2.1144  1.7154 -1.5386
12293TIP3   OH258369   5.824   4.336  10.936  0.2844  0.2685 -0.0621
12293TIP3    H158370   5.875   4.417  10.932  1.8243 -0.6147  0.5264
12293TIP3    H258371   5.880   4.275  10.985  0.3981 -1.9681 -2.7116
12294TIP3   OH258372   6.665   5.139   5.387  0.1807  0.6078  0.2400
12294TIP3    H158373   6.755   5.146   5.354 -0.9439  1.4532 -3.0051
12294TIP3    H258374   6.661   5.053   5.428  1.5962 -1.0212 -2.7369
12295TIP3   OH258375   5.086   4.392   4.972  0.0625  0.1418 -0.6031
12295TIP3    H158376   5.058   4.421   4.886 -1.7074  1.1705  0.2527
12295TIP3    H258377   5.005   4.365   5.015  0.4679  2.1508  1.6304
12296TIP3   OH258378   5.627   4.320  11.598 -0.2737  0.2252 -0.2274
12296TIP3    H158379   5.536   4.323  11.627 -1.1128 -0.5518 -2.5339
12296TIP3    H258380   5.659   4.409  11.609 -1.5162  0.6576  0.0043
12297TIP3   OH258381   2.406   2.011   5.554 -0.6263  0.4788 -1.1107
12297TIP3    H158382   2.461   2.085   5.579 -0.9660  0.3343  0.1436
12297TIP3    H258383   2.422   2.000   5.460 -1.0000  2.4804 -1.4511
12298TIP3   OH258384   2.844   1.667  12.918 -0.3588  0.3800  0.2600
12298TIP3    H158385   2.835   1.599  12.851 -0.8529  1.0240 -0.3330
12298TIP3    H258386   2.938   1.675  12.932 -0.1987  0.7802 -0.9238
12299TIP3   OH258387   6.147   2.799   2.130 -0.1727  0.3048  0.6620
12299TIP3    H158388   6.134   2.732   2.063  0.2764  0.2303  0.6500
12299TIP3    H258389   6.062   2.844   2.136  0.1423  1.1476 -0.8610
12300TIP3   OH258390   1.095   2.144  16.215 -0.2037  0.5587  0.1186
12300TIP3    H158391   1.133   2.080  16.155  0.4743  1.2653 -0.2148
12300TIP3    H258392   1.159   2.151  16.286 -0.7857  0.0688  0.7068
12301TIP3   OH258393   2.636   1.669  13.707 -0.0202 -0.1272  0.0663
12301TIP3    H158394   2.600   1.619  13.634 -0.6814 -1.2963  1.1573
12301TIP3    H258395   2.708   1.719  13.669 -0.7385 -0.2330 -1.4987
12302TIP3   OH258396   1.445   2.010  14.087  0.5142  0.0577  0.2063
12302TIP3    H158397   1.501   1.938  14.057  0.1407 -0.0018 -0.3621
12302TIP3    H258398   1.489   2.044  14.164  0.0216 -1.6723  1.3311
12303TIP3   OH258399   0.788   5.898  14.507  0.3537 -0.7931 -0.0978
12303TIP3    H158400   0.789   5.803  14.516  1.2796 -0.9994 -1.8492
12303TIP3    H258401   0.699   5.925  14.531  0.0066 -2.1142  0.1427
12304TIP3   OH258402   3.136   2.800   4.316  0.4087 -0.5585  0.0355
12304TIP3    H158403   3.096   2.748   4.246 -0.0253 -0.6844  0.3664
12304TIP3    H258404   3.087   2.775   4.394 -0.6356  1.2147  0.0105
12305TIP3   OH258405   0.443   4.966   2.665  0.6464 -0.8445 -0.4012
12305TIP3    H158406   0.503   5.000   2.598 -0.4345  1.6594 -0.2426
12305TIP3    H258407   0.458   5.022   2.741  0.6424 -2.5377  0.8828
12306TIP3   OH258408   5.333   1.590  12.881 -0.0465 -0.4917  0.2202
12306TIP3    H158409   5.331   1.685  12.897  1.6235 -0.5560  0.9982
12306TIP3    H258410   5.374   1.581  12.796 -0.0016 -0.5230  0.2452
12307TIP3   OH258411   6.092   3.195  11.219  0.2612  0.1428  0.4466
12307TIP3    H158412   6.144   3.190  11.299 -0.7800  0.9343  1.2107
12307TIP3    H258413   6.156   3.202  11.148  1.2349  2.5885  1.4539
12308TIP3   OH258414   2.887   2.250   6.409  0.0776  0.5094  0.1760
12308TIP3    H158415   2.912   2.211   6.493  1.4798  0.4671 -0.2336
12308TIP3    H258416   2.831   2.184   6.367 -0.6228  0.5283  1.0599
12309TIP3   OH258417   4.605   6.570   0.786 -0.5110 -0.3823 -0.3446
12309TIP3    H158418   4.547   6.641   0.813 -0.0988 -0.4961  0.9045
12309TIP3    H258419   4.547   6.496   0.766 -0.8307 -0.2578  0.1264
12310TIP3   OH258420   6.082   4.598   5.559 -0.3891  0.2309 -0.7954
12310TIP3    H158421   5.997   4.623   5.594  0.7934  1.5849  1.2937
12310TIP3    H258422   6.109   4.672   5.504  0.3087  0.7245  0.1949
12311TIP3   OH258423   3.083   3.792   5.727 -0.0995  0.5751  0.4649
12311TIP3    H158424   3.057   3.772   5.817 -0.1653  2.4762  0.9119
12311TIP3    H258425   3.175   3.817   5.734  0.4775 -1.1997 -0.3330
12312TIP3   OH258426   3.716   0.917   5.316 -0.3418  0.2111  0.2455
12312TIP3    H158427   3.782   0.848   5.305  0.9131  0.9178  2.6243
12312TIP3    H258428   3.766   0.997   5.328 -1.7703  1.7899 -3.0556
12313TIP3   OH258429   3.733   3.539   1.346 -0.9807  0.4890  0.0030
12313TIP3    H158430   3.806   3.521   1.288 -0.4509  0.4509  0.6724
12313TIP3    H258431   3.721   3.457   1.396  0.5291  1.4429  2.0685
12314TIP3   OH258432   0.732   6.427  11.694 -0.4110  0.0658  0.0662
12314TIP3    H158433   0.701   6.496  11.636  1.5743  0.3998 -0.6770
12314TIP3    H258434   0.768   6.473  11.769 -0.3279 -0.2237  0.2050
12315TIP3   OH258435   6.383   4.147   4.870 -0.1080 -0.5614 -0.3612
12315TIP3    H158436   6.426   4.063   4.880 -1.8224 -1.5986 -1.1687
12315TIP3    H258437   6.300   4.127   4.825 -0.1354  1.6609 -1.4738
12316TIP3   OH258438   5.638   1.513  11.055  0.3464 -0.1367  0.3205
12316TIP3    H158439   5.563   1.546  11.104  0.3376  0.2038  0.0856
12316TIP3    H258440   5.610   1.515  10.964  0.3310 -0.8561  0.3032
12317TIP3   OH258441   3.128   1.429  15.528  0.5794  0.0968  0.2487
12317TIP3    H158442   3.178   1.495  15.480 -0.5278 -0.8882 -2.4915
12317TIP3    H258443   3.193   1.384  15.582  2.3884  0.0204 -1.8272
12318TIP3   OH258444   5.759   0.189   1.933  0.1875 -0.6819 -0.5524
12318TIP3    H158445   5.855   0.190   1.926  0.1368 -0.7360 -1.3564
12318TIP3    H258446   5.729   0.236   1.855 -0.3815  1.9070  1.1123
12319TIP3   OH258447   3.218   4.945   2.360 -0.2778 -0.4785 -0.3219
12319TIP3    H158448   3.202   5.033   2.394 -1.3697  0.8020 -3.6588
12319TIP3    H258449   3.142   4.894   2.387 -0.6716  0.2126 -0.1068
12320TIP3   OH258450   2.897   6.071   4.953  0.1272  0.2010  0.5741
12320TIP3    H158451   2.886   6.059   5.048 -1.6129 -0.7586  0.2943
12320TIP3    H258452   2.907   5.982   4.919 -0.0113  0.4883 -0.2259
12321TIP3   OH258453   3.483   1.225  15.362 -0.3128  0.3451 -0.2507
12321TIP3    H158454   3.418   1.251  15.427 -0.2662  1.1224 -0.5110
12321TIP3    H258455   3.532   1.305  15.343  1.2210 -0.3602  0.4868
12322TIP3   OH258456   5.870   3.091  11.080 -0.0649 -0.8417 -0.2361
12322TIP3    H158457   5.961   3.109  11.101 -0.4757  0.3086  0.6497
12322TIP3    H258458   5.873   3.010  11.028  1.6877  0.6246 -2.6369
12323TIP3   OH258459   4.278   6.184   3.207  0.5294  0.3762  0.2342
12323TIP3    H158460   4.240   6.114   3.153  1.5766  0.8880 -1.2263
12323TIP3    H258461   4.245   6.265   3.168  0.4547  0.7426  1.0402
12324TIP3   OH258462   3.233   5.605   4.119  0.1353 -0.1412  0.2467
12324TIP3    H158463   3.327   5.623   4.121  0.0523  0.2525  0.8545
12324TIP3    H258464   3.200   5.642   4.201 -0.9112  1.7597 -0.9675
12325TIP3   OH258465   3.502   4.270   4.737 -0.7780  0.0941 -0.8566
12325TIP3    H158466   3.517   4.322   4.658  0.7855 -1.0748 -1.3791
12325TIP3    H258467   3.548   4.318   4.806 -0.2818 -0.0260 -1.1035
12326TIP3   OH258468   5.552   3.659  13.732  0.1269 -0.6159 -0.1735
12326TIP3    H158469   5.459   3.657  13.711  0.3911 -2.1576 -1.3887
12326TIP3    H258470   5.596   3.649  13.648  1.4553  1.4270  0.2186
12327TIP3   OH258471   6.335   0.634   5.347 -0.1221  0.3583 -0.4800
12327TIP3    H158472   6.312   0.582   5.424  1.6558 -0.2146 -0.2763
12327TIP3    H258473   6.376   0.713   5.383  3.5389 -1.2177 -0.6741
12328TIP3   OH258474   6.466   3.633   4.580  0.0246 -0.3749 -0.0459
12328TIP3    H158475   6.471   3.563   4.645 -2.1788 -0.3116  0.2783
12328TIP3    H258476   6.409   3.597   4.511  0.7087  0.2841 -0.9753
12329TIP3   OH258477   2.236   2.058  11.723  0.2138 -0.3772 -0.1023
12329TIP3    H158478   2.287   2.094  11.650  2.7511  0.5636  1.9637
12329TIP3    H258479   2.287   1.982  11.752 -0.2012 -0.1610  1.2514
12330TIP3   OH258480   1.652   0.991  11.650  0.3921  0.1221  0.4114
12330TIP3    H158481   1.658   0.923  11.718  2.4210 -0.1481  0.0074
12330TIP3    H258482   1.566   0.976  11.610  0.1237 -1.1818  1.3749
12331TIP3   OH258483   3.056   2.380  14.539  0.4775  0.0086 -0.7483
12331TIP3    H158484   3.140   2.334  14.543  0.6334  0.3768  0.6434
12331TIP3    H258485   3.046   2.421  14.625 -1.4947 -0.6818 -0.5850
12332TIP3   OH258486   5.069   4.683   6.350  0.6587 -0.2140  0.1093
12332TIP3    H158487   5.105   4.720   6.430  1.7193 -0.3612 -0.2805
12332TIP3    H258488   5.110   4.733   6.279 -1.6978  1.2168 -0.3536
12333TIP3   OH258489   0.484   4.364   4.379  0.4835 -0.3892  0.4609
12333TIP3    H158490   0.518   4.311   4.451  0.5529  0.6263  1.1821
12333TIP3    H258491   0.395   4.386   4.404  0.2470 -0.6421 -0.1181
12334TIP3   OH258492   0.507   3.218   1.856  0.3372 -0.1609 -0.0610
12334TIP3    H158493   0.532   3.165   1.780  0.6310 -1.5882  0.9968
12334TIP3    H258494   0.585   3.220   1.911 -0.1685  0.0497  0.6581
12335TIP3   OH258495   4.686   1.056   1.867 -0.0560 -0.3247 -0.6220
12335TIP3    H158496   4.626   1.130   1.868  0.2059 -0.0997  1.4723
12335TIP3    H258497   4.715   1.047   1.957  0.1390 -2.8121 -0.8646
12336TIP3   OH258498   6.174   1.647  11.188  0.0562 -1.0454 -0.0100
12336TIP3    H158499   6.213   1.682  11.268 -0.6994  0.0987 -0.1145
12336TIP3    H258500   6.247   1.636  11.128  0.3666  0.1619  0.1198
12337TIP3   OH258501   1.213   3.109   3.607 -0.5818  0.1748 -0.6404
12337TIP3    H158502   1.242   3.085   3.695  2.6365 -1.5649 -2.0138
12337TIP3    H258503   1.144   3.046   3.587  0.6416 -1.3303 -0.3483
12338TIP3   OH258504   2.126   4.372   3.373 -0.2522 -0.2194 -0.1736
12338TIP3    H158505   2.172   4.311   3.316 -0.8340 -0.1026 -0.7827
12338TIP3    H258506   2.155   4.459   3.345 -0.2932 -0.1731 -0.0753
12339TIP3   OH258507   1.388   5.696  15.855 -0.4182  0.0419  0.3809
12339TIP3    H158508   1.370   5.781  15.895 -0.8717  0.2794 -0.3077
12339TIP3    H258509   1.305   5.648  15.860 -0.6418  0.2855 -0.7592
12340TIP3   OH258510   4.759   0.897  15.668  0.2383  0.2275 -0.7296
12340TIP3    H158511   4.819   0.971  15.663  0.0393  0.3477 -1.4860
12340TIP3    H258512   4.731   0.895  15.759  2.0031 -0.3223 -0.1549
12341TIP3   OH258513   0.874   3.123   0.081  0.2988  0.0308  0.4841
12341TIP3    H158514   0.818   3.121   0.159 -0.3680  2.5729  0.1789
12341TIP3    H258515   0.818   3.089   0.011  0.8828 -2.2100  1.0320
12342TIP3   OH258516   2.201   0.759  12.027 -0.2849 -0.6413  0.1373
12342TIP3    H158517   2.260   0.825  12.064 -1.3824  0.4909 -0.0522
12342TIP3    H258518   2.248   0.676  12.037  1.3143  0.2104  0.0143
12343TIP3   OH258519   3.987   1.968   3.751  0.1210 -0.2905  0.4405
12343TIP3    H158520   4.019   1.974   3.841 -1.6810  0.8042  1.0418
12343TIP3    H258521   3.926   2.040   3.742 -0.9087 -1.3002 -1.1938
12344TIP3   OH258522   4.008   6.449  14.561 -0.1349  0.4301  0.2277
12344TIP3    H158523   3.968   6.375  14.605 -0.2819  0.3909  0.0286
12344TIP3    H258524   4.029   6.511  14.632  1.1229 -0.3197  0.5436
12345TIP3   OH258525   1.662   4.562   4.591 -0.0777 -0.6272  0.0281
12345TIP3    H158526   1.718   4.638   4.580 -1.4095  0.4152  0.1743
12345TIP3    H258527   1.721   4.487   4.585  1.5376  0.4443  1.6289
12346TIP3   OH258528   3.652   6.472  15.020  0.0983  0.3141 -0.1515
12346TIP3    H158529   3.742   6.454  15.048 -0.3215 -2.4751 -0.3322
12346TIP3    H258530   3.637   6.563  15.045  2.4965  0.4306  1.1595
12347TIP3   OH258531   2.281   4.111   3.682 -0.6023 -0.3499 -0.0703
12347TIP3    H158532   2.298   4.031   3.633  0.5508  0.2060 -0.6110
12347TIP3    H258533   2.325   4.098   3.766  1.8684  0.6943 -1.1057
12348TIP3   OH258534   5.236   0.034  14.540  0.4108  0.0209  0.0703
12348TIP3    H158535   5.294   0.037  14.464  1.4070  0.5393  0.8237
12348TIP3    H258536   5.178   0.109  14.529  0.0698 -0.3250 -0.5369
12349TIP3   OH258537   5.488   1.019   1.499  0.6349  0.0382  0.2139
12349TIP3    H158538   5.480   1.089   1.435  1.6647  0.1321  0.1714
12349TIP3    H258539   5.578   1.026   1.532  0.0618  0.1405  1.8509
12350TIP3   OH258540   2.057   2.055   5.294 -0.2390 -0.2099 -0.1305
12350TIP3    H158541   2.105   2.094   5.367  0.2948  0.5521 -0.8713
12350TIP3    H258542   2.109   1.978   5.270 -1.5164 -1.7142  1.6068
12351TIP3   OH258543   2.531   3.085   2.448  0.0433  0.4834 -0.5457
12351TIP3    H158544   2.612   3.035   2.440 -0.9930 -1.0467 -2.2775
12351TIP3    H258545   2.531   3.118   2.538  2.0455 -0.3936 -0.1861
12352TIP3   OH258546   1.605   1.831  12.824 -0.1975  0.0862 -0.4222
12352TIP3    H158547   1.674   1.889  12.854  1.7689 -1.6370 -1.3739
12352TIP3    H258548   1.539   1.889  12.787  1.1990  1.7476 -0.4192
12353TIP3   OH258549   5.403   0.461   5.481  0.3470  1.0008 -0.0355
12353TIP3    H158550   5.490   0.484   5.513  2.6439 -2.6742 -2.8104
12353TIP3    H258551   5.362   0.415   5.555  1.5999  1.0201  0.7031
12354TIP3   OH258552   2.947   2.917   2.515  0.6438 -0.0324 -0.3332
12354TIP3    H158553   2.923   2.860   2.442 -0.0744  1.1572 -1.0620
12354TIP3    H258554   2.982   2.996   2.473 -0.2453  0.8736  0.5954
12355TIP3   OH258555   5.298   2.777   4.563  0.2725  0.4783 -0.1420
12355TIP3    H158556   5.239   2.736   4.626  1.0567  0.2585  0.4731
12355TIP3    H258557   5.321   2.706   4.502  1.4614  0.0062  0.7990
12356TIP3   OH258558   0.538   0.181  12.808 -0.4081  0.6172  0.3563
12356TIP3    H158559   0.513   0.221  12.891 -0.1279  0.2784  0.6088
12356TIP3    H258560   0.621   0.223  12.785 -0.5713  0.8337  0.1600
12357TIP3   OH258561   4.180   3.517   2.909  0.2739 -0.2431 -0.2264
12357TIP3    H158562   4.129   3.485   2.835  1.2627 -0.0507 -1.0132
12357TIP3    H258563   4.257   3.461   2.911  0.7423  0.3983  0.0197
12358TIP3   OH258564   3.310   5.273  15.611  0.4470 -0.0526  0.5673
12358TIP3    H158565   3.308   5.185  15.648 -0.2177 -0.9272 -1.4123
12358TIP3    H258566   3.395   5.280  15.568  0.1844 -0.0360  0.0409
12359TIP3   OH258567   1.283   0.010   5.817  0.8216 -0.5781 -0.4927
12359TIP3    H158568   1.355   0.052   5.864 -0.6730 -0.3116  1.6622
12359TIP3    H258569   1.324  -0.022   5.736  3.0145  0.8861 -0.0687
12360TIP3   OH258570   3.458   3.390  16.368 -0.5070  0.3039 -0.5386
12360TIP3    H158571   3.486   3.298  16.362 -1.3967 -0.2696  2.4076
12360TIP3    H258572   3.364   3.385  16.389 -0.8206  1.9356 -1.4295
12361TIP3   OH258573   2.767   1.195  11.573  0.2123  0.1255  0.4973
12361TIP3    H158574   2.849   1.216  11.617 -0.0799 -0.2336  1.2256
12361TIP3    H258575   2.708   1.169  11.643 -0.5167  0.3455 -0.0223
12362TIP3   OH258576   5.690   2.703   2.268  0.1328  0.0169  0.1195
12362TIP3    H158577   5.768   2.650   2.284  1.0414  1.4317  0.5043
12362TIP3    H258578   5.720   2.776   2.215 -1.0512  0.2877 -0.2119
12363TIP3   OH258579   2.686   4.212  16.599  0.4698  0.1244  0.1965
12363TIP3    H158580   2.746   4.146  16.634 -0.4806 -1.2730 -0.7204
12363TIP3    H258581   2.599   4.184  16.629  0.1043  1.3126  0.3043
12364TIP3   OH258582   4.586   2.094   0.948  0.0621  0.0741  1.0094
12364TIP3    H158583   4.495   2.093   0.918 -0.0239 -3.0074  1.0162
12364TIP3    H258584   4.581   2.081   1.043  0.4717 -1.2295  0.8778
12365TIP3   OH258585   1.465   0.693   2.215 -0.3823  0.1058  0.2279
12365TIP3    H158586   1.396   0.671   2.278 -2.0821  0.5603 -1.3815
12365TIP3    H258587   1.454   0.629   2.144  0.2826  0.7435 -0.4681
12366TIP3   OH258588   5.228   6.033  11.108  0.4282 -0.4109  0.5689
12366TIP3    H158589   5.298   6.038  11.043  0.6201 -0.9137  0.7334
12366TIP3    H258590   5.175   5.958  11.080  1.1326 -1.3091  1.5953
12367TIP3   OH258591   3.224   4.917  13.417  0.0820 -0.5247 -0.1214
12367TIP3    H158592   3.155   4.983  13.424  0.5384 -0.0841  0.3492
12367TIP3    H258593   3.225   4.892  13.325 -0.1869  0.0327 -0.2812
12368TIP3   OH258594   0.495   6.140  16.165 -0.2577  0.6493  0.2688
12368TIP3    H158595   0.563   6.205  16.151  1.1891 -0.4234  1.8971
12368TIP3    H258596   0.461   6.158  16.252 -1.2014  0.3878 -0.0268
12369TIP3   OH258597   0.660   5.885  11.081  0.2884  0.0427  0.6415
12369TIP3    H158598   0.588   5.867  11.141 -1.6553 -0.9291 -1.7885
12369TIP3    H258599   0.638   5.970  11.042  1.4763  0.6268  1.2040
12370TIP3   OH258600   2.827   0.052  13.969 -1.0382  0.7893 -0.5693
12370TIP3    H158601   2.747   0.094  13.999 -0.3951  2.8476 -1.5374
12370TIP3    H258602   2.864   0.011  14.048 -1.2126  2.9356  0.7117
12371TIP3   OH258603   2.027   4.892   3.089  0.3367 -0.0779  0.1604
12371TIP3    H158604   2.022   4.971   3.035 -2.1843 -0.1112  0.2449
12371TIP3    H258605   1.985   4.824   3.037 -0.2340 -0.6163  1.2909
12372TIP3   OH258606   1.340   5.889  15.558  0.1024 -0.0967  0.2194
12372TIP3    H158607   1.395   5.811  15.550  0.1961  0.0906 -1.1889
12372TIP3    H258608   1.266   5.872  15.500 -0.7286  0.1714  1.1718
12373TIP3   OH258609   3.529   2.618  16.008 -0.0233 -0.2836  0.9996
12373TIP3    H158610   3.564   2.539  15.968  0.7298 -0.1104  1.2910
12373TIP3    H258611   3.448   2.591  16.050  0.6402 -1.0948  1.8075
12374TIP3   OH258612   0.767   1.676  11.259  0.3634 -0.5666 -0.2792
12374TIP3    H158613   0.802   1.723  11.184  0.5645  0.0583  0.1897
12374TIP3    H258614   0.697   1.733  11.292  0.2976 -0.8158  0.0240
12375TIP3   OH258615   3.935   2.615   0.986 -0.2382 -0.6256 -0.5416
12375TIP3    H158616   4.005   2.672   1.018 -1.3341  1.3021 -1.4118
12375TIP3    H258617   3.855   2.665   1.001 -1.3021 -2.1221 -0.9930
12376TIP3   OH258618   1.344   5.944   5.309 -0.2756  0.1428 -0.1679
12376TIP3    H158619   1.399   5.879   5.264  0.6755  0.9802 -0.2710
12376TIP3    H258620   1.336   6.016   5.246  0.0121  0.7879  0.5104
12377TIP3   OH258621   5.846   2.277  12.013 -0.4499 -0.4254 -0.3836
12377TIP3    H158622   5.864   2.294  12.105 -0.3517 -1.0624 -0.2832
12377TIP3    H258623   5.867   2.360  11.969 -1.9440  0.3758  0.3448
12378TIP3   OH258624   5.759   5.236  12.580  0.2001  0.2131  0.4654
12378TIP3    H158625   5.711   5.292  12.518 -0.0912  0.9631  1.3507
12378TIP3    H258626   5.772   5.291  12.657  0.9472 -0.5685  0.9101
12379TIP3   OH258627   2.375   3.212   6.622  0.3869  0.8193 -0.1239
12379TIP3    H158628   2.384   3.270   6.697 -1.5695  1.6304 -0.4717
12379TIP3    H258629   2.333   3.133   6.657  1.4590  0.2886  0.0143
12380TIP3   OH258630   3.659   1.313  14.122 -0.0213  0.2030 -0.4775
12380TIP3    H158631   3.566   1.315  14.147 -0.3183 -1.2088 -1.3582
12380TIP3    H258632   3.695   1.239  14.171  0.8608  1.2149  0.4662
12381TIP3   OH258633   2.856   1.801   1.697 -0.2154  0.7646 -0.1204
12381TIP3    H158634   2.898   1.861   1.758  0.0189 -0.2726  0.7596
12381TIP3    H258635   2.801   1.858   1.642  0.9474  1.9280 -0.1395
12382TIP3   OH258636   0.774   1.702   2.586 -0.2944  0.0810 -0.0441
12382TIP3    H158637   0.750   1.789   2.553 -1.0909 -0.1434 -0.0877
12382TIP3    H258638   0.869   1.700   2.583 -0.2612  1.0208  0.1227
12383TIP3   OH258639   4.947   0.324   3.337  0.1168  0.1491 -0.2332
12383TIP3    H158640   4.866   0.300   3.383 -0.2407 -0.5260 -1.1873
12383TIP3    H258641   4.972   0.245   3.289  0.8906  0.6092 -0.6086
12384TIP3   OH258642   4.796   6.763  16.659  0.6496 -0.1459  0.0011
12384TIP3    H158643   4.777   6.679  16.617 -0.2315  0.5093 -0.9522
12384TIP3    H258644   4.718   6.782  16.711  1.2142 -0.3245  0.9500
12385TIP3   OH258645   4.083   5.444  12.944 -0.2256 -0.4209  0.2704
12385TIP3    H158646   4.091   5.440  13.039 -0.7657 -0.4361  0.3158
12385TIP3    H258647   4.157   5.393  12.911 -0.6048 -1.2483  0.6910
12386TIP3   OH258648   3.764   4.940  15.025  0.1613  0.2686  0.2255
12386TIP3    H158649   3.725   5.005  15.083  1.0411  1.6747 -0.7135
12386TIP3    H258650   3.709   4.862  15.037 -0.3061  0.8327  2.1342
12387TIP3   OH258651   3.885   6.724   5.624  0.0733 -0.0070 -0.5408
12387TIP3    H158652   3.827   6.788   5.582 -1.0312  0.0507  0.9688
12387TIP3    H258653   3.970   6.767   5.627 -0.5907  1.3350  0.2205
12388TIP3   OH258654   1.386   2.178   6.097  1.0453  0.4336  0.3914
12388TIP3    H158655   1.435   2.256   6.122 -0.1072  0.7899  1.7107
12388TIP3    H258656   1.305   2.184   6.148 -0.3365 -0.1842 -1.5960
12389TIP3   OH258657   0.436   1.258  17.202 -0.2492 -0.6136 -0.2370
12389TIP3    H158658   0.409   1.174  17.166  2.1940 -0.5563 -2.4677
12389TIP3    H258659   0.519   1.240  17.246  0.2744  0.5724 -0.6922
12390TIP3   OH258660   0.493   4.569  13.208 -0.7177  0.2483  0.0696
12390TIP3    H158661   0.478   4.563  13.114 -1.2791  0.1919  0.1541
12390TIP3    H258662   0.471   4.660  13.230 -1.1100  0.1169  0.2281
12391TIP3   OH258663   4.112   1.220   0.360 -0.4214  1.3405 -0.0892
12391TIP3    H158664   4.127   1.125   0.365 -0.8409  1.3318  1.7643
12391TIP3    H258665   4.143   1.253   0.444 -1.8906  2.5996 -0.0150
12392TIP3   OH258666   6.615   2.065   3.324 -0.0279  0.2279  0.5092
12392TIP3    H158667   6.560   2.141   3.341 -0.2364  0.9102 -2.6598
12392TIP3    H258668   6.679   2.095   3.260  0.4687 -2.0277 -0.1560
12393TIP3   OH258669   4.783   4.404   4.165  0.4099  0.2533  0.1718
12393TIP3    H158670   4.732   4.374   4.090  0.5236  0.1231  0.1455
12393TIP3    H258671   4.825   4.485   4.134 -1.0431  1.2633  0.7150
12394TIP3   OH258672   3.635   2.668   1.808 -0.3693 -0.2128 -0.0149
12394TIP3    H158673   3.715   2.679   1.860 -0.3224 -0.8786  0.0596
12394TIP3    H258674   3.641   2.736   1.741 -0.9894  1.4470  1.5316
12395TIP3   OH258675   0.010   5.200  11.614  0.1701  0.1632 -0.3281
12395TIP3    H158676  -0.033   5.124  11.654 -1.4889  1.7721  1.1069
12395TIP3    H258677  -0.056   5.269  11.616  1.9497  1.9665 -0.6427
12396TIP3   OH258678   4.766   5.028   3.333  0.3825  0.5392 -0.0043
12396TIP3    H158679   4.860   5.010   3.327  0.5585  0.9320  1.2612
12396TIP3    H258680   4.760   5.123   3.321 -0.1622  0.2209 -2.8701
12397TIP3   OH258681   3.037   4.995   0.621 -0.2925  0.1320  0.8586
12397TIP3    H158682   2.966   4.949   0.665 -0.5805  0.2801  0.5626
12397TIP3    H258683   3.090   4.926   0.581 -1.7607  0.0847 -1.1591
12398TIP3   OH258684   0.040   0.757  13.310  0.2343 -0.1660  0.0405
12398TIP3    H158685   0.123   0.761  13.263  0.5008 -3.3613  0.0315
12398TIP3    H258686   0.015   0.665  13.306 -3.2501  0.6455  0.1970
12399TIP3   OH258687   2.403   5.730   5.290 -0.7919 -0.8177  0.7993
12399TIP3    H158688   2.451   5.811   5.274 -1.6215 -0.4344  0.1787
12399TIP3    H258689   2.369   5.739   5.379  0.5622 -1.2501  1.3787
12400TIP3   OH258690   3.342   1.182  10.233 -0.2331  0.1345  0.1854
12400TIP3    H158691   3.369   1.259  10.184 -0.3133  0.0116 -0.0559
12400TIP3    H258692   3.423   1.143  10.264 -0.1891  0.2835  0.2572
12401TIP3   OH258693   1.349   4.097  15.662  0.7372 -0.1972 -0.0737
12401TIP3    H158694   1.287   4.156  15.705 -0.3117 -1.2487 -0.0853
12401TIP3    H258695   1.400   4.154  15.604 -1.6238  0.4578 -1.6842
12402TIP3   OH258696   5.476   1.773  16.631  0.7341  0.1574 -0.2675
12402TIP3    H158697   5.435   1.789  16.716  0.3823  2.4192 -0.8182
12402TIP3    H258698   5.557   1.726  16.653 -0.5808 -1.6645  1.0601
12403TIP3   OH258699   4.175   3.001  15.143 -0.0733 -0.3779  0.3430
12403TIP3    H158700   4.159   2.911  15.114  0.6910 -0.1552 -0.8554
12403TIP3    H258701   4.270   3.007  15.154 -0.2931 -0.3389  2.6704
12404TIP3   OH258702   2.646   6.352   3.754 -0.5215  0.5976 -0.1984
12404TIP3    H158703   2.732   6.311   3.744 -0.0039  1.4805  0.5285
12404TIP3    H258704   2.638   6.412   3.680 -0.4298  0.6527 -0.1633
12405TIP3   OH258705   0.164   6.254   2.803  0.2616 -0.0166  1.3574
12405TIP3    H158706   0.119   6.237   2.886 -2.3872 -0.9081 -0.1408
12405TIP3    H258707   0.252   6.220   2.816 -0.6088 -1.7629  3.2414
12406TIP3   OH258708   2.610   1.012   1.718  0.6699  0.0218 -0.0935
12406TIP3    H158709   2.540   1.044   1.660 -1.9341 -0.7892  2.3484
12406TIP3    H258710   2.614   0.918   1.701  0.9004  0.0068  0.0436
12407TIP3   OH258711   0.186   6.024   2.130  0.2509  0.5761  0.3643
12407TIP3    H158712   0.202   5.986   2.216 -1.4729 -0.2964  0.3587
12407TIP3    H258713   0.244   5.975   2.071 -0.3487 -0.5919  0.6951
12408TIP3   OH258714   1.820   1.120  12.016  0.5694 -0.3402  0.0587
12408TIP3    H158715   1.803   1.029  11.991  1.4936 -0.2053 -1.1608
12408TIP3    H258716   1.913   1.121  12.036  0.3666  0.1464  0.9814
12409TIP3   OH258717   5.104   0.013  11.177  0.7809  0.1453 -0.1301
12409TIP3    H158718   5.196   0.024  11.203  0.8930 -0.0434 -0.4358
12409TIP3    H258719   5.081  -0.075  11.208  0.8632 -0.0128 -0.5057
12410TIP3   OH258720   0.083   5.136   2.212 -0.3469 -0.9422  0.0667
12410TIP3    H158721   0.058   5.225   2.237  3.2479  0.2930 -0.1181
12410TIP3    H258722   0.001   5.093   2.189 -2.2221  2.3658  0.0206
12411TIP3   OH258723   1.912   0.866  16.055  0.2040  0.1793 -0.3060
12411TIP3    H158724   1.855   0.852  15.980  0.5353 -0.7406 -0.3985
12411TIP3    H258725   1.970   0.938  16.029 -0.4430  0.6449 -0.4759
12412TIP3   OH258726   5.957   0.541  16.335  0.0912  0.1485 -0.0086
12412TIP3    H158727   5.868   0.543  16.371 -0.1385 -0.7651 -0.5116
12412TIP3    H258728   5.958   0.611  16.269 -0.6329 -0.6374 -0.8689
12413TIP3   OH258729   2.449   2.781   0.826  0.0037  0.5104 -0.3504
12413TIP3    H158730   2.460   2.876   0.821  0.3554  0.5392  0.7888
12413TIP3    H258731   2.480   2.749   0.741  0.8255  1.3307 -0.3746
12414TIP3   OH258732   6.126   5.961  15.620 -0.4175 -0.0754 -0.0080
12414TIP3    H158733   6.043   5.912  15.616  1.0455 -2.6398 -1.4973
12414TIP3    H258734   6.194   5.896  15.605  1.8887  2.0611  0.4013
12415TIP3   OH258735   5.315   5.498  14.173  0.2395 -0.1055 -0.1067
12415TIP3    H158736   5.233   5.450  14.158  0.9818 -1.2008 -0.8401
12415TIP3    H258737   5.337   5.480  14.264 -0.1138 -0.1559 -0.0297
12416TIP3   OH258738   5.063   2.507  10.897  0.5702  0.2622  0.5497
12416TIP3    H158739   5.070   2.537  10.806  2.9497 -0.1673  0.5268
12416TIP3    H258740   5.035   2.416  10.890 -1.6578  0.8855  0.4169
12417TIP3   OH258741   5.207   0.462   6.291  0.1833 -0.2097  0.0842
12417TIP3    H158742   5.158   0.405   6.350 -0.5444  2.0697  1.8865
12417TIP3    H258743   5.185   0.551   6.321  2.5943  0.9975 -1.4003
12418TIP3   OH258744   1.221   2.799  15.136  0.0135 -0.1253 -0.2604
12418TIP3    H158745   1.168   2.773  15.060 -1.2569  0.2090  0.4832
12418TIP3    H258746   1.183   2.882  15.164  0.3476 -0.3420  0.8607
12419TIP3   OH258747   4.862   1.162  14.341 -0.1381  0.1224  0.3638
12419TIP3    H158748   4.793   1.189  14.281  0.9858 -0.7136 -1.3765
12419TIP3    H258749   4.855   1.066  14.344  0.9035  0.0267  0.1803
12420TIP3   OH258750   5.204   1.268   3.771 -0.4032  0.1488 -0.4590
12420TIP3    H158751   5.201   1.298   3.862 -3.9570  1.0422 -0.7353
12420TIP3    H258752   5.136   1.319   3.727  1.6668  0.2724 -3.8453
12421TIP3   OH258753   0.419   3.505   4.471  0.2682 -0.1224  0.1590
12421TIP3    H158754   0.477   3.503   4.395  2.5336 -1.7263  1.7680
12421TIP3    H258755   0.347   3.446   4.449 -0.4134  1.2771 -1.5787
12422TIP3   OH258756   0.905   4.776   1.286  0.5008 -0.1268 -0.1786
12422TIP3    H158757   0.941   4.711   1.345 -2.6821  0.1101  2.3191
12422TIP3    H258758   0.961   4.853   1.296  1.3074 -0.8372  0.8146
12423TIP3   OH258759   2.616   4.594   0.515  0.5573  0.5795  0.2418
12423TIP3    H158760   2.623   4.594   0.420 -2.8581  0.6770 -0.1168
12423TIP3    H258761   2.641   4.683   0.541 -0.5015  1.2077 -0.8068
12424TIP3   OH258762   4.750   3.809   0.042 -0.0035 -0.0882  0.2471
12424TIP3    H158763   4.674   3.823  -0.014  0.6353  0.1388 -0.5898
12424TIP3    H258764   4.751   3.884   0.101  0.0470  0.3500 -0.3044
12425TIP3   OH258765   1.868   2.898   0.364 -0.4956 -0.5105  0.1925
12425TIP3    H158766   1.881   2.977   0.310  3.2208 -1.3066 -0.3617
12425TIP3    H258767   1.863   2.932   0.454 -0.3404  0.4616 -0.1465
12426TIP3   OH258768   3.445   4.784   2.322  0.0661  0.3966  0.1248
12426TIP3    H158769   3.479   4.814   2.238 -0.4595  0.7937  0.0527
12426TIP3    H258770   3.357   4.820   2.327 -0.3131 -0.5234  0.3616
12427TIP3   OH258771   6.719   6.797   4.713 -0.1553  0.0122 -0.1097
12427TIP3    H158772   6.717   6.820   4.806 -0.1676 -1.5435  0.3050
12427TIP3    H258773   6.713   6.881   4.667 -0.6257  0.7752  1.2884
12428TIP3   OH258774   3.422   5.384  11.904  0.0035  0.0948  0.1091
12428TIP3    H158775   3.350   5.330  11.935 -1.4016  0.7242 -1.8556
12428TIP3    H258776   3.388   5.474  11.907 -0.5783  0.1583 -3.7830
12429TIP3   OH258777   2.225   2.387  14.329 -0.1130 -0.1400  0.6432
12429TIP3    H158778   2.184   2.301  14.324  0.8328 -0.6146  0.8959
12429TIP3    H258779   2.156   2.445  14.360 -0.9546 -0.6684 -0.2171
12430TIP3   OH258780   1.995   2.097   0.998 -0.3057  0.1620  0.1207
12430TIP3    H158781   1.920   2.156   0.999 -0.3960  0.0447  0.5764
12430TIP3    H258782   2.071   2.153   1.015 -0.5256 -0.0167  1.9213
12431TIP3   OH258783   4.960   6.292  10.931  0.0498  0.2257 -0.5235
12431TIP3    H158784   4.972   6.241  11.011 -1.0919 -1.3541 -1.2970
12431TIP3    H258785   4.893   6.244  10.882 -2.0762  3.1280 -0.7674
12432TIP3   OH258786   4.716   4.996  11.129 -0.1155  0.7151 -0.1704
12432TIP3    H158787   4.807   4.997  11.098 -0.1801 -2.5026 -0.8291
12432TIP3    H258788   4.706   5.079  11.176  4.2165 -0.1182  2.9066
12433TIP3   OH258789   1.986   6.531  17.281 -0.2697  0.1327  0.3398
12433TIP3    H158790   1.993   6.436  17.270 -0.1419  0.0585  1.0784
12433TIP3    H258791   2.042   6.551  17.355 -1.5459  0.5665  1.2219
12434TIP3   OH258792   0.779   1.861  16.959 -0.0582 -0.3957 -1.0211
12434TIP3    H158793   0.693   1.844  16.997 -0.8462 -0.9618 -2.9443
12434TIP3    H258794   0.838   1.799  17.003 -0.2389  1.0410  1.4412
12435TIP3   OH258795   3.050   3.055   5.100  0.1406 -0.2002 -0.1005
12435TIP3    H158796   2.997   3.004   5.037 -0.0905 -0.0258 -0.0472
12435TIP3    H258797   3.106   3.110   5.045  1.2900 -1.4048 -0.1844
12436TIP3   OH258798   4.696   3.388   0.386 -0.4474  0.0191  0.0833
12436TIP3    H158799   4.703   3.352   0.474 -2.3580  0.6844  0.5538
12436TIP3    H258800   4.603   3.379   0.364  0.0351 -0.4093 -2.0022
12437TIP3   OH258801   1.712   0.558   1.765 -0.2033 -0.1290 -0.0962
12437TIP3    H158802   1.799   0.594   1.778 -0.2115 -0.0812 -0.1762
12437TIP3    H258803   1.726   0.464   1.755 -0.0572 -0.0149 -1.1201
12438TIP3   OH258804   4.168   1.139   1.973  0.0726 -0.2485  0.2443
12438TIP3    H158805   4.118   1.057   1.972  0.9557 -0.7933  0.0357
12438TIP3    H258806   4.107   1.203   2.009 -0.4271 -1.1361  1.0239
12439TIP3   OH258807   2.814   5.655  11.193 -0.4669 -0.2920  0.4716
12439TIP3    H158808   2.848   5.743  11.179 -1.1257  0.1263  1.3655
12439TIP3    H258809   2.891   5.602  11.214  0.1554 -0.3150 -1.6167
12440TIP3   OH258810   1.004   6.647  15.821  0.1888  0.3450 -0.5688
12440TIP3    H158811   1.077   6.709  15.829 -0.1301  0.8053 -1.1668
12440TIP3    H258812   1.026   6.595  15.744  1.1324 -1.2212  0.6976
12441TIP3   OH258813   5.240   1.712  16.319 -0.4399 -0.3391  0.2543
12441TIP3    H158814   5.146   1.695  16.313 -0.4722 -0.1713  0.2724
12441TIP3    H258815   5.251   1.801  16.285 -0.1766 -0.6717 -0.5419
12442TIP3   OH258816   0.282   2.817  11.664 -0.1652  0.4602  0.2913
12442TIP3    H158817   0.234   2.764  11.599 -1.1204  1.5005  0.1206
12442TIP3    H258818   0.321   2.887  11.613  0.5740  0.2847  0.6073
12443TIP3   OH258819   1.386   0.053   0.701  0.3910  0.6897 -0.2875
12443TIP3    H158820   1.312   0.045   0.760  0.0436  0.5462 -0.7327
12443TIP3    H258821   1.463   0.045   0.757  0.0677  0.6976  0.1581
12444TIP3   OH258822   2.489   3.201  11.112 -0.3139 -0.6484 -0.4216
12444TIP3    H158823   2.423   3.269  11.102 -1.3003 -1.4834  0.3008
12444TIP3    H258824   2.511   3.176  11.022  0.9579  1.4124 -0.7658
12445TIP3   OH258825   3.143   2.044  12.677 -0.2616  0.3056 -0.3924
12445TIP3    H158826   3.102   1.962  12.649  0.1002 -0.2251  0.5835
12445TIP3    H258827   3.237   2.029  12.665 -0.2469  0.9401 -1.1230
12446TIP3   OH258828   5.234   6.605  13.686 -0.3695 -0.1182  0.2726
12446TIP3    H158829   5.180   6.613  13.765  1.2359  0.0292  1.3940
12446TIP3    H258830   5.266   6.515  13.688  0.8305  0.3019  0.5885
12447TIP3   OH258831   5.636   2.206  14.174  0.2746  0.1720  0.0936
12447TIP3    H158832   5.541   2.218  14.177  0.4897  2.3855 -0.4697
12447TIP3    H258833   5.670   2.290  14.144  2.3942 -0.7528 -0.2630
12448TIP3   OH258834   2.759   0.566  12.108 -0.7104  0.5751  0.2741
12448TIP3    H158835   2.798   0.566  12.021 -2.7351  0.5178 -0.6941
12448TIP3    H258836   2.773   0.478  12.141 -1.9074 -0.1353 -0.9943
12449TIP3   OH258837   0.545   6.189   2.596  0.2338 -0.1335 -0.2694
12449TIP3    H158838   0.533   6.284   2.600 -1.1726 -0.2853 -0.5350
12449TIP3    H258839   0.639   6.177   2.609  0.4682  1.3044 -0.4236
12450TIP3   OH258840   5.922   2.496  16.513 -0.2823 -0.1421  0.1358
12450TIP3    H158841   5.956   2.467  16.598 -0.5622 -1.7137 -0.2531
12450TIP3    H258842   5.924   2.417  16.459 -1.3157  0.5370 -0.9268
12451TIP3   OH258843   6.420   2.597  16.186 -0.2057 -0.3983 -0.1378
12451TIP3    H158844   6.422   2.652  16.264  1.1406  0.1106 -0.4934
12451TIP3    H258845   6.349   2.535  16.201  1.4525 -1.8146  2.5543
12452TIP3   OH258846   5.227   0.657  15.145  0.3226  0.0481  0.2863
12452TIP3    H158847   5.217   0.566  15.118 -0.7030  0.8104 -2.1765
12452TIP3    H258848   5.308   0.658  15.197  1.4048 -1.9363 -1.2118
12453TIP3   OH258849   3.908   0.935  13.053 -0.2541  0.7548  0.1899
12453TIP3    H158850   3.850   0.996  13.098  0.1049  2.7826 -1.9128
12453TIP3    H258851   3.871   0.926  12.966  0.0313 -1.6964  0.2443
12454TIP3   OH258852   3.218   3.090   2.174  0.4955 -0.1876  0.1526
12454TIP3    H158853   3.199   2.997   2.161 -0.3105 -0.1737  1.1640
12454TIP3    H258854   3.302   3.103   2.129 -0.6121 -0.8081 -2.2506
12455TIP3   OH258855   1.178   0.641  16.898 -0.1388  0.8453 -0.0743
12455TIP3    H158856   1.174   0.554  16.858  1.3467  1.0506 -0.7315
12455TIP3    H258857   1.236   0.691  16.840 -1.7905  2.6107 -0.2973
12456TIP3   OH258858   4.975   0.393  16.367  0.2031 -0.8527 -0.0833
12456TIP3    H158859   5.008   0.482  16.361  1.4237 -1.3090 -0.6147
12456TIP3    H258860   4.909   0.386  16.298  0.6201 -0.5649 -0.5134
12457TIP3   OH258861   0.001   5.910   3.777 -0.7526 -0.2482  0.0668
12457TIP3    H158862  -0.055   5.900   3.853  0.7222 -1.2150  1.0774
12457TIP3    H258863  -0.021   5.996   3.741 -2.6931 -0.5229  0.5311
12458TIP3   OH258864   0.808   2.501  13.744 -0.1649  0.2702  0.6747
12458TIP3    H158865   0.765   2.574  13.789  0.6291  0.2849  1.4533
12458TIP3    H258866   0.797   2.427  13.804  1.3031  0.3960  1.1531
12459TIP3   OH258867   3.178   2.884   6.671  0.2121  0.1478  0.2135
12459TIP3    H158868   3.255   2.826   6.675  0.8610  1.0488  2.6499
12459TIP3    H258869   3.215   2.972   6.674 -0.9087  0.6077  0.9110
12460TIP3   OH258870   5.873   6.429  11.114  0.5737  0.1502 -0.0825
12460TIP3    H158871   5.855   6.409  11.022  4.6432 -0.4334 -0.9413
12460TIP3    H258872   5.858   6.524  11.120 -0.1849  0.1280 -1.1916
12461TIP3   OH258873   3.219   6.663   0.199  0.6494  1.2868  0.1574
12461TIP3    H158874   3.224   6.568   0.196 -0.8487  1.0396  2.6615
12461TIP3    H258875   3.230   6.691   0.108 -1.5580 -1.4439 -1.0820
12462TIP3   OH258876   3.551   3.028  10.911  0.3218  0.2043 -0.6367
12462TIP3    H158877   3.470   3.074  10.932 -0.5371 -1.0351 -1.1272
12462TIP3    H258878   3.575   3.059  10.823 -1.8331 -2.3015 -2.2345
12463TIP3   OH258879   4.282   3.465   2.609 -0.2695  0.1568  0.2292
12463TIP3    H158880   4.338   3.417   2.669  1.6843  1.2895 -0.5859
12463TIP3    H258881   4.274   3.408   2.532  1.3088  0.6790 -0.3730
12464TIP3   OH258882   6.777   1.504   4.191  0.7586  0.2395 -0.1563
12464TIP3    H158883   6.846   1.534   4.132  1.6477  0.8045  1.1323
12464TIP3    H258884   6.709   1.468   4.133  1.3791  1.2270 -1.5301
12465TIP3   OH258885   1.388   4.221  14.938  0.3202 -0.5080 -0.8523
12465TIP3    H158886   1.369   4.313  14.918  2.3043  0.2070  0.2700
12465TIP3    H258887   1.316   4.193  14.993  0.3837  0.8282 -0.0519
12466TIP3   OH258888   0.651   1.024   2.362  0.1277  0.6516 -0.7439
12466TIP3    H158889   0.662   1.003   2.269  0.6078 -0.6592 -0.4113
12466TIP3    H258890   0.740   1.034   2.395  0.0124 -0.1071 -0.1744
12467TIP3   OH258891   6.091   4.138  14.958 -0.1546  0.1624  0.5086
12467TIP3    H158892   6.047   4.153  14.875 -1.4999 -0.9833  0.9803
12467TIP3    H258893   6.042   4.191  15.021  0.1948  0.1894  0.7635
12468TIP3   OH258894   6.763   6.192   1.056 -0.9623  0.2316  0.1317
12468TIP3    H158895   6.742   6.100   1.075 -0.3948  0.2974  1.2083
12468TIP3    H258896   6.751   6.201   0.962 -0.5312 -1.0963 -0.0765
12469TIP3   OH258897   2.665   0.808  12.837 -0.1874 -0.0272  0.6710
12469TIP3    H158898   2.662   0.720  12.875 -0.8692  0.1422  1.0420
12469TIP3    H258899   2.587   0.851  12.873 -0.0903  0.5865  0.1545
12470TIP3   OH258900   0.951   2.388  14.774 -0.0515 -0.2883 -0.4798
12470TIP3    H158901   0.867   2.364  14.812  0.6165 -0.7245  0.7659
12470TIP3    H258902   0.937   2.383  14.679 -1.0724 -1.6474 -0.2848
12471TIP3   OH258903   0.323   3.666   3.696 -0.0324 -0.3809  0.3327
12471TIP3    H158904   0.395   3.667   3.633  0.1252  0.9635  0.5057
12471TIP3    H258905   0.323   3.753   3.734 -1.0956 -0.6932  1.1045
12472TIP3   OH258906   5.524   3.617   0.617 -0.2987 -0.3555  0.2473
12472TIP3    H158907   5.486   3.636   0.532 -0.0985  0.3385  0.3074
12472TIP3    H258908   5.519   3.699   0.665  2.0558  0.0552 -0.0561
12473TIP3   OH258909   5.954   1.942   2.481 -0.4245  0.1262 -0.3325
12473TIP3    H158910   5.994   1.917   2.564 -0.0169 -0.5870 -0.7337
12473TIP3    H258911   5.891   1.872   2.464 -1.1663  0.7413 -0.1838
12474TIP3   OH258912   2.919   0.243   1.153 -0.1392 -0.3738 -0.3041
12474TIP3    H158913   2.998   0.292   1.133 -1.7826  2.3810 -0.6507
12474TIP3    H258914   2.873   0.235   1.069 -0.7123 -1.0249  0.0574
12475TIP3   OH258915   3.118   1.975   5.986  0.1384  0.2889  0.0449
12475TIP3    H158916   3.158   1.982   5.899 -0.3119 -0.6917 -0.2496
12475TIP3    H258917   3.173   2.031   6.042  0.4438  0.9063 -0.8568
12476TIP3   OH258918   4.909   4.915   6.008  0.0460  0.0250  0.3927
12476TIP3    H158919   4.947   4.941   6.092  0.1302 -0.2450  0.4400
12476TIP3    H258920   4.980   4.923   5.945  0.1101 -0.2262  0.4332
12477TIP3   OH258921   5.806   1.316   0.121  0.5992 -0.0003  0.0739
12477TIP3    H158922   5.830   1.325   0.029 -0.5809 -0.2518 -0.2710
12477TIP3    H258923   5.755   1.235   0.125  0.3988  0.1536  0.9026
12478TIP3   OH258924   2.954   5.223  12.385  0.1008  0.1641  0.1862
12478TIP3    H158925   2.924   5.273  12.461 -0.9667  0.9766 -0.7261
12478TIP3    H258926   2.875   5.180  12.352  0.9570 -2.0097  0.8138
12479TIP3   OH258927   5.792   2.139  16.976 -0.3751  0.2736 -0.0895
12479TIP3    H158928   5.754   2.072  16.921 -0.5181 -1.4788  2.0041
12479TIP3    H258929   5.718   2.176  17.024 -0.3553  2.2710 -1.4970
12480TIP3   OH258930   3.900   2.405  15.577 -0.4323  0.3842 -0.0597
12480TIP3    H158931   3.886   2.367  15.664  0.1331  0.3767  0.0314
12480TIP3    H258932   3.944   2.336  15.527 -0.5831  0.4580 -0.3005
12481TIP3   OH258933   2.808   2.995  12.833 -0.1650  0.5981 -0.0904
12481TIP3    H158934   2.797   3.022  12.742 -0.2653 -1.4172 -0.7256
12481TIP3    H258935   2.737   2.933  12.849  1.4293 -1.2065  0.4490
12482TIP3   OH258936   2.255   4.921   3.246 -0.6721 -0.1484  0.3443
12482TIP3    H158937   2.179   4.924   3.187  0.8277  2.3731 -1.6639
12482TIP3    H258938   2.287   5.011   3.249  1.7900 -0.9742  1.7850
12483TIP3   OH258939   4.085   6.405   0.221  0.1801 -0.2091  0.2042
12483TIP3    H158940   4.160   6.402   0.280 -1.1092 -1.3098  1.8749
12483TIP3    H258941   4.062   6.314   0.206 -0.5605  0.1020 -0.6369
12484TIP3   OH258942   4.088   4.418   3.913 -0.1097 -0.1636 -0.0270
12484TIP3    H158943   4.122   4.396   3.827  0.3903 -1.1278  0.3989
12484TIP3    H258944   4.157   4.391   3.974 -0.4690  0.4578  0.6773
12485TIP3   OH258945   2.649   4.432  13.984 -0.3203 -0.3620 -0.6153
12485TIP3    H158946   2.661   4.525  14.003 -0.5412 -0.6054  0.8728
12485TIP3    H258947   2.707   4.414  13.910  1.4303  0.4793  0.5005
12486TIP3   OH258948   3.220   3.220   1.725  0.1082  0.0202  0.6293
12486TIP3    H158949   3.286   3.212   1.793  0.6294 -3.3037 -0.1147
12486TIP3    H258950   3.261   3.276   1.659  0.6061  1.1618  1.8664
12487TIP3   OH258951   0.077   5.482   0.940  0.3749  0.4508 -0.2927
12487TIP3    H158952   0.026   5.519   0.868  0.9692 -0.0098 -0.9731
12487TIP3    H258953   0.015   5.426   0.986 -0.7458  2.7445  1.1934
12488TIP3   OH258954   0.156   6.596   3.811  0.2763  0.7066 -0.2463
12488TIP3    H158955   0.119   6.631   3.729 -1.0633 -1.4226 -0.6326
12488TIP3    H258956   0.234   6.548   3.783 -0.1210  0.0701 -0.2803
12489TIP3   OH258957   6.608   5.248  12.985  0.5020  0.2912  0.2382
12489TIP3    H158958   6.601   5.268  13.079  0.1353 -0.4877  0.3879
12489TIP3    H258959   6.601   5.333  12.941 -0.7453  0.5254  0.8454
12490TIP3   OH258960   3.286   2.107  15.466 -0.0376  0.4453  0.0915
12490TIP3    H158961   3.198   2.105  15.502 -0.0304  0.2849  0.0978
12490TIP3    H258962   3.281   2.170  15.394  0.1070  1.2879  0.7929
12491TIP3   OH258963   3.082   1.123  13.970  0.1863 -0.9937  0.2335
12491TIP3    H158964   2.994   1.127  14.009  0.4117  0.4896  0.6701
12491TIP3    H258965   3.129   1.195  14.012  0.4242  0.7868 -2.8374
12492TIP3   OH258966   5.351   3.017  15.410 -0.0517  0.1789  0.8214
12492TIP3    H158967   5.299   3.047  15.336  0.4815 -0.9272 -0.0131
12492TIP3    H258968   5.377   2.928  15.388  1.1739  0.2685  1.7578
12493TIP3   OH258969   2.391   0.157   4.738 -0.0786  0.1983  0.4523
12493TIP3    H158970   2.444   0.108   4.802 -0.2339 -0.9116 -0.2434
12493TIP3    H258971   2.414   0.118   4.654 -3.3193 -1.6579  0.2470
12494TIP3   OH258972   0.007   5.370   0.069 -0.1006 -0.7110 -0.0996
12494TIP3    H158973  -0.038   5.449   0.039  1.9898 -0.4840 -3.0538
12494TIP3    H258974  -0.055   5.299   0.055 -0.3652 -0.1443 -1.9719
12495TIP3   OH258975   2.330   1.408   4.198  0.0332  0.3451  0.3870
12495TIP3    H158976   2.302   1.398   4.108  0.2960 -1.6469  0.4904
12495TIP3    H258977   2.424   1.387   4.197  0.0974  0.5392  1.0904
12496TIP3   OH258978   2.461   2.600  14.594 -0.1332 -0.5906  0.3086
12496TIP3    H158979   2.409   2.622  14.670  0.4250  0.9300  0.2756
12496TIP3    H258980   2.409   2.629  14.519  0.1726 -0.2683  0.2158
12497TIP3   OH258981   1.969   4.751   3.403  0.3446  0.0349 -0.3072
12497TIP3    H158982   1.916   4.813   3.353 -2.0622 -1.6742 -0.0176
12497TIP3    H258983   1.933   4.754   3.492 -0.0379 -1.9163 -0.3420
12498TIP3   OH258984   0.442   4.311   3.672 -0.5241 -0.4206 -0.7152
12498TIP3    H158985   0.355   4.317   3.711 -0.0461 -2.2478  0.7750
12498TIP3    H258986   0.429   4.257   3.593 -0.9853  0.7477 -1.4689
12499TIP3   OH258987   6.658   1.504  12.558  0.6087  0.1375 -0.6864
12499TIP3    H158988   6.680   1.446  12.484  0.8923  0.0870 -0.5626
12499TIP3    H258989   6.742   1.536  12.589  0.6788 -1.4442  0.9200
12500TIP3   OH258990   4.818   2.364   0.131  0.2552 -0.3310 -0.7175
12500TIP3    H158991   4.906   2.345   0.163  0.5525  0.1258 -1.2429
12500TIP3    H258992   4.793   2.286   0.081 -0.8808 -1.7807  1.8989
12501TIP3   OH258993   4.157   6.163   0.552  0.1166  0.8519 -0.0642
12501TIP3    H158994   4.233   6.221   0.548  0.4054  0.6162  1.4040
12501TIP3    H258995   4.185   6.091   0.608 -1.2771  0.9045  0.7477
12502TIP3   OH258996   1.593   4.169   2.859  0.0517  0.0098  0.1414
12502TIP3    H158997   1.599   4.234   2.790 -0.3296 -0.3252 -0.2098
12502TIP3    H258998   1.548   4.214   2.931  1.1241  0.5950  0.4695
12503TIP3   OH258999   0.643   3.575   4.936  0.3283  0.1388  0.1353
12503TIP3    H159000   0.567   3.587   4.880 -0.0149  2.3062  0.9701
12503TIP3    H259001   0.634   3.486   4.971 -1.4664  0.1248 -0.2943
12504TIP3   OH259002   6.149   3.767   2.319  0.0494 -0.1745 -0.2042
12504TIP3    H159003   6.103   3.778   2.402  1.4279 -3.0188  1.0808
12504TIP3    H259004   6.133   3.848   2.271 -0.7847  1.5903  2.8205
12505TIP3   OH259005   2.764   6.748  13.532  0.0527  0.5972 -0.2896
12505TIP3    H159006   2.729   6.670  13.577 -0.7113  0.5326 -0.9700
12505TIP3    H259007   2.779   6.811  13.602  0.0481  0.0727  0.1970
12506TIP3   OH259008   2.891   3.521  11.478 -0.4126 -0.0315 -0.5013
12506TIP3    H159009   2.928   3.607  11.462  1.7815 -0.8982 -0.3680
12506TIP3    H259010   2.812   3.519  11.424 -1.5007  2.6316  0.8043
12507TIP3   OH259011   0.756   0.003   6.437  0.3145 -0.1966  0.1076
12507TIP3    H159012   0.774  -0.058   6.509  0.3834  0.0396  0.2935
12507TIP3    H259013   0.769   0.089   6.476  1.0374 -0.0826 -0.3745
12508TIP3   OH259014   1.725   4.466   5.965  0.2210  0.6014  0.3013
12508TIP3    H159015   1.665   4.530   6.004 -0.8003 -0.7460  1.0310
12508TIP3    H259016   1.713   4.387   6.018  2.8824  0.3522  0.6639
12509TIP3   OH259017   0.714   2.839  12.801 -0.6481 -0.3515  0.0375
12509TIP3    H159018   0.720   2.901  12.873 -0.1506  0.9625 -1.0725
12509TIP3    H259019   0.630   2.859  12.759 -1.1628 -1.4382  0.5340
12510TIP3   OH259020   5.249   1.513  12.541  0.5123  0.0128  0.0699
12510TIP3    H159021   5.314   1.536  12.474  2.9070 -1.4817  1.7381
12510TIP3    H259022   5.238   1.593  12.592  2.3825 -0.1227  0.7643
12511TIP3   OH259023   0.841   3.086  16.711  0.1368  0.3003 -0.6146
12511TIP3    H159024   0.898   3.009  16.702 -1.4875 -0.8049 -2.1390
12511TIP3    H259025   0.835   3.121  16.622 -0.1461  1.4555 -0.1490
12512TIP3   OH259026   5.330   5.258  11.686 -0.2284 -0.0074  0.2187
12512TIP3    H159027   5.290   5.295  11.608 -1.7112 -0.8626  0.5285
12512TIP3    H259028   5.354   5.168  11.661 -0.3426 -0.1541  0.6221
12513TIP3   OH259029   5.635   2.348  15.301 -0.5325  0.0687 -0.0751
12513TIP3    H159030   5.700   2.418  15.308 -0.6546  0.2067 -0.2896
12513TIP3    H259031   5.641   2.320  15.209 -0.4304 -0.2562  0.0280
12514TIP3   OH259032   4.230   1.699  17.230 -0.3702  0.6115 -0.9014
12514TIP3    H159033   4.312   1.669  17.268 -0.9905 -1.1238 -0.8183
12514TIP3    H259034   4.225   1.792  17.253  1.7636  0.8872 -1.3273
12515TIP3   OH259035   4.454   4.463  11.641  0.3841  0.2985 -0.4022
12515TIP3    H159036   4.382   4.479  11.702  0.7202 -0.0339  0.0967
12515TIP3    H259037   4.420   4.399  11.579  1.0791 -2.0682  1.4773
12516TIP3   OH259038   3.506   1.492  15.338 -0.1041 -0.7309  0.5512
12516TIP3    H159039   3.568   1.550  15.383 -0.1649  0.1450 -0.4518
12516TIP3    H259040   3.420   1.525  15.366 -0.1378 -0.3578  0.0197
12517TIP3   OH259041   5.511   5.138  10.965 -0.2781  0.0321  0.9235
12517TIP3    H159042   5.521   5.076  11.037  1.4347 -1.5366 -0.5433
12517TIP3    H259043   5.585   5.118  10.906 -1.9996  0.6794 -1.6320
12518TIP3   OH259044   2.994   0.094   0.331  0.3646 -0.2598 -0.4736
12518TIP3    H159045   3.013   0.024   0.269 -1.2582 -0.0304 -1.2846
12518TIP3    H259046   3.027   0.173   0.289 -0.1024 -0.2007 -0.7347
12519TIP3   OH259047   0.897   1.997  11.276 -0.3901  0.5887 -0.2800
12519TIP3    H159048   0.917   2.089  11.292 -1.5354  0.7404  0.3745
12519TIP3    H259049   0.954   1.949  11.336 -0.6788  0.9247  0.2685
12520TIP3   OH259050   2.189   0.602  13.854 -0.1240 -0.3097  0.8915
12520TIP3    H159051   2.271   0.561  13.883 -0.3440 -0.6628  1.0122
12520TIP3    H259052   2.181   0.679  13.911  0.1896 -0.2002  0.7936
12521TIP3   OH259053   6.364   5.972   2.967  0.1977 -0.1462  0.2287
12521TIP3    H159054   6.404   6.037   3.024 -0.1104  0.7577 -0.5651
12521TIP3    H259055   6.270   5.988   2.973 -0.2566 -2.8875  2.8616
12522TIP3   OH259056   1.616   6.431  12.016 -0.4329 -0.1382  0.3488
12522TIP3    H159057   1.537   6.446  11.965 -0.4930  0.4014  0.5917
12522TIP3    H259058   1.625   6.509  12.071 -1.5536 -1.5548  2.7368
12523TIP3   OH259059   1.330   6.322  13.054 -0.0142 -0.3904 -0.1838
12523TIP3    H159060   1.381   6.279  12.985 -0.0574 -0.4701 -0.1664
12523TIP3    H259061   1.239   6.309  13.028 -0.0967 -1.8840  0.7389
12524TIP3   OH259062   5.472   1.231  16.538  0.1619 -0.0981  0.3211
12524TIP3    H159063   5.482   1.259  16.447  0.4703  0.4682  0.5275
12524TIP3    H259064   5.556   1.190  16.559  0.3885  0.4910  0.5967
12525TIP3   OH259065   6.005   3.000  16.986  0.3065 -0.0340  0.4912
12525TIP3    H159066   6.042   3.087  17.001 -0.2243  0.4728 -1.0082
12525TIP3    H259067   5.910   3.013  16.994  0.1853 -0.3249 -0.4111
12526TIP3   OH259068   3.328   4.353   1.259  0.4087 -0.5273 -0.4492
12526TIP3    H159069   3.298   4.289   1.324 -0.0961 -0.0894 -0.2507
12526TIP3    H259070   3.364   4.299   1.188  1.3055 -1.0032  0.3465
12527TIP3   OH259071   0.157   1.670   1.247 -0.0462 -0.1433 -0.6060
12527TIP3    H159072   0.132   1.650   1.337  0.2164 -3.1777 -1.1161
12527TIP3    H259073   0.228   1.734   1.257 -0.3911  0.0187  1.3168
12528TIP3   OH259074   5.536   2.098  14.793  0.2764  0.1380 -0.2553
12528TIP3    H159075   5.453   2.062  14.824 -0.2932  1.1495 -0.5404
12528TIP3    H259076   5.512   2.181  14.752  1.4122  0.3655 -0.4996
12529TIP3   OH259077   4.636   2.963   2.336  0.1197 -0.1052  0.2096
12529TIP3    H159078   4.544   2.984   2.320  0.4733  1.1253 -0.3021
12529TIP3    H259079   4.652   2.993   2.425 -0.5834 -2.6055  1.2953
12530TIP3   OH259080   5.019   2.475  14.955 -0.0284 -0.1859  0.2153
12530TIP3    H159081   5.045   2.503  14.868 -1.7490  1.6713  0.2426
12530TIP3    H259082   5.081   2.517  15.014  1.4238 -1.8109 -0.0636
12531TIP3   OH259083   4.267   3.911   2.258 -0.2808  0.4543  0.1375
12531TIP3    H159084   4.295   3.896   2.348 -2.6277  4.0641  1.7270
12531TIP3    H259085   4.341   3.955   2.216  0.3210  0.0044  0.7097
12532TIP3   OH259086   0.978   2.006   1.769 -0.1460 -0.6034  1.0727
12532TIP3    H159087   1.061   1.978   1.729 -0.4966 -0.2795  0.1120
12532TIP3    H259088   0.915   2.007   1.697 -0.5864  0.8471  1.4498
12533TIP3   OH259089   1.164   2.818  16.387  0.0494 -0.8770  0.6034
12533TIP3    H159090   1.074   2.806  16.357  0.0102 -1.5788  0.9830
12533TIP3    H259091   1.156   2.850  16.477  0.1720 -0.5753  0.5045
12534TIP3   OH259092   4.417   3.003  10.948 -0.3766 -0.0146 -0.1020
12534TIP3    H159093   4.390   3.036  10.863  0.3391 -1.5358 -0.9555
12534TIP3    H259094   4.436   2.910  10.933 -1.0348 -0.5250  1.8956
12535TIP3   OH259095   2.256   2.033  14.538  0.1113 -0.4487  0.1081
12535TIP3    H159096   2.285   1.947  14.570 -0.7561 -0.7030  0.2478
12535TIP3    H259097   2.288   2.037  14.448  0.7580 -0.6264  0.3272
12536TIP3   OH259098   3.339   6.804   1.822  0.1877 -0.4190  0.5412
12536TIP3    H159099   3.309   6.885   1.864  1.5235 -0.4608  1.6406
12536TIP3    H259100   3.271   6.739   1.844 -0.3588  0.1452  0.5448
12537TIP3   OH259101   6.213   2.086   3.626 -0.5305  0.2584  0.3183
12537TIP3    H159102   6.158   2.113   3.553 -1.0663 -0.5685  0.3953
12537TIP3    H259103   6.185   1.996   3.645  0.6608 -0.0859  0.5385
12538TIP3   OH259104   0.668   6.658   0.683  0.5196 -0.1170 -0.0756
12538TIP3    H159105   0.603   6.597   0.718  1.3038 -0.6093  0.5750
12538TIP3    H259106   0.621   6.740   0.671 -0.3941 -0.6545 -0.3182
12539TIP3   OH259107   1.929   3.966  15.018 -0.1091 -0.2507 -0.1148
12539TIP3    H159108   1.837   3.938  15.020  0.1697 -1.1998 -0.1259
12539TIP3    H259109   1.957   3.949  14.929  0.1451 -0.1699 -0.0491
12540TIP3   OH259110   3.874   4.767   1.653  0.0980 -0.0467 -0.0565
12540TIP3    H159111   3.882   4.861   1.633  0.1673  0.4435  2.0456
12540TIP3    H259112   3.946   4.727   1.604 -0.4171  0.8640 -1.6333
12541TIP3   OH259113   4.948   0.272   0.715 -0.1813 -0.0695 -0.4847
12541TIP3    H159114   4.862   0.276   0.757  0.6373  0.5439  1.2181
12541TIP3    H259115   4.931   0.295   0.624 -1.8880 -0.4637 -0.3078
12542TIP3   OH259116   3.263   2.522   4.106  0.2702 -0.3882 -0.3393
12542TIP3    H159117   3.321   2.581   4.154  1.7339 -0.1378 -2.2766
12542TIP3    H259118   3.226   2.577   4.037  0.4869 -1.3679 -1.2572
12543TIP3   OH259119   1.074   1.586  13.247  0.4137  0.3187 -0.6800
12543TIP3    H159120   1.099   1.606  13.157 -1.8071  0.4778 -1.3277
12543TIP3    H259121   1.043   1.669  13.283 -1.1647 -0.2159 -0.6851
12544TIP3   OH259122   5.557   1.071  11.464 -0.3000  0.1541 -0.2106
12544TIP3    H159123   5.483   1.129  11.442 -1.2628 -0.7516  0.5537
12544TIP3    H259124   5.545   0.995  11.408 -0.1811 -0.1694  0.1980
12545TIP3   OH259125   4.851   0.977   0.961  0.0681  0.1173  0.2829
12545TIP3    H159126   4.856   0.886   0.931  1.2311  0.2773 -0.0797
12545TIP3    H259127   4.833   1.027   0.882 -0.0421  0.2458  0.3901
12546TIP3   OH259128   4.732   5.179  17.030  0.2249  0.4707 -0.1661
12546TIP3    H159129   4.654   5.229  17.053 -0.3525 -1.1509  1.7252
12546TIP3    H259130   4.759   5.138  17.112  1.0816 -1.6661 -1.4151
12547TIP3   OH259131   2.997   3.321   6.004 -0.5098  0.6176  0.4314
12547TIP3    H159132   3.038   3.362   5.928 -1.7617  0.6752 -0.2388
12547TIP3    H259133   2.977   3.232   5.976  2.6558 -0.7989  2.0379
12548TIP3   OH259134   6.034   5.498   1.758  0.0686  0.4588  0.0755
12548TIP3    H159135   6.072   5.415   1.786 -0.6938  0.1175  0.1147
12548TIP3    H259136   5.957   5.473   1.706 -1.2687  1.1615  1.6540
12549TIP3   OH259137   6.094   2.530   4.008 -0.7786  0.1200  0.2108
12549TIP3    H159138   6.187   2.531   4.031 -0.5749 -0.1330 -0.5558
12549TIP3    H259139   6.068   2.439   4.019 -0.3868 -0.2528 -1.5825
12550TIP3   OH259140   5.630   5.501  10.954 -0.0472  0.2972  0.3674
12550TIP3    H159141   5.582   5.574  10.993 -0.1898  0.7018 -0.5381
12550TIP3    H259142   5.685   5.467  11.025 -0.8913  0.4889  1.1356
12551TIP3   OH259143   4.898   2.161  13.698  0.0164 -0.4307  0.0358
12551TIP3    H159144   4.874   2.254  13.689 -0.1396 -0.6376 -2.0924
12551TIP3    H259145   4.993   2.160  13.687 -0.0703 -0.5961 -0.7301
12552TIP3   OH259146   2.389   2.187   0.009 -0.2093  0.2069  0.3350
12552TIP3    H159147   2.415   2.278  -0.008 -0.5771  0.4633  1.1295
12552TIP3    H259148   2.362   2.186   0.100 -2.9847 -0.0440 -0.4210
12553TIP3   OH259149   5.321   0.175   0.422 -0.2702  0.7790 -0.1324
12553TIP3    H159150   5.370   0.250   0.456  1.9506  1.1776 -3.6188
12553TIP3    H259151   5.258   0.154   0.490  3.1629  1.7787  3.7493
12554TIP3   OH259152   1.722   5.583   1.900 -0.1271 -0.9373 -0.1029
12554TIP3    H159153   1.734   5.544   1.813  0.1770  3.3502 -2.2636
12554TIP3    H259154   1.800   5.637   1.913  0.9428 -3.0827  4.0359
12555TIP3   OH259155   4.908   6.021   5.917  0.5764 -0.0689  0.2336
12555TIP3    H159156   4.842   5.969   5.869  0.9356 -0.1384 -0.1924
12555TIP3    H259157   4.990   5.975   5.902  0.7193 -0.0054  0.8037
12556TIP3   OH259158   6.326   5.681   1.157  0.3524 -0.0058  0.4064
12556TIP3    H159159   6.351   5.723   1.074  1.2710 -1.1615  0.0650
12556TIP3    H259160   6.231   5.679   1.156  0.3547 -0.0782 -0.6764
12557TIP3   OH259161   0.444   2.757   2.059  0.0785 -0.4544  0.7111
12557TIP3    H159162   0.506   2.699   2.014  0.9119 -0.2218  1.5134
12557TIP3    H259163   0.410   2.814   1.990  0.0941 -1.1660  0.1043
12558TIP3   OH259164   2.878   6.470   0.603  0.2180  0.1581 -0.1613
12558TIP3    H159165   2.927   6.549   0.625 -0.8546  1.0737 -0.9175
12558TIP3    H259166   2.789   6.488   0.633 -0.3123 -0.2386 -1.4111
12559TIP3   OH259167   4.238   0.489   2.027 -0.1701  0.2430 -0.1508
12559TIP3    H159168   4.168   0.502   2.091 -0.0038  0.5640 -0.0295
12559TIP3    H259169   4.287   0.572   2.028 -0.1816  0.2618 -0.7105
12560TIP3   OH259170   3.133   0.883   4.502  0.1139 -0.3183  0.5105
12560TIP3    H159171   3.164   0.972   4.519 -0.6346  0.0470 -0.0223
12560TIP3    H259172   3.126   0.844   4.589  1.0852 -0.0877  0.7111
12561TIP3   OH259173   6.481   3.564  15.973  0.0634 -0.2283  0.7848
12561TIP3    H159174   6.508   3.567  15.881 -0.8780 -1.2432  0.4666
12561TIP3    H259175   6.387   3.581  15.971 -0.4262 -2.5616  1.3159
12562TIP3   OH259176   5.768   4.611   6.654 -0.5696  0.0366 -0.1429
12562TIP3    H159177   5.814   4.682   6.699  0.2649 -0.1837 -0.6410
12562TIP3    H259178   5.676   4.638   6.655 -0.4722  0.3499  1.0949
12563TIP3   OH259179   1.297   3.188   3.360 -0.5190  0.6108 -0.1756
12563TIP3    H159180   1.262   3.181   3.449 -0.6197  0.2772 -0.2404
12563TIP3    H259181   1.352   3.111   3.350  0.8372  1.5063  0.1847
12564TIP3   OH259182   5.461   3.223  11.695 -0.1755 -0.1050  0.0709
12564TIP3    H159183   5.548   3.220  11.654  0.4626  0.3060  1.3478
12564TIP3    H259184   5.412   3.152  11.653  1.1891 -1.1917  0.2397
12565TIP3   OH259185   5.089   2.055  15.683 -0.2347 -0.3343  0.3191
12565TIP3    H159186   5.073   2.030  15.774  0.6782  0.8571  0.8242
12565TIP3    H259187   5.132   1.979  15.644 -0.6403 -0.8507  0.8630
12566TIP3   OH259188   4.760   4.826   6.529  0.6530 -0.0080 -0.2539
12566TIP3    H159189   4.684   4.858   6.578  0.0441  0.3940 -1.3967
12566TIP3    H259190   4.835   4.849   6.583 -0.0996 -2.5845  2.1204
12567TIP3   OH259191   5.800   4.625  17.214 -0.3943  0.3319  0.1373
12567TIP3    H159192   5.876   4.675  17.182 -0.5668  1.0313  0.7926
12567TIP3    H259193   5.816   4.614  17.307 -2.2128  2.6208  0.8223
12568TIP3   OH259194   1.780   1.225   5.593  1.1700 -0.0121 -0.0489
12568TIP3    H159195   1.786   1.318   5.572  3.1258 -0.2081 -0.6041
12568TIP3    H259196   1.850   1.210   5.657 -0.8520 -0.6222  2.1311
12569TIP3   OH259197   6.257   1.018  13.879  0.0188 -0.7684  0.4552
12569TIP3    H159198   6.299   1.039  13.963 -2.0742  0.4565  1.2679
12569TIP3    H259199   6.173   1.063  13.882 -0.8230 -2.0382 -1.6473
12570TIP3   OH259200   4.491   1.495  11.787 -0.1733  0.4696  0.1352
12570TIP3    H159201   4.532   1.444  11.717  0.9174  1.5474 -0.0504
12570TIP3    H259202   4.560   1.508  11.851 -1.2899 -0.9291  1.7111
12571TIP3   OH259203   6.685   5.592   0.126 -0.2782 -0.2891  0.3182
12571TIP3    H159204   6.713   5.663   0.183  0.3950 -1.2251  1.1908
12571TIP3    H259205   6.591   5.583   0.143 -0.2583  0.0249  0.5983
12572TIP3   OH259206   5.948   6.469   5.326  0.3063 -0.1448 -0.0916
12572TIP3    H159207   5.908   6.556   5.328  0.2854 -0.0589 -2.4504
12572TIP3    H259208   6.030   6.479   5.375  0.1360  1.0970 -0.0228
12573TIP3   OH259209   2.952   3.312   0.558  0.7067  0.3687  0.5435
12573TIP3    H159210   2.943   3.343   0.468  1.4604  1.5939  0.8570
12573TIP3    H259211   3.013   3.238   0.552  0.6184  0.3341  0.0378
12574TIP3   OH259212   3.246   1.468   4.637 -0.0595 -0.2568  0.2273
12574TIP3    H159213   3.173   1.446   4.695 -0.8324  1.6809  0.0646
12574TIP3    H259214   3.319   1.488   4.696 -0.3037 -0.0852  0.4741
12575TIP3   OH259215   1.708   4.162  16.517 -0.6226 -0.1495 -0.2117
12575TIP3    H159216   1.762   4.191  16.443  0.4082  1.1624  0.9942
12575TIP3    H259217   1.770   4.154  16.590 -1.6453 -1.2104  0.5768
12576TIP3   OH259218   3.941   3.515  11.629 -0.3062  0.8378 -0.0864
12576TIP3    H159219   3.858   3.510  11.583 -0.2804 -0.7819 -0.0216
12576TIP3    H259220   3.938   3.443  11.693  1.5291  0.0777 -0.7640
12577TIP3   OH259221   2.044   6.039   4.873 -0.4634  0.0540 -0.1626
12577TIP3    H159222   1.966   6.094   4.882 -0.4318  0.2874 -1.1107
12577TIP3    H259223   2.051   6.023   4.778  0.5421 -0.0995 -0.0811
12578TIP3   OH259224   5.799   5.584  12.604  0.1764  0.2333  0.1421
12578TIP3    H159225   5.776   5.555  12.516 -1.6643  3.5540 -0.6755
12578TIP3    H259226   5.864   5.653  12.590 -1.1509  1.7673  1.1665
12579TIP3   OH259227   6.258   5.533  11.839 -0.3156 -0.4092  0.0206
12579TIP3    H159228   6.313   5.455  11.837 -2.3660 -1.9252 -0.5679
12579TIP3    H259229   6.308   5.599  11.790  1.3482 -1.3908  0.3111
12580TIP3   OH259230   0.988   6.288   2.846 -0.0830 -0.3949  0.0616
12580TIP3    H159231   0.947   6.238   2.775 -1.0570  1.3555 -0.6692
12580TIP3    H259232   1.068   6.323   2.808  0.4101 -1.0555  0.4621
12581TIP3   OH259233   0.163   4.299   4.155 -0.0798  0.1046  0.2464
12581TIP3    H159234   0.201   4.301   4.067 -1.3176  0.7249 -0.3018
12581TIP3    H259235   0.093   4.234   4.149 -1.0823  1.1344  0.3581
12582TIP3   OH259236   3.153   6.386  13.232 -0.2122 -0.0480 -0.6257
12582TIP3    H159237   3.158   6.313  13.170  1.0568  0.6912 -1.4683
12582TIP3    H259238   3.151   6.464  13.176  1.8573  0.6881  0.2057
12583TIP3   OH259239   5.153   5.396  15.481 -0.1697  0.4458  0.0906
12583TIP3    H159240   5.119   5.315  15.517  1.0520  0.5211  1.4961
12583TIP3    H259241   5.202   5.369  15.403 -0.4304 -0.0671  0.1029
12584TIP3   OH259242   4.302   3.535  14.469  0.0779  0.1931  0.4190
12584TIP3    H159243   4.248   3.478  14.415 -0.6550  0.4346  0.8783
12584TIP3    H259244   4.336   3.478  14.538 -1.1704  0.4136  1.2487
12585TIP3   OH259245   1.308   2.735   4.127  0.4898 -0.0279  0.3436
12585TIP3    H159246   1.318   2.829   4.141 -1.8251  0.5789 -1.5024
12585TIP3    H259247   1.335   2.721   4.036 -0.5214 -0.8709  0.1476
12586TIP3   OH259248   0.249   6.129   1.869 -0.1100  0.0046  0.9175
12586TIP3    H159249   0.222   6.220   1.856 -0.5353 -0.2747 -0.2984
12586TIP3    H259250   0.227   6.110   1.960 -1.0004  0.7941  0.8848
12587TIP3   OH259251   3.903   2.668  14.621 -0.4092  0.3295 -0.5758
12587TIP3    H159252   3.823   2.709  14.588 -1.1039  0.8064  1.5073
12587TIP3    H259253   3.897   2.577  14.593 -0.8757  0.7154 -1.8015
12588TIP3   OH259254   1.035   1.264  15.411 -0.6673 -0.5610 -0.1274
12588TIP3    H159255   1.048   1.320  15.334 -0.5028 -2.4450 -1.5519
12588TIP3    H259256   0.943   1.240  15.408 -1.0725  0.7256  1.2896
12589TIP3   OH259257   0.741   3.892   4.697  0.3592 -0.0953  0.2213
12589TIP3    H159258   0.662   3.889   4.751  0.6844 -0.7191  0.6768
12589TIP3    H259259   0.713   3.934   4.616 -0.1808  0.6710  0.7947
12590TIP3   OH259260   6.486   3.880  14.573 -0.3625 -0.2769 -0.2678
12590TIP3    H159261   6.474   3.975  14.575 -2.8345 -0.5240 -0.1485
12590TIP3    H259262   6.580   3.868  14.560  0.4428  2.1593  2.3074
12591TIP3   OH259263   2.161   2.343   1.056  0.7903 -0.0809 -0.2307
12591TIP3    H159264   2.078   2.391   1.050  1.1921  0.8366  1.0819
12591TIP3    H259265   2.228   2.409   1.035  1.1599 -1.0171 -2.0979
12592TIP3   OH259266   6.328   0.701   1.979 -0.3969 -0.0795 -0.2488
12592TIP3    H159267   6.308   0.649   1.902 -0.8667 -1.2507  0.6277
12592TIP3    H259268   6.243   0.729   2.013 -0.1666  0.9818 -0.5059
12593TIP3   OH259269   2.180   6.058  15.465  0.2612  0.4034 -0.3621
12593TIP3    H159270   2.117   6.012  15.410  0.2520 -0.0748  0.0535
12593TIP3    H259271   2.202   5.997  15.534  0.0302  1.1214  0.3609
12594TIP3   OH259272   6.265   1.207  15.611  0.5473 -0.5739 -0.4144
12594TIP3    H159273   6.223   1.143  15.668 -1.0445  1.3533  0.7075
12594TIP3    H259274   6.204   1.219  15.538 -0.8965  1.9731  1.0445
12595TIP3   OH259275   2.239   4.763  10.726  0.7141  0.2625 -0.1344
12595TIP3    H159276   2.274   4.810  10.802  0.8125  0.3634 -0.2391
12595TIP3    H259277   2.314   4.714  10.692  0.8385  0.7121 -0.5371
12596TIP3   OH259278   2.833   5.239   2.704  0.6253 -0.5461  0.6077
12596TIP3    H159279   2.791   5.241   2.618  1.6509  1.3786  0.0823
12596TIP3    H259280   2.903   5.174   2.694  0.1341 -1.0340  0.2955
12597TIP3   OH259281   2.486   0.819   2.783 -0.0761 -0.7975 -0.0638
12597TIP3    H159282   2.462   0.893   2.839  0.0555 -1.4532  0.8751
12597TIP3    H259283   2.536   0.859   2.712 -0.8728  0.1394 -0.1232
12598TIP3   OH259284   0.956   3.603   3.379  0.0794 -0.2319 -0.2811
12598TIP3    H159285   1.043   3.596   3.417  0.4993  0.2784 -1.1084
12598TIP3    H259286   0.927   3.513   3.367  0.5059 -0.4050 -0.0148
12599TIP3   OH259287   5.053   4.931   0.122  0.4196  0.4522  1.0144
12599TIP3    H159288   5.112   4.893   0.186 -0.3877 -0.5649  1.1892
12599TIP3    H259289   4.970   4.883   0.134  0.7914 -1.3041 -2.1554
12600TIP3   OH259290   5.519   1.207  15.603  0.3539  0.1373  0.3514
12600TIP3    H159291   5.559   1.163  15.527  0.5931  1.9056 -0.5971
12600TIP3    H259292   5.591   1.217  15.665  1.7963  3.8896 -1.6074
12601TIP3   OH259293   4.487   4.625  16.292  0.1841 -0.2053 -0.1357
12601TIP3    H159294   4.410   4.567  16.292  0.5742 -0.7708  1.2889
12601TIP3    H259295   4.548   4.582  16.351  0.9898  1.0442 -0.0407
12602TIP3   OH259296   1.269   5.225   1.793 -0.1122  0.3302 -0.1602
12602TIP3    H159297   1.359   5.242   1.821  0.1822 -2.2278  0.6707
12602TIP3    H259298   1.277   5.191   1.704 -0.2830  0.4220 -0.2108
12603TIP3   OH259299   4.231   5.305  15.047 -0.0453  0.0501  0.0607
12603TIP3    H159300   4.240   5.392  15.086 -2.3340  2.1270 -3.4996
12603TIP3    H259301   4.140   5.280  15.065 -0.5373  0.1595 -2.0677
12604TIP3   OH259302   3.136   0.463   4.618  0.1990 -0.0356  0.3289
12604TIP3    H159303   3.209   0.490   4.563 -0.1155  0.3904  0.1150
12604TIP3    H259304   3.059   0.466   4.560 -0.0116 -0.3422  0.5853
12605TIP3   OH259305   0.898   3.348  16.443 -0.0958  0.6492 -0.4843
12605TIP3    H159306   0.884   3.254  16.431 -0.4888  0.7929 -1.2295
12605TIP3    H259307   0.860   3.368  16.529 -0.1546  0.1583 -0.3969
12606TIP3   OH259308   1.859   2.852   2.426  0.0654 -0.3906  0.0911
12606TIP3    H159309   1.901   2.902   2.355  0.3303  0.4779  0.8321
12606TIP3    H259310   1.880   2.761   2.407 -0.4917 -0.2468 -1.3474
12607TIP3   OH259311   2.544   5.400   4.943 -0.1485 -0.9603  0.6909
12607TIP3    H159312   2.494   5.418   5.023 -2.1505 -1.2994 -0.4178
12607TIP3    H259313   2.580   5.485   4.918 -0.3855 -0.6501  1.3782
12608TIP3   OH259314   3.491   1.472  13.457  1.0323 -0.1551 -0.5177
12608TIP3    H159315   3.512   1.422  13.378 -0.1406 -0.8394 -0.4235
12608TIP3    H259316   3.396   1.485  13.453  0.9227 -0.3124  0.8263
12609TIP3   OH259317   1.529   4.337  12.189 -0.0255  0.5364 -0.4376
12609TIP3    H159318   1.544   4.294  12.105 -0.8310 -0.7722  0.0561
12609TIP3    H259319   1.612   4.381  12.210  0.7738 -0.6587 -1.0377
12610TIP3   OH259320   0.772   0.481   6.885  0.0215 -0.1442 -0.2484
12610TIP3    H159321   0.787   0.539   6.811  0.0662 -0.1347 -0.2322
12610TIP3    H259322   0.685   0.504   6.917  0.2179  0.2289  0.0373
12611TIP3   OH259323   5.665   3.538  16.256 -0.2133 -0.0731 -0.2020
12611TIP3    H159324   5.704   3.576  16.335 -0.4026  0.2908 -0.2802
12611TIP3    H259325   5.596   3.600  16.231 -1.3876 -1.0911  0.3847
12612TIP3   OH259326   3.845   0.509   1.881  0.1601  0.4648  0.1844
12612TIP3    H159327   3.778   0.458   1.836 -0.5568  2.3166 -0.9537
12612TIP3    H259328   3.874   0.453   1.953 -1.7853 -0.8457  0.0056
12613TIP3   OH259329   3.916   5.510   5.065  0.1937  0.5708  0.7445
12613TIP3    H159330   3.868   5.534   5.144  0.1137 -0.8612  1.1458
12613TIP3    H259331   3.993   5.464   5.096  0.4523  0.4927  0.0080
12614TIP3   OH259332   1.869   3.259  16.684 -0.4212 -0.2500  0.6968
12614TIP3    H159333   1.902   3.264  16.773 -0.1379 -0.6216  0.6130
12614TIP3    H259334   1.805   3.188  16.686  0.0067 -0.6464  0.4720
12615TIP3   OH259335   0.937   5.265  17.223 -1.1603 -0.0113 -0.3141
12615TIP3    H159336   0.900   5.305  17.302 -1.0935 -0.1728 -0.2023
12615TIP3    H259337   1.026   5.300  17.218 -0.4927 -1.4736  0.7412
12616TIP3   OH259338   6.041   4.265  11.392 -0.0504  0.2298 -0.4762
12616TIP3    H159339   6.085   4.182  11.374  0.0802  0.4380 -1.1176
12616TIP3    H259340   6.090   4.330  11.341  0.5799  0.8988  0.9162
12617TIP3   OH259341   1.232   0.512   5.185  0.2245 -0.0008 -0.1599
12617TIP3    H159342   1.168   0.446   5.212  1.1345 -1.3977 -1.2363
12617TIP3    H259343   1.232   0.576   5.256 -2.0502 -0.1522  0.0593
12618TIP3   OH259344   1.774   6.682   1.793  0.4873 -0.5630  0.4605
12618TIP3    H159345   1.757   6.637   1.710  0.3623  1.0408 -0.4143
12618TIP3    H259346   1.763   6.614   1.860 -2.6435 -1.1906 -0.5443
12619TIP3   OH259347   6.406   5.374   5.781 -1.0675  0.0102  0.3213
12619TIP3    H159348   6.447   5.343   5.862 -1.6017  0.8637  0.9242
12619TIP3    H259349   6.315   5.390   5.804 -0.8412  1.9246  0.0133
12620TIP3   OH259350   1.350   0.752  17.156 -0.5100  0.5573  0.0891
12620TIP3    H159351   1.413   0.712  17.095 -1.8667 -0.0635 -0.9724
12620TIP3    H259352   1.269   0.702  17.142 -0.8161  0.2099  2.6245
12621TIP3   OH259353   0.188   3.907   4.088  0.4495 -0.4868 -0.4300
12621TIP3    H159354   0.116   3.970   4.090 -0.5536 -1.6223  1.7748
12621TIP3    H259355   0.232   3.916   4.172  3.3466  0.5742 -1.9144
12622TIP3   OH259356   5.059   4.935   2.835  0.3053 -0.1480 -0.9703
12622TIP3    H159357   4.977   4.901   2.798  1.1149 -0.9001 -2.1663
12622TIP3    H259358   5.068   4.891   2.919 -1.6458  1.6864  0.2795
12623TIP3   OH259359   4.335   5.598   2.521 -0.2309 -0.7802 -0.2224
12623TIP3    H159360   4.399   5.563   2.459  0.2856 -0.1660 -0.0414
12623TIP3    H259361   4.382   5.601   2.605  0.8228  3.2578 -0.7930
12624TIP3   OH259362   5.334   1.028  14.884  0.1642 -0.2063 -0.2664
12624TIP3    H159363   5.255   1.073  14.915  0.0776 -1.0674  0.7818
12624TIP3    H259364   5.302   0.943  14.853  0.5726 -0.2188 -0.6618
12625TIP3   OH259365   6.525   6.334   2.441  0.2161 -0.2225  0.2825
12625TIP3    H159366   6.584   6.304   2.510 -0.4150  0.5991  1.2048
12625TIP3    H259367   6.453   6.270   2.443  1.0414 -1.2467 -0.8682
12626TIP3   OH259368   3.952   6.235   4.068 -0.6897 -0.8044 -0.3149
12626TIP3    H159369   3.984   6.204   4.153 -1.3179  1.2264  0.7220
12626TIP3    H259370   3.879   6.294   4.090 -1.3692 -0.8274 -2.3107
12627TIP3   OH259371   5.155   0.966  11.993  0.0895  0.0460 -0.1664
12627TIP3    H159372   5.175   1.043  11.939  1.0203 -0.6316 -0.8157
12627TIP3    H259373   5.092   0.916  11.941  0.3700 -0.2101 -0.2551
12628TIP3   OH259374   1.182   4.149   0.687 -0.7499 -0.0264 -0.2940
12628TIP3    H159375   1.157   4.067   0.729 -0.8826 -0.3309 -0.9496
12628TIP3    H259376   1.234   4.195   0.753  1.3723 -1.6886 -0.6843
12629TIP3   OH259377   4.384   0.724   2.088 -0.2345 -0.0994  0.2003
12629TIP3    H159378   4.470   0.684   2.076 -0.0987  0.2020  0.1660
12629TIP3    H259379   4.389   0.769   2.172 -0.5241 -0.5019  0.4341
12630TIP3   OH259380   5.967   4.677  12.022  0.3864  0.2869 -0.2666
12630TIP3    H159381   5.970   4.692  11.927 -2.3530  1.3052 -0.2925
12630TIP3    H259382   5.934   4.588  12.030 -0.6158  0.6456 -0.3062
12631TIP3   OH259383   2.703   0.496   1.781  1.0039 -0.6413 -0.0899
12631TIP3    H159384   2.719   0.576   1.830  0.6144 -0.6412  0.0384
12631TIP3    H259385   2.705   0.524   1.689  0.5264 -0.4199 -0.0359
12632TIP3   OH259386   1.019   5.069   6.957 -0.1264 -0.2855  0.3700
12632TIP3    H159387   1.060   5.139   6.907 -1.6351  0.7257  0.4959
12632TIP3    H259388   1.001   5.108   7.043 -2.9486 -0.0724 -0.2352
12633TIP3   OH259389   2.060   3.006  11.128  0.2168  0.5648 -0.3503
12633TIP3    H159390   2.101   3.049  11.053 -1.6561 -0.3145 -1.9767
12633TIP3    H259391   1.968   3.032  11.123 -0.0321  0.1492  1.4329
12634TIP3   OH259392   3.769   3.686  11.381 -0.1504  0.1236 -0.6701
12634TIP3    H159393   3.689   3.737  11.395  0.0865 -0.0913  1.7800
12634TIP3    H259394   3.759   3.609  11.436  0.9750 -0.8502 -1.7540
12635TIP3   OH259395   2.783   6.227  15.841 -0.0868 -0.6508 -0.0529
12635TIP3    H159396   2.849   6.277  15.889  1.3719 -0.7486 -1.8538
12635TIP3    H259397   2.819   6.217  15.753 -2.9319  0.1668 -1.4490
12636TIP3   OH259398   4.540   4.151  11.831  0.4368  0.0386 -0.2559
12636TIP3    H159399   4.446   4.140  11.820  0.5040 -1.8439  0.6802
12636TIP3    H259400   4.555   4.142  11.925  1.7230 -1.3982 -0.5527
12637TIP3   OH259401   5.966   4.266   6.342  0.0386  0.0565  0.0981
12637TIP3    H159402   6.007   4.306   6.419 -1.7112 -1.1639  1.7358
12637TIP3    H259403   5.918   4.338   6.300 -0.6505  0.3244  1.3117
12638TIP3   OH259404   0.764   3.976   3.304  0.0381  0.6186 -0.0306
12638TIP3    H159405   0.784   3.906   3.366  1.0880  1.3356  0.4713
12638TIP3    H259406   0.694   3.940   3.249 -0.3858 -0.3085  1.0800
12639TIP3   OH259407   6.049   5.068   6.785 -0.4139 -0.4503  0.4149
12639TIP3    H159408   6.053   5.163   6.778  1.6931 -0.5807 -0.9228
12639TIP3    H259409   6.135   5.037   6.756 -1.0361 -2.7789  0.7835
12640TIP3   OH259410   1.098   1.300   2.237 -0.1255 -0.0912 -0.6022
12640TIP3    H159411   1.144   1.222   2.270 -0.5646 -0.7891 -1.6045
12640TIP3    H259412   1.036   1.266   2.173  0.6970  1.2350 -2.1532
12641TIP3   OH259413   1.378   2.416  15.879  0.2935 -0.4142 -0.6492
12641TIP3    H159414   1.283   2.418  15.889  0.5071 -0.5013  2.2321
12641TIP3    H259415   1.395   2.338  15.827 -1.2523  0.8885 -3.3639
12642TIP3   OH259416   1.936   2.160   2.033  0.4357 -0.7132 -0.1419
12642TIP3    H159417   1.913   2.146   1.941  1.3121  2.4824 -0.9571
12642TIP3    H259418   1.965   2.074   2.063  0.2020 -1.8587 -2.8517
12643TIP3   OH259419   5.550   6.559  11.277  0.2561  0.1528  0.3579
12643TIP3    H159420   5.477   6.579  11.335  0.3548 -2.7809  1.6636
12643TIP3    H259421   5.603   6.495  11.325  1.0372 -1.5128 -2.4507
12644TIP3   OH259422   6.108   5.993  11.333  0.1793  0.2185  0.5359
12644TIP3    H159423   6.109   5.992  11.428 -1.6981 -1.5748  0.6203
12644TIP3    H259424   6.199   5.980  11.307  0.5716 -0.3588  2.1103
12645TIP3   OH259425   5.091   5.502  13.630  0.3328  0.3288 -0.3380
12645TIP3    H159426   5.033   5.459  13.567  0.9213 -1.0286  0.0101
12645TIP3    H259427   5.034   5.565  13.676 -0.1832  1.0907 -1.9394
12646TIP3   OH259428   0.711   2.326  15.321  0.0703  0.4232  0.6383
12646TIP3    H159429   0.615   2.329  15.321  0.0402 -0.3211 -0.0288
12646TIP3    H259430   0.737   2.417  15.303 -0.4888  0.7453  1.3686
12647TIP3   OH259431   2.825   5.572   0.192  0.2622 -0.4596  0.6128
12647TIP3    H159432   2.827   5.480   0.165  1.1399 -0.3590  0.3248
12647TIP3    H259433   2.825   5.570   0.288 -1.9666 -0.7989  0.6566
12648TIP3   OH259434   1.677   0.433   4.315  0.0346 -0.8528 -0.3865
12648TIP3    H159435   1.742   0.377   4.358  0.2920  0.1798  0.6410
12648TIP3    H259436   1.616   0.456   4.385 -0.6896 -0.7474 -1.0468
12649TIP3   OH259437   1.251   5.580   2.600  0.2130  0.1394  0.5225
12649TIP3    H159438   1.309   5.512   2.565  0.2275  0.3830  0.0622
12649TIP3    H259439   1.240   5.558   2.692 -0.3904 -0.9150  0.2096
12650TIP3   OH259440   0.800   2.032  10.518  0.1946  0.3695  0.1565
12650TIP3    H159441   0.766   1.967  10.455  1.5597  1.1300 -1.4418
12650TIP3    H259442   0.873   1.988  10.560 -0.8340 -0.2064  1.4183
12651TIP3   OH259443   4.682   1.771   5.868  0.1282  0.4580 -0.1487
12651TIP3    H159444   4.769   1.772   5.908  0.2758  0.5336 -0.4696
12651TIP3    H259445   4.631   1.832   5.921  0.4237  0.8371 -0.2984
12652TIP3   OH259446   6.553   3.685  15.082  0.0304 -0.6295  0.0474
12652TIP3    H159447   6.494   3.758  15.102  0.6125 -0.7264  2.4358
12652TIP3    H259448   6.581   3.701  14.992 -3.1076 -0.2463 -1.0060
12653TIP3   OH259449   1.344   6.137   5.122 -0.4731  0.1725  0.5831
12653TIP3    H159450   1.435   6.163   5.132 -0.7055  1.0525  0.5651
12653TIP3    H259451   1.327   6.141   5.028 -0.6387  0.4587  0.6195
12654TIP3   OH259452   0.019   5.377   2.344  0.4676  0.2985  0.3154
12654TIP3    H159453   0.100   5.417   2.374  0.6070  0.8173 -0.7159
12654TIP3    H259454  -0.041   5.450   2.331 -0.0797 -0.0550  0.7959
12655TIP3   OH259455   4.340   6.197   3.490  0.3213 -0.0371 -0.4066
12655TIP3    H159456   4.307   6.161   3.408  1.7411  2.3978 -2.1933
12655TIP3    H259457   4.340   6.123   3.550 -2.5705 -1.5060 -1.9728
12656TIP3   OH259458   5.458   1.969  17.261  0.1751  0.6944  0.8009
12656TIP3    H159459   5.389   1.911  17.232  0.0046  0.5621  1.4558
12656TIP3    H259460   5.522   1.969  17.189 -0.6354  1.0561  0.0655
12657TIP3   OH259461   0.083   1.882   0.622  0.1312  0.1410  0.3537
12657TIP3    H159462   0.000   1.867   0.576  0.9704  0.7356 -1.4411
12657TIP3    H259463   0.067   1.961   0.674  0.0025  1.1882 -1.2028
12658TIP3   OH259464   4.260   1.786  11.009 -0.4299  0.1369 -0.5378
12658TIP3    H159465   4.260   1.711  11.069 -1.3374  0.2225 -0.4113
12658TIP3    H259466   4.180   1.774  10.958  0.6987 -0.3479 -2.2663
12659TIP3   OH259467   3.545   6.572  14.788 -0.0168 -0.9283  0.9263
12659TIP3    H159468   3.452   6.551  14.773 -0.9701  1.0811  3.2910
12659TIP3    H259469   3.567   6.525  14.868  0.5853 -0.2956  1.1367
12660TIP3   OH259470   3.613   3.833  14.401  0.0011 -0.0369 -0.0433
12660TIP3    H159471   3.609   3.897  14.329 -0.2530  0.5753  0.5109
12660TIP3    H259472   3.678   3.769  14.371  1.6785  1.4818  0.1908
12661TIP3   OH259473   1.186   1.969   2.608 -0.4048  0.0014  0.2727
12661TIP3    H159474   1.138   2.016   2.676 -0.7909 -0.2905  0.2089
12661TIP3    H259475   1.277   1.973   2.634 -0.2040  2.2281 -0.5712
12662TIP3   OH259476   0.082   3.188   5.957  0.5797 -0.6948  0.4572
12662TIP3    H159477   0.103   3.109   5.908  0.0444 -1.2906  1.1716
12662TIP3    H259478   0.004   3.166   6.007  0.7962  0.0731  1.1610
12663TIP3   OH259479   6.224   2.905  13.869  0.1751 -0.4378  0.1250
12663TIP3    H159480   6.296   2.968  13.865  0.2545 -0.3779  1.6867
12663TIP3    H259481   6.254   2.839  13.931 -1.0119 -0.5331  0.6143
12664TIP3   OH259482   6.141   1.514  13.626  0.0073 -0.0825 -0.1612
12664TIP3    H159483   6.163   1.605  13.644  0.8801  0.0143 -1.5935
12664TIP3    H259484   6.215   1.464  13.661 -1.1301 -0.4136  1.9530
12665TIP3   OH259485   4.212   4.822  16.699 -0.0862 -0.4111  0.0024
12665TIP3    H159486   4.291   4.805  16.648 -0.3955  0.3777 -0.7785
12665TIP3    H259487   4.205   4.918  16.702  0.2643 -0.4031  2.0997
12666TIP3   OH259488   2.357   1.970  12.532  0.9339 -0.8937  0.0119
12666TIP3    H159489   2.434   2.024  12.516  0.3645  0.3157  1.2253
12666TIP3    H259490   2.297   1.991  12.460  0.6039  0.3257  0.6262
12667TIP3   OH259491   1.346   5.425   4.389  0.6357  0.2266  0.1376
12667TIP3    H159492   1.381   5.492   4.330  1.5160  0.7658  1.2416
12667TIP3    H259493   1.418   5.363   4.400 -0.2645 -1.1313 -1.1277
12668TIP3   OH259494   0.240   2.154   5.145  0.3737 -0.4705 -0.6587
12668TIP3    H159495   0.318   2.193   5.106 -0.0030 -0.5844 -1.5586
12668TIP3    H259496   0.171   2.218   5.130  0.4624  0.0433  0.9487
12669TIP3   OH259497   4.364   1.852  14.167 -0.8675 -0.4988  0.1717
12669TIP3    H159498   4.345   1.895  14.251  3.1337  0.9320  0.5936
12669TIP3    H259499   4.350   1.759  14.184  0.7531 -0.3710  2.8675
12670TIP3   OH259500   4.414   0.190  14.315 -0.3915 -0.1718 -0.1904
12670TIP3    H159501   4.459   0.221  14.237 -2.7513  1.1069 -1.1593
12670TIP3    H259502   4.357   0.262  14.341 -3.2439 -2.2184 -0.1843
12671TIP3   OH259503   1.208   0.804  13.347 -0.2857  0.4039 -0.3681
12671TIP3    H159504   1.141   0.776  13.285 -1.1413  1.6782 -0.0443
12671TIP3    H259505   1.230   0.724  13.396 -1.3455 -0.0869 -0.6656
12672TIP3   OH259506   1.634   4.728   0.499  0.4856  1.1386  0.3065
12672TIP3    H159507   1.625   4.761   0.589  0.3835  0.2348  0.6404
12672TIP3    H259508   1.591   4.794   0.445  0.4366  1.6315  0.9360
12673TIP3   OH259509   6.632   4.163  16.363  0.6970  0.6782 -0.2058
12673TIP3    H159510   6.628   4.180  16.457 -1.9069  0.6580 -0.2609
12673TIP3    H259511   6.679   4.079  16.356  2.1196  1.3268  0.9237
12674TIP3   OH259512   3.792   2.105  10.650  0.4133  0.2521 -0.1746
12674TIP3    H159513   3.773   2.074  10.562 -0.2678 -2.1595  0.7398
12674TIP3    H259514   3.823   2.028  10.697  0.1629  1.3148  1.8749
12675TIP3   OH259515   5.896   3.231   0.278 -0.1920 -0.3110 -0.3577
12675TIP3    H159516   5.968   3.181   0.239  0.0535 -0.4659  0.2812
12675TIP3    H259517   5.913   3.322   0.251  1.1010 -0.1096  1.0154
12676TIP3   OH259518   6.787   2.646  16.646  0.4830  0.1316 -0.4175
12676TIP3    H159519   6.737   2.575  16.605 -1.3064  0.6506  0.7621
12676TIP3    H259520   6.834   2.604  16.717 -0.6359  0.1028  0.3297
12677TIP3   OH259521   1.172   0.601  15.313  0.0519 -0.0317 -0.2805
12677TIP3    H159522   1.138   0.623  15.226 -0.0807  2.3237  0.3148
12677TIP3    H259523   1.183   0.685  15.357  0.9941 -1.1124  1.6814
12678TIP3   OH259524   3.159   5.507  14.420  0.3902 -0.3986 -0.4556
12678TIP3    H159525   3.127   5.562  14.491  0.3867 -1.2528  0.2175
12678TIP3    H259526   3.152   5.562  14.342 -0.4590  0.2402  0.0588
12679TIP3   OH259527   6.445   0.098  14.095  0.2492  0.3761  0.3043
12679TIP3    H159528   6.430   0.067  14.005  1.1813  1.0462 -0.0902
12679TIP3    H259529   6.438   0.193  14.090 -2.2071  0.3260  1.4472
12680TIP3   OH259530   1.987   0.466  14.504 -0.0518 -0.5365  0.1486
12680TIP3    H159531   1.993   0.561  14.502 -0.1624 -0.4059  2.6789
12680TIP3    H259532   2.073   0.436  14.474 -0.3570  0.2903 -1.6681
12681TIP3   OH259533   4.888   5.387  14.582 -0.8196  0.1046 -0.2809
12681TIP3    H159534   4.930   5.321  14.637 -0.0986  0.8181  0.0441
12681TIP3    H259535   4.844   5.337  14.514 -0.1469 -0.7083 -0.1328
12682TIP3   OH259536   5.353   6.232   1.953 -0.1013 -0.3622 -0.6032
12682TIP3    H159537   5.288   6.214   1.885 -0.2453  0.8737 -0.8197
12682TIP3    H259538   5.389   6.317   1.930 -2.3486  1.6760  2.4817
12683TIP3   OH259539   1.288   3.069   5.231  0.0616  0.2230  0.0893
12683TIP3    H159540   1.273   2.974   5.235 -0.3699  0.3149  0.7215
12683TIP3    H259541   1.206   3.107   5.261 -0.0439  0.8198 -0.9018
12684TIP3   OH259542   0.180   1.923  11.092 -0.1573 -0.0904  0.2231
12684TIP3    H159543   0.243   1.927  11.164  0.3132 -0.1340 -0.1719
12684TIP3    H259544   0.235   1.913  11.014 -0.3317  3.9306 -0.6233
12685TIP3   OH259545   4.025   0.093  16.439 -0.6225  0.2144 -0.4730
12685TIP3    H159546   4.070   0.129  16.363 -0.7747  1.4837  0.0075
12685TIP3    H259547   4.042   0.156  16.509 -1.8528 -0.0862  0.1243
12686TIP3   OH259548   4.733   1.148   0.707 -0.3610  0.1950 -0.3540
12686TIP3    H159549   4.677   1.127   0.633 -1.6945  1.6309  0.1726
12686TIP3    H259550   4.684   1.214   0.756  0.9624  0.0995  1.2069
12687TIP3   OH259551   1.178   1.754   2.212  0.2004  0.3366 -0.2017
12687TIP3    H159552   1.149   1.806   2.136  0.5366  0.5348 -0.1924
12687TIP3    H259553   1.241   1.810   2.257  1.8823 -0.7305 -1.1344
12688TIP3   OH259554   5.957   0.944  12.495 -0.5037 -0.0553 -0.1840
12688TIP3    H159555   5.988   0.914  12.410  0.9032 -0.0454  0.2939
12688TIP3    H259556   6.036   0.975  12.540 -1.1681 -0.3390  1.2352
12689TIP3   OH259557   5.438   0.469  10.421  0.1990  0.3301  0.0037
12689TIP3    H159558   5.501   0.421  10.367 -1.3280 -1.1999 -0.5055
12689TIP3    H259559   5.354   0.425  10.405 -0.6002  0.8245  2.4282
12690TIP3   OH259560   1.535   6.582   2.311  0.1590  0.2106  0.3193
12690TIP3    H159561   1.625   6.563   2.337  0.5048 -0.0701 -0.9991
12690TIP3    H259562   1.482   6.555   2.386  1.0335 -1.4461  0.3826
12691TIP3   OH259563   0.641   2.785   3.363 -0.0674  0.1848 -0.5210
12691TIP3    H159564   0.692   2.820   3.436  2.3332 -1.8516 -1.0959
12691TIP3    H259565   0.615   2.697   3.392 -1.5347  0.3995 -1.0746
12692TIP3   OH259566   3.619   2.885  16.695  0.0951 -0.1635 -0.2003
12692TIP3    H159567   3.607   2.858  16.604 -0.4234 -1.2107  0.1666
12692TIP3    H259568   3.673   2.816  16.734 -0.9558 -0.5345  0.6612
12693TIP3   OH259569   6.223   5.711  14.434 -0.6174 -0.0464 -0.2816
12693TIP3    H159570   6.240   5.800  14.465 -0.7211 -0.1281  0.0137
12693TIP3    H259571   6.136   5.715  14.395 -1.1394 -0.2878  0.8170
12694TIP3   OH259572   3.870   1.003   1.437  0.2315  0.7556  0.0233
12694TIP3    H159573   3.924   0.968   1.366  1.3975  0.2146  1.1642
12694TIP3    H259574   3.923   1.071   1.477 -1.7541  3.6420 -1.7713
12695TIP3   OH259575   3.769   6.081   4.536  0.9087 -0.1741  0.1375
12695TIP3    H159576   3.842   6.109   4.481  1.4853 -1.2329  0.3220
12695TIP3    H259577   3.701   6.147   4.523  1.4336  0.1552 -1.0204
12696TIP3   OH259578   1.990   3.610  16.052  0.0201  0.2430  0.6848
12696TIP3    H159579   2.073   3.647  16.025 -0.2418  1.8533  1.9661
12696TIP3    H259580   1.927   3.681  16.042 -0.8087 -0.3198  1.7074
12697TIP3   OH259581   6.389   5.115   5.670  0.2863 -0.6530  0.1044
12697TIP3    H159582   6.390   5.201   5.713 -1.0549 -0.7683  0.4043
12697TIP3    H259583   6.409   5.133   5.579  2.9959 -0.3779  0.6698
12698TIP3   OH259584   2.530   0.233   5.796  0.4067  0.3602 -0.3325
12698TIP3    H159585   2.517   0.206   5.887 -0.5473  0.0008 -0.5676
12698TIP3    H259586   2.446   0.269   5.769  0.6417  0.3424 -1.1141
12699TIP3   OH259587   4.148   6.730   0.768  0.1517  0.0798  0.3891
12699TIP3    H159588   4.138   6.694   0.856 -0.9195  1.5450  0.9028
12699TIP3    H259589   4.061   6.720   0.728  0.4179  0.1444 -0.2233
12700TIP3   OH259590   1.593   1.372  11.290 -0.4189  0.1654  0.1655
12700TIP3    H159591   1.622   1.392  11.379  1.3456 -1.4567  0.0146
12700TIP3    H259592   1.633   1.288  11.270 -1.9339 -0.1867 -1.6753
12701TIP3   OH259593   3.065   1.394  17.084 -0.5016 -0.1671 -0.2379
12701TIP3    H159594   2.977   1.424  17.107 -0.4849 -0.2429 -0.0703
12701TIP3    H259595   3.083   1.432  16.999 -1.1606 -1.0988 -0.8122
12702TIP3   OH259596   2.678   1.896   4.484  0.0652  0.0575 -0.3409
12702TIP3    H159597   2.689   1.822   4.544 -0.0137 -0.7142 -1.2721
12702TIP3    H259598   2.689   1.973   4.540  0.4242 -0.6506  0.5901
12703TIP3   OH259599   2.927   0.587  11.438 -0.6933  0.0923  0.1275
12703TIP3    H159600   2.861   0.558  11.375 -0.8776 -1.5354  1.0152
12703TIP3    H259601   2.896   0.672  11.469 -0.7238  0.8190 -1.7551
12704TIP3   OH259602   4.030   3.135   5.150  0.5690 -0.5409  0.0202
12704TIP3    H159603   4.125   3.138   5.133  0.7936  1.7284  1.2130
12704TIP3    H259604   3.993   3.199   5.088  0.0555 -0.1591  0.7102
12705TIP3   OH259605   1.636   5.345   3.427  0.2262  0.1338 -0.4227
12705TIP3    H159606   1.547   5.367   3.453  0.4513 -0.2745  0.7525
12705TIP3    H259607   1.626   5.266   3.373  0.0286 -1.3362  1.6470
12706TIP3   OH259608   4.757   5.868   1.447  0.0382  0.3582 -0.3296
12706TIP3    H159609   4.770   5.859   1.542  0.6034  1.8173 -0.2360
12706TIP3    H259610   4.814   5.802   1.408 -0.2828 -0.3319  0.3387
12707TIP3   OH259611   0.170   6.683  15.275  0.0141 -0.2337  0.4366
12707TIP3    H159612   0.155   6.590  15.258  0.0434 -0.4181  1.3381
12707TIP3    H259613   0.213   6.685  15.360 -0.7069  0.6420  0.8028
12708TIP3   OH259614   0.076   6.172   5.067  0.0928  0.2625  0.3503
12708TIP3    H159615   0.033   6.226   5.000 -0.5969 -1.7780 -0.9550
12708TIP3    H259616   0.146   6.127   5.020  0.8717  0.2565  1.4785
12709TIP3   OH259617   1.058   1.953  12.883  0.2498  0.0784 -0.3849
12709TIP3    H159618   0.991   1.984  12.823  1.5539  2.7688 -0.5779
12709TIP3    H259619   1.107   2.032  12.908  2.4613 -1.5583  0.8313
12710TIP3   OH259620   4.711   6.223  15.152 -0.1768  0.3627  0.1613
12710TIP3    H159621   4.791   6.170  15.148 -0.1123  0.3660  1.2364
12710TIP3    H259622   4.710   6.259  15.241 -1.3676  0.3664  0.1605
12711TIP3   OH259623   0.856   0.919  14.198 -0.3564  0.5361  0.0528
12711TIP3    H159624   0.942   0.915  14.241 -0.7386 -0.2627  0.7805
12711TIP3    H259625   0.851   0.838  14.147 -0.4488  0.8575 -0.4561
12712TIP3   OH259626   2.285   3.100   2.800  0.1103 -0.0537  0.3204
12712TIP3    H159627   2.317   3.183   2.763 -0.7249  0.7619  1.3620
12712TIP3    H259628   2.276   3.043   2.724 -1.8625  1.6588 -0.8489
12713TIP3   OH259629   3.262   4.721   1.672  0.0937 -0.0639 -0.4155
12713TIP3    H159630   3.189   4.665   1.701  1.2498 -1.2257  0.3698
12713TIP3    H259631   3.312   4.665   1.613  1.3771  0.0446  0.5232
12714TIP3   OH259632   1.428   2.798  13.530 -0.3899  0.2035  0.5884
12714TIP3    H159633   1.349   2.849  13.513 -0.8350 -0.1428  1.5937
12714TIP3    H259634   1.397   2.716  13.567  0.4323  0.0383  0.9375
12715TIP3   OH259635   6.003   0.319  12.905  0.1071 -0.3697  0.2257
12715TIP3    H159636   5.958   0.397  12.874  0.9939  0.2314  0.4122
12715TIP3    H259637   5.945   0.247  12.882 -0.2056  0.2360 -0.9670
12716TIP3   OH259638   2.712   1.912  15.212  0.3785  0.2686 -0.2926
12716TIP3    H159639   2.748   1.823  15.203  1.0751  0.6346 -1.2264
12716TIP3    H259640   2.782   1.969  15.181 -0.3922  1.1034 -0.5057
12717TIP3   OH259641   5.779   0.702   5.905 -0.1314 -0.0383 -0.1492
12717TIP3    H159642   5.758   0.629   5.847  2.7881 -0.7180 -0.5345
12717TIP3    H259643   5.845   0.666   5.965  1.2511  2.1727 -0.2277
12718TIP3   OH259644   1.861   5.336  14.929 -0.0203  0.3257  0.4387
12718TIP3    H159645   1.953   5.322  14.907 -0.0034  0.1470  0.6133
12718TIP3    H259646   1.838   5.418  14.887  0.5343  0.9526  1.3216
12719TIP3   OH259647   0.702   3.873   5.629  0.8498  0.6053 -0.2625
12719TIP3    H159648   0.733   3.962   5.616  0.9067  0.2366 -3.4173
12719TIP3    H259649   0.606   3.881   5.628  0.8528  0.6080 -0.9544
12720TIP3   OH259650   4.003   3.637  13.101 -0.3387 -0.0412 -0.8065
12720TIP3    H159651   3.920   3.681  13.081  0.2222  1.7092  0.5223
12720TIP3    H259652   3.976   3.549  13.130 -1.9285  1.0295  1.2629
12721TIP3   OH259653   1.270   6.556   0.183  0.0404  0.6237 -0.1094
12721TIP3    H159654   1.247   6.530   0.094  0.6358  0.1457 -0.1302
12721TIP3    H259655   1.244   6.648   0.188  1.3728  1.1120 -1.2917
12722TIP3   OH259656   5.182   2.588   4.248 -0.3766 -0.1692  0.3239
12722TIP3    H159657   5.212   2.563   4.336 -2.3730 -0.8075  0.8806
12722TIP3    H259658   5.240   2.540   4.189  0.7480 -0.0487  1.2902
12723TIP3   OH259659   3.879   3.133   2.371 -0.2947 -0.0383  0.1056
12723TIP3    H159660   3.878   3.187   2.292  0.4112 -0.1468  0.0219
12723TIP3    H259661   3.971   3.129   2.397 -0.5375  0.1481  1.0438
12724TIP3   OH259662   4.906   5.661  11.323  0.3847  0.1520  0.2171
12724TIP3    H159663   4.818   5.699  11.321  0.7725  1.0605 -0.4569
12724TIP3    H259664   4.952   5.709  11.392  0.0965 -0.9503  1.2003
12725TIP3   OH259665   2.953   6.083  13.520  0.0144  0.3148  0.0658
12725TIP3    H159666   2.933   6.165  13.475  2.6679  0.4556 -1.0667
12725TIP3    H259667   2.926   6.015  13.459 -0.5550  0.3897  0.2333
12726TIP3   OH259668   1.407   5.288  15.137  0.1210 -0.1773 -0.7089
12726TIP3    H159669   1.360   5.262  15.217 -0.8982 -1.0888 -1.5664
12726TIP3    H259670   1.495   5.311  15.167  0.3713 -2.3625  0.4613
12727TIP3   OH259671   1.614   6.219   1.367 -0.1812 -0.1540  0.3495
12727TIP3    H159672   1.618   6.314   1.375 -2.5683 -0.1450  2.6476
12727TIP3    H259673   1.604   6.204   1.273  2.8626  1.6277 -0.3901
12728TIP3   OH259674   2.965   1.771   6.117  0.3007 -0.5313 -0.2419
12728TIP3    H159675   3.021   1.845   6.094 -0.7574  0.6469  0.7728
12728TIP3    H259676   3.013   1.725   6.186  0.3241  0.0978  0.1726
12729TIP3   OH259677   6.295   4.351   4.636  0.0999 -0.5523  0.0719
12729TIP3    H159678   6.232   4.280   4.653 -0.6838  0.2421  0.6222
12729TIP3    H259679   6.329   4.332   4.549  0.2075 -1.8226  0.3643
12730TIP3   OH259680   4.098   0.635  16.590  0.0162 -0.2256 -1.3240
12730TIP3    H159681   4.148   0.711  16.622 -0.6848 -0.2757 -0.0666
12730TIP3    H259682   4.007   0.664  16.592 -0.3193 -1.2729 -0.2907
12731TIP3   OH259683   1.954   5.418  15.279  0.0892  0.2378 -0.8157
12731TIP3    H159684   1.987   5.460  15.358 -1.2363 -0.1114 -0.0650
12731TIP3    H259685   1.967   5.484  15.210  2.8302 -0.0577 -0.7232
12732TIP3   OH259686   0.809   2.202  12.409 -0.2005 -0.1498  1.1923
12732TIP3    H159687   0.745   2.252  12.360 -1.1168 -1.5091  0.9413
12732TIP3    H259688   0.867   2.165  12.342 -0.2042 -0.3371  1.2923
12733TIP3   OH259689   3.291   0.173  14.658  0.1606 -0.1963  0.0956
12733TIP3    H159690   3.200   0.190  14.636  0.5212 -1.2486 -2.7061
12733TIP3    H259691   3.290   0.086  14.700 -0.0169 -1.1400 -1.7496
12734TIP3   OH259692   4.082   2.434   2.564  0.3442 -0.3972  0.6170
12734TIP3    H159693   3.993   2.459   2.586  0.8384  0.6270  1.5302
12734TIP3    H259694   4.119   2.511   2.520  0.0950 -1.6065 -1.9207
12735TIP3   OH259695   0.664   4.785  13.016  0.8778  0.3888 -0.0946
12735TIP3    H159696   0.667   4.826  13.103 -0.6606 -0.9760  0.6557
12735TIP3    H259697   0.686   4.693  13.032 -0.7337 -0.1797 -0.8916
12736TIP3   OH259698   0.817   3.618  10.715  0.3028 -0.0961 -0.2798
12736TIP3    H159699   0.837   3.700  10.669  4.0226  0.8834  2.5695
12736TIP3    H259700   0.756   3.644  10.784  1.0663  0.2068  0.2933
12737TIP3   OH259701   5.853   5.318  13.825 -0.0548 -0.2712  0.1003
12737TIP3    H159702   5.818   5.400  13.859  0.2506  0.1585 -0.5880
12737TIP3    H259703   5.936   5.342  13.784  0.6283 -1.1251  0.9232
12738TIP3   OH259704   5.299   0.012   2.893 -0.1685  0.2419  0.1295
12738TIP3    H159705   5.369  -0.046   2.862 -0.9368 -1.1109  0.8145
12738TIP3    H259706   5.334   0.051   2.973 -0.2145 -0.4826  0.5070
12739TIP3   OH259707   6.225   6.068  15.319 -0.0324  0.2692  0.4135
12739TIP3    H159708   6.148   6.125  15.313 -0.5846 -0.5579 -0.7047
12739TIP3    H259709   6.189   5.983  15.344  0.3775 -0.3480 -0.9735
12740TIP3   OH259710   6.638   5.805  16.359  0.1797  0.1837 -0.1930
12740TIP3    H159711   6.546   5.817  16.337  0.0649 -1.7542 -0.9510
12740TIP3    H259712   6.682   5.879  16.318 -1.0724  1.4353  0.6345
12741TIP3   OH259713   5.743   0.318   4.385  0.5928 -0.0363 -0.2566
12741TIP3    H159714   5.703   0.367   4.313  0.9020 -0.3342 -0.6355
12741TIP3    H259715   5.765   0.384   4.450 -1.5957  0.0187  0.4935
12742TIP3   OH259716   1.354   0.588  15.642 -0.3855  0.1700 -0.1252
12742TIP3    H159717   1.292   0.598  15.714  0.3801 -1.2008  0.7797
12742TIP3    H259718   1.428   0.541  15.680 -0.3690 -1.5050 -2.0236
12743TIP3   OH259719   0.791   6.004   1.338 -0.0990 -0.0124 -0.1027
12743TIP3    H159720   0.812   6.012   1.245 -0.5576  0.3267 -0.1830
12743TIP3    H259721   0.875   5.991   1.381 -0.0618 -2.3479 -0.7804
12744TIP3   OH259722   2.980   2.459  12.013  0.3137  0.1813  0.7927
12744TIP3    H159723   2.948   2.517  12.082  0.5014  1.1129  0.1179
12744TIP3    H259724   2.959   2.505  11.932  2.0577  0.1618  0.2928
12745TIP3   OH259725   0.836   0.194   6.248 -0.3020  0.5132  0.3725
12745TIP3    H159726   0.888   0.221   6.324 -2.6546  0.8815  1.9368
12745TIP3    H259727   0.766   0.140   6.284  0.0807 -1.6736 -1.8957
12746TIP3   OH259728   5.314   6.301   5.280  0.1457 -0.2407 -0.0762
12746TIP3    H159729   5.392   6.265   5.322  0.2746  0.4187  0.2640
12746TIP3    H259730   5.316   6.395   5.302 -0.8148 -0.2409  0.0543
12747TIP3   OH259731   5.262   0.273  13.842 -0.9733  0.0788  0.1030
12747TIP3    H159732   5.284   0.180  13.834 -0.2171  0.3461 -1.2984
12747TIP3    H259733   5.346   0.316  13.861 -1.5232  0.3621  2.1147
12748TIP3   OH259734   3.889   2.125   3.162  0.1336  0.3454 -0.2630
12748TIP3    H159735   3.912   2.155   3.074 -0.1858  2.4865  0.3303
12748TIP3    H259736   3.824   2.056   3.147  1.0884 -0.2719 -1.7186
12749TIP3   OH259737   4.861   3.632  11.836  0.5805  0.6088  0.6553
12749TIP3    H159738   4.920   3.703  11.862  0.6148  1.1244 -0.7286
12749TIP3    H259739   4.787   3.639  11.896  0.7391  1.6315  0.7482
12750TIP3   OH259740   4.028   3.192  12.228 -0.2580  0.2375 -0.6834
12750TIP3    H159741   4.111   3.213  12.184 -0.4176 -0.2138 -1.2012
12750TIP3    H259742   4.052   3.125  12.292 -0.3914 -0.6311 -1.5226
12751TIP3   OH259743   3.607   1.853  10.835 -0.1308 -0.6426  0.6226
12751TIP3    H159744   3.556   1.856  10.754  0.0912  2.3470  0.4662
12751TIP3    H259745   3.697   1.867  10.808  0.0527 -0.4210  1.3139
12752TIP3   OH259746   0.180   4.003  16.990 -0.2601  0.2954 -0.3393
12752TIP3    H159747   0.087   4.012  16.971 -0.1691 -0.0181 -0.9658
12752TIP3    H259748   0.211   4.092  17.003 -1.3425  0.3012  3.5224
12753TIP3   OH259749   3.860   2.353   5.872  0.4709  0.7614 -0.2670
12753TIP3    H159750   3.915   2.286   5.833  1.0808  0.6408  0.7720
12753TIP3    H259751   3.914   2.392   5.941 -1.1132 -0.1668  1.5837
12754TIP3   OH259752   1.590   2.120  15.940  0.2485  0.1602 -0.2058
12754TIP3    H159753   1.544   2.157  15.865  0.4191 -0.0919 -0.4397
12754TIP3    H259754   1.536   2.142  16.016  0.7218  1.5300 -0.2444
12755TIP3   OH259755   5.247   4.104   0.679  0.0334  0.1433  0.1669
12755TIP3    H159756   5.235   4.195   0.706  1.6070  0.5278 -0.3310
12755TIP3    H259757   5.299   4.109   0.599  0.3436 -1.1990  0.2575
12756TIP3   OH259758   1.751   6.659  15.793  0.3818  0.4670 -0.3121
12756TIP3    H159759   1.786   6.693  15.875  1.0302  1.5121 -0.9905
12756TIP3    H259760   1.824   6.609  15.755 -0.0976 -0.4847  0.0006
12757TIP3   OH259761   4.637   3.877  13.262 -0.5311 -0.5992  0.2926
12757TIP3    H159762   4.610   3.833  13.181 -2.1375 -2.4926  1.7570
12757TIP3    H259763   4.716   3.830  13.289 -0.5004 -0.5544  0.2809
12758TIP3   OH259764   3.473   3.619  13.644 -0.3458 -0.0986  0.4841
12758TIP3    H159765   3.399   3.657  13.691 -0.3377  1.6680 -0.8536
12758TIP3    H259766   3.452   3.630  13.551  1.6487  0.6133  0.0608
12759TIP3   OH259767   5.339   3.173   3.897 -0.1632  0.3288  0.5405
12759TIP3    H159768   5.419   3.182   3.948  0.2426 -1.2816  0.2651
12759TIP3    H259769   5.273   3.141   3.959 -1.2118  3.4681  1.2214
12760TIP3   OH259770   2.707   0.763   5.951 -0.0120  0.6310  0.5281
12760TIP3    H159771   2.647   0.715   5.894 -1.9956  2.7745  0.6872
12760TIP3    H259772   2.794   0.744   5.914 -0.7956 -1.7121 -0.3537
12761TIP3   OH259773   3.327   4.655  12.850  0.1513  0.0828  0.1675
12761TIP3    H159774   3.352   4.736  12.807 -0.2787  0.1238 -0.0146
12761TIP3    H259775   3.370   4.658  12.935  0.7566  0.1457 -0.1359
12762TIP3   OH259776   3.760   5.260   0.291  0.0695  0.1408  0.0333
12762TIP3    H159777   3.737   5.215   0.372  0.3926 -1.5371 -0.7560
12762TIP3    H259778   3.827   5.323   0.316 -0.5934  0.3915  1.2311
12763TIP3   OH259779   4.307   3.256  11.403  0.3357  0.6115 -0.0852
12763TIP3    H159780   4.275   3.345  11.410 -0.2737  0.5669 -1.8230
12763TIP3    H259781   4.350   3.252  11.317  0.0237 -0.8439 -0.2047
12764TIP3   OH259782   2.421   4.476   4.698  0.2137  0.1063  0.4986
12764TIP3    H159783   2.338   4.435   4.722 -0.1170  1.3655  1.6407
12764TIP3    H259784   2.400   4.569   4.692  1.4800  0.3993  0.4969
12765TIP3   OH259785   5.083   4.285   2.890  0.5175 -0.5283  0.3373
12765TIP3    H159786   5.051   4.249   2.807  0.6945  0.1157 -0.0203
12765TIP3    H259787   5.177   4.271   2.887  0.2651 -3.2493  1.7917
12766TIP3   OH259788   0.729   5.460   6.350  0.6374  0.6470 -0.1112
12766TIP3    H159789   0.806   5.510   6.376  1.2091  0.2845 -1.0522
12766TIP3    H259790   0.736   5.378   6.399  1.8020 -0.1081 -1.4900
12767TIP3   OH259791   5.408   1.620  12.035 -0.2071 -0.7288 -0.0278
12767TIP3    H159792   5.405   1.524  12.026  0.2924 -0.7456 -0.0292
12767TIP3    H259793   5.480   1.647  11.978 -0.2295 -0.3671  0.1138
12768TIP3   OH259794   0.617   1.201   3.389  0.4936  0.1895  0.2054
12768TIP3    H159795   0.577   1.278   3.347 -0.4140  0.1411  0.9422
12768TIP3    H259796   0.622   1.136   3.319 -1.7350 -0.1664  0.2817
12769TIP3   OH259797   5.578   1.350  16.933  0.0933 -0.1629 -0.0602
12769TIP3    H159798   5.636   1.277  16.953  0.2839  0.0578  0.2190
12769TIP3    H259799   5.490   1.314  16.941  0.1855 -0.3592  0.0883
12770TIP3   OH259800   5.506   2.474  12.152  0.0166  0.3772  0.1686
12770TIP3    H159801   5.581   2.516  12.194 -1.1420  1.9714  0.7447
12770TIP3    H259802   5.544   2.424  12.079  1.5407  1.9312 -0.1619
12771TIP3   OH259803   4.571   0.182   4.238  0.1274 -0.7305  0.4890
12771TIP3    H159804   4.526   0.252   4.190 -0.6872 -0.8048  1.1137
12771TIP3    H259805   4.644   0.225   4.281  2.8495 -1.1481 -3.2363
12772TIP3   OH259806   5.681   6.286  13.966  0.0590 -0.2560  0.1432
12772TIP3    H159807   5.633   6.211  14.003  1.3507 -0.8551  0.6716
12772TIP3    H259808   5.654   6.289  13.874 -1.3826 -0.2340  0.5443
12773TIP3   OH259809   0.846   6.547   1.847 -0.1636 -0.5691  0.5261
12773TIP3    H159810   0.929   6.503   1.866  2.0568  3.0101  0.0930
12773TIP3    H259811   0.798   6.544   1.929  1.8983  0.0989  1.8409
12774TIP3   OH259812   5.074   2.121  17.278  0.3336 -0.3284  0.3292
12774TIP3    H159813   5.042   2.036  17.307 -0.3968 -0.5117 -0.9152
12774TIP3    H259814   5.072   2.177  17.356 -2.7580 -0.4200  0.4239
12775TIP3   OH259815   6.110   0.468   1.102  0.8862  0.2304  0.6887
12775TIP3    H159816   6.151   0.406   1.162  0.4236 -1.0824 -0.3067
12775TIP3    H259817   6.020   0.476   1.134 -0.0410 -2.1793 -0.9739
12776TIP3   OH259818   2.840   0.282   2.182  0.3521 -0.4039  0.6606
12776TIP3    H159819   2.935   0.275   2.166  0.1035 -0.2584 -1.0112
12776TIP3    H259820   2.821   0.375   2.170 -0.2697 -0.6942 -0.6559
12777TIP3   OH259821   1.733   4.526  13.955 -0.0915  0.7012  0.4213
12777TIP3    H159822   1.648   4.552  13.919 -0.5920  3.3231  3.0520
12777TIP3    H259823   1.796   4.549  13.888 -1.3352 -0.4108 -1.2061
12778TIP3   OH259824   6.422   6.191  12.653  0.2446  0.2743 -0.3858
12778TIP3    H159825   6.383   6.277  12.667  0.2043  0.1102  0.6321
12778TIP3    H259826   6.359   6.130  12.690  1.4077  0.0073  1.2769
12779TIP3   OH259827   3.889   6.273   5.365 -0.1084 -0.0469 -0.0402
12779TIP3    H159828   3.945   6.205   5.403  0.2419  0.2225 -0.0653
12779TIP3    H259829   3.822   6.289   5.431  1.9436  2.2364  1.6740
12780TIP3   OH259830   3.493   2.866  14.295 -0.6081  0.1452  0.0517
12780TIP3    H159831   3.494   2.961  14.301  0.8104  0.1503  0.0537
12780TIP3    H259832   3.400   2.843  14.285 -0.8531  1.6351 -1.6137
12781TIP3   OH259833   1.809   0.283   3.015  0.0184 -0.2508  0.1852
12781TIP3    H159834   1.765   0.271   2.931  0.1787  0.8066 -0.0605
12781TIP3    H259835   1.784   0.371   3.043  0.8588 -0.1664  0.7050
12782TIP3   OH259836   6.040   6.464  14.864 -0.0500 -0.1514  0.4133
12782TIP3    H159837   6.069   6.536  14.921 -0.3822  0.6403 -0.3973
12782TIP3    H259838   6.055   6.385  14.916 -0.0357  0.5272  1.4703
12783TIP3   OH259839   2.845   5.058   2.304  0.0895 -0.0206  1.1233
12783TIP3    H159840   2.756   5.021   2.303 -0.7480  1.8770  1.1463
12783TIP3    H259841   2.841   5.127   2.370  1.1680  1.0305  0.1357
12784TIP3   OH259842   1.378   5.507  14.973 -0.5742  1.0005 -0.4446
12784TIP3    H159843   1.321   5.472  14.905  0.2514 -0.2501 -0.5119
12784TIP3    H259844   1.397   5.433  15.030  0.6719  1.4808 -0.1927
12785TIP3   OH259845   0.158   4.110  14.273  0.1053  0.2581  0.3396
12785TIP3    H159846   0.208   4.080  14.197 -0.4083 -1.8254  0.7490
12785TIP3    H259847   0.067   4.097  14.249 -0.0555 -0.7898  1.4016
12786TIP3   OH259848   0.558   0.312   3.084 -0.2801  0.4552 -0.0587
12786TIP3    H159849   0.475   0.333   3.042 -0.5735 -0.2259  0.1891
12786TIP3    H259850   0.624   0.339   3.019 -0.7223 -0.4909 -0.9267
12787TIP3   OH259851   1.479   2.067  13.427  0.6464  0.0906 -0.4190
12787TIP3    H159852   1.473   1.973  13.444 -1.5822  0.3548  0.5668
12787TIP3    H259853   1.573   2.087  13.435  1.0333 -1.8586  0.3907
12788TIP3   OH259854   1.610   6.002  16.706 -0.3320 -0.0306  0.2355
12788TIP3    H159855   1.558   6.082  16.712 -1.4176 -0.5395 -1.5828
12788TIP3    H259856   1.698   6.032  16.684 -0.2352  0.7500  1.6026
12789TIP3   OH259857   0.779   4.207   3.486 -0.0016  0.1851  0.3462
12789TIP3    H159858   0.864   4.241   3.460  0.4230 -1.5738 -0.7109
12789TIP3    H259859   0.749   4.156   3.411 -1.1071 -0.8232  1.4277
12790TIP3   OH259860   0.593   5.483  14.055 -0.1508 -0.1167 -0.3084
12790TIP3    H159861   0.613   5.393  14.029 -0.9094 -0.1437 -0.8164
12790TIP3    H259862   0.614   5.485  14.149  1.5884 -0.3107 -0.6571
12791TIP3   OH259863   2.114   6.647  16.455  0.1051  0.8875 -0.1345
12791TIP3    H159864   2.132   6.654  16.549  0.9049  0.0108 -0.2050
12791TIP3    H259865   2.084   6.557  16.444 -0.3677  1.1065 -0.6706
12792TIP3   OH259866   3.520   6.725   4.894  0.0863 -0.0080 -0.5531
12792TIP3    H159867   3.573   6.645   4.892  0.3389  0.1103  0.5672
12792TIP3    H259868   3.560   6.782   4.829 -0.8150 -1.2003 -2.2386
12793TIP3   OH259869   3.469   3.292  13.519  0.2300 -0.2072  0.0520
12793TIP3    H159870   3.469   3.366  13.579  0.8151 -0.0392 -0.1447
12793TIP3    H259871   3.473   3.215  13.576  0.7420 -0.0517  0.2360
12794TIP3   OH259872   3.273   5.570   0.723 -0.9314  0.3112  0.6315
12794TIP3    H159873   3.291   5.621   0.802 -0.7914  1.2094  0.0265
12794TIP3    H259874   3.357   5.528   0.703 -0.7038  0.8669  0.4031
12795TIP3   OH259875   1.173   1.342  15.021 -0.3092  0.2030  0.1061
12795TIP3    H159876   1.262   1.311  15.036 -0.2436  0.6103  0.6063
12795TIP3    H259877   1.117   1.272  15.055 -0.2399 -0.9994 -2.0838
12796TIP3   OH259878   5.735   4.102  16.659 -0.0732 -0.6081  0.4795
12796TIP3    H159879   5.756   4.143  16.743 -1.3882 -0.4987  0.7706
12796TIP3    H259880   5.642   4.118  16.647 -0.3824 -2.5186  0.0454
12797TIP3   OH259881   1.815   4.046   1.498  0.3043  0.0017 -0.0213
12797TIP3    H159882   1.853   4.113   1.441  0.0350  0.2161  0.0482
12797TIP3    H259883   1.776   4.096   1.570  1.8918 -0.3392  1.1058
12798TIP3   OH259884   3.471   4.444  12.183  0.0310  0.4612  0.2524
12798TIP3    H159885   3.537   4.511  12.201  1.8203 -0.4398 -2.3756
12798TIP3    H259886   3.472   4.388  12.261  2.1703  0.6837  0.4562
12799TIP3   OH259887   1.481   2.617  15.727  0.4838  0.1860  0.4033
12799TIP3    H159888   1.466   2.697  15.777 -0.9710 -0.2785  0.7336
12799TIP3    H259889   1.439   2.548  15.778 -2.1132 -0.1424 -1.9932
12800TIP3   OH259890   3.319   3.863   6.029  0.0390  0.0203  0.1899
12800TIP3    H159891   3.226   3.884   6.018  0.0495 -0.9100 -2.3981
12800TIP3    H259892   3.356   3.940   6.071 -1.3811  1.6958 -1.4622
12801TIP3   OH259893   3.216   1.181   1.836 -0.0652  0.2563  0.1437
12801TIP3    H159894   3.202   1.267   1.797 -1.1516 -0.0501 -0.1779
12801TIP3    H259895   3.278   1.138   1.777 -1.3516 -0.0407 -1.0547
12802TIP3   OH259896   6.190   1.197  12.867 -0.1336 -0.7839 -0.8153
12802TIP3    H159897   6.098   1.171  12.868 -0.0879 -1.1978 -3.1553
12802TIP3    H259898   6.220   1.178  12.956 -2.2660 -0.6968 -0.0056
12803TIP3   OH259899   5.145   4.391  13.835 -0.4335 -0.5699 -0.1764
12803TIP3    H159900   5.197   4.361  13.909 -1.7054  0.3387  1.1211
12803TIP3    H259901   5.207   4.439  13.780  0.5710 -1.4539  0.1439
12804TIP3   OH259902   6.759   2.088  15.098 -0.5264  0.3082 -0.0295
12804TIP3    H159903   6.698   2.131  15.038  1.2669  1.7403 -0.9133
12804TIP3    H259904   6.793   2.014  15.048 -0.3134  0.4868 -0.1498
12805TIP3   OH259905   5.251   3.918   5.325  0.3551 -0.1392  0.5247
12805TIP3    H159906   5.263   3.998   5.273  1.0434 -1.5674 -1.6335
12805TIP3    H259907   5.189   3.944   5.394  0.1209  2.0968 -0.4250
12806TIP3   OH259908   6.029   4.055  17.036  0.2974 -0.0649  0.1479
12806TIP3    H159909   5.944   4.080  17.072 -0.7468  0.1462 -2.2946
12806TIP3    H259910   6.083   4.133  17.047  0.1501 -0.1399  1.5536
12807TIP3   OH259911   5.235   4.083   4.695  0.1758 -0.3527  0.0582
12807TIP3    H159912   5.266   4.107   4.608  0.3365 -2.0458 -0.3997
12807TIP3    H259913   5.294   4.013   4.723  0.0626  0.0987  1.4916
12808TIP3   OH259914   2.893   1.637  13.418 -0.7038  0.0316 -0.5886
12808TIP3    H159915   2.852   1.710  13.465 -1.9119 -1.5289  0.8889
12808TIP3    H259916   2.845   1.633  13.335  0.2956  1.7301 -1.3062
12809TIP3   OH259917   2.215   5.769   4.030 -0.2118 -0.7882  0.1872
12809TIP3    H159918   2.263   5.788   3.949  0.2245 -0.3172  0.5437
12809TIP3    H259919   2.125   5.755   4.002 -0.0734 -0.5861 -0.3789
12810TIP3   OH259920   2.669   6.511   5.730 -0.0047  0.3567 -0.0615
12810TIP3    H159921   2.760   6.489   5.715 -0.5293 -0.9667 -1.4790
12810TIP3    H259922   2.649   6.475   5.817  1.0382  1.5239  0.7037
12811TIP3   OH259923   5.651   4.575   4.771  0.1096  0.9607  0.3373
12811TIP3    H159924   5.569   4.605   4.810 -0.4227 -0.8232  0.6762
12811TIP3    H259925   5.638   4.481   4.756  1.9276  0.7182  0.0000
12812TIP3   OH259926   3.968   2.037  10.999  0.0347 -0.4866 -0.1491
12812TIP3    H159927   3.980   2.096  10.925  0.2349  0.4638  0.6123
12812TIP3    H259928   3.960   1.950  10.960 -1.7359  0.1928 -1.3937
12813TIP3   OH259929   3.903   4.188  15.712  0.0599 -0.0551 -0.0600
12813TIP3    H159930   3.867   4.123  15.772 -0.0811 -0.7719 -0.9034
12813TIP3    H259931   3.845   4.186  15.637 -0.2104  1.3871  0.0823
12814TIP3   OH259932   5.555   4.419   0.143  0.2493  0.0764 -0.1010
12814TIP3    H159933   5.645   4.437   0.170 -0.2441  1.8944  0.4699
12814TIP3    H259934   5.501   4.457   0.212 -0.9727 -0.7555 -0.5647
12815TIP3   OH259935   6.351   2.113   5.571 -0.0432  0.1564 -0.1418
12815TIP3    H159936   6.401   2.183   5.613 -2.6334  2.8169 -1.2260
12815TIP3    H259937   6.365   2.126   5.477 -0.9068 -0.4795 -0.3711
12816TIP3   OH259938   5.251   2.823   0.460 -0.0890  0.2230  0.2230
12816TIP3    H159939   5.317   2.755   0.448 -0.1818  0.3688 -1.3496
12816TIP3    H259940   5.232   2.854   0.371 -1.2135  1.1934  0.7697
12817TIP3   OH259941   1.575   3.915   2.232  0.3032 -0.1911 -0.4182
12817TIP3    H159942   1.581   4.007   2.205 -0.7075 -0.4165 -1.4842
12817TIP3    H259943   1.481   3.900   2.244  0.5718 -0.6065  1.5804
12818TIP3   OH259944   0.810   3.361  10.773  0.3180 -0.3848  0.0428
12818TIP3    H159945   0.805   3.375  10.868 -1.0163 -0.5941  0.0250
12818TIP3    H259946   0.799   3.448  10.735 -2.8221 -0.6612  0.0474
12819TIP3   OH259947   5.601   1.327   3.183 -0.1580  0.0066 -0.2278
12819TIP3    H159948   5.559   1.255   3.229 -2.0869 -0.3624 -2.3597
12819TIP3    H259949   5.664   1.286   3.125 -0.2917  0.1513 -0.4779
12820TIP3   OH259950   2.186   2.813   4.702  0.4372 -0.6940 -0.8089
12820TIP3    H159951   2.208   2.862   4.781  2.7885 -2.9551  0.1035
12820TIP3    H259952   2.163   2.879   4.638  2.0256  1.5045  0.7292
12821TIP3   OH259953   5.708   5.309   1.880 -0.1884 -0.4678  0.0669
12821TIP3    H159954   5.731   5.381   1.939  0.6227 -0.5159 -0.1727
12821TIP3    H259955   5.791   5.264   1.865 -0.2940 -0.2050 -1.4439
12822TIP3   OH259956   2.927   0.904   2.338  0.3291 -0.3973  0.3651
12822TIP3    H159957   2.868   0.968   2.376 -0.7952 -0.3982 -1.2844
12822TIP3    H259958   2.982   0.954   2.277 -0.9452 -1.0133 -1.3744
12823TIP3   OH259959   4.820   3.360   3.073 -0.2497  0.1133 -0.3811
12823TIP3    H159960   4.744   3.321   3.117 -1.0884 -0.7481 -2.4430
12823TIP3    H259961   4.817   3.324   2.985  1.3952  1.6905 -1.1427
12824TIP3   OH259962   6.392   4.999  15.900 -0.5363 -0.1304  0.0546
12824TIP3    H159963   6.469   4.995  15.844 -0.2025 -2.1040  0.5875
12824TIP3    H259964   6.400   5.083  15.946  1.2881 -0.2919  0.0843
12825TIP3   OH259965   2.147   4.692  12.955 -0.1742 -0.0372 -0.0415
12825TIP3    H159966   2.150   4.775  13.003 -0.6480 -0.8249  1.3841
12825TIP3    H259967   2.054   4.675  12.941 -0.1112 -0.6337  0.2293
12826TIP3   OH259968   0.297   1.397   5.589 -0.2014  0.1655 -0.2118
12826TIP3    H159969   0.299   1.440   5.675 -0.0209  1.0147 -0.6290
12826TIP3    H259970   0.206   1.372   5.577 -0.3058  0.4039  0.0630
12827TIP3   OH259971   3.155   5.311  13.712 -0.0891  0.0727  0.0491
12827TIP3    H159972   3.186   5.346  13.795 -0.1965  2.1530 -0.7269
12827TIP3    H259973   3.061   5.329  13.711  0.2450  2.0919 -1.3786
12828TIP3   OH259974   0.800   5.256  11.814  0.2494  0.0293 -0.2500
12828TIP3    H159975   0.729   5.195  11.793 -1.1276  0.0609  3.6234
12828TIP3    H259976   0.853   5.209  11.879  0.9559  1.7953  0.5019
12829TIP3   OH259977   4.167   0.860  12.868  0.5724 -0.2198 -0.1879
12829TIP3    H159978   4.170   0.924  12.939 -0.4011 -0.4729  0.0922
12829TIP3    H259979   4.151   0.776  12.913  0.8903 -0.5262 -0.6348
12830TIP3   OH259980   3.326   6.292  13.873  0.2363 -0.4066 -0.1527
12830TIP3    H159981   3.330   6.273  13.780  0.1442 -1.0407 -0.0332
12830TIP3    H259982   3.239   6.260  13.900 -0.4292  1.2777 -0.1728
12831TIP3   OH259983   1.172   5.026   1.229 -0.3255  0.2966 -0.1106
12831TIP3    H159984   1.244   4.980   1.273 -1.7115 -0.4196  1.5616
12831TIP3    H259985   1.170   4.989   1.141  1.1300  0.0996 -0.0848
12832TIP3   OH259986   5.574   0.848  11.157  0.0348  0.5529 -0.6546
12832TIP3    H159987   5.652   0.797  11.135 -1.0975 -0.3529 -2.9648
12832TIP3    H259988   5.501   0.793  11.127 -1.5813  1.1023  1.9460
12833TIP3   OH259989   1.664   3.323   0.308  0.2297  0.3259 -0.1483
12833TIP3    H159990   1.693   3.411   0.281 -3.1380  1.7226  0.3729
12833TIP3    H259991   1.637   3.333   0.399 -0.9886 -1.0281 -0.3242
12834TIP3   OH259992   2.459   1.931   2.647  0.4649  0.3562 -0.5351
12834TIP3    H159993   2.451   1.952   2.554 -2.0474  1.1607 -0.2172
12834TIP3    H259994   2.499   2.009   2.685  2.3756 -0.3386 -1.0183
12835TIP3   OH259995   4.019   4.950   0.927 -0.3867  0.4003 -0.2230
12835TIP3    H159996   4.107   4.921   0.906 -0.5282  0.9671 -1.6487
12835TIP3    H259997   3.962   4.900   0.868 -0.8961  1.1094 -0.3467
12836TIP3   OH259998   4.297   4.476  12.894 -0.1718  0.6656 -0.1140
12836TIP3    H159999   4.246   4.461  12.974  1.0377 -1.7787  0.2753
12836TIP3    H260000   4.236   4.457  12.823 -0.0227 -1.8063  0.3430
12837TIP3   OH260001   6.218   2.173   0.889 -0.4390 -0.0612 -0.0026
12837TIP3    H160002   6.190   2.191   0.979 -1.2697  1.3503 -0.5091
12837TIP3    H260003   6.171   2.093   0.865  0.4061 -0.9080  1.0590
12838TIP3   OH260004   1.049   1.985   4.666 -0.4207 -0.3821 -0.6098
12838TIP3    H160005   0.979   2.050   4.669  0.0181  0.0440  0.6553
12838TIP3    H260006   1.130   2.036   4.672 -0.0443 -0.9854 -0.4530
12839TIP3   OH260007   4.038   0.785   4.219  0.1049  0.2300  0.0166
12839TIP3    H160008   4.050   0.834   4.301  0.1734  0.1810  0.0367
12839TIP3    H260009   4.045   0.850   4.150 -0.6383  0.3828  0.0774
12840TIP3   OH260010   2.395   6.354  13.920  0.1343  0.2410 -0.1721
12840TIP3    H160011   2.461   6.300  13.964  0.8020 -0.1281 -1.5830
12840TIP3    H260012   2.383   6.312  13.835 -1.1363  0.9344 -0.3552
12841TIP3   OH260013   1.799   0.289   1.716  0.2069 -0.5271 -0.1458
12841TIP3    H160014   1.747   0.234   1.775  1.0256 -1.1053  0.0622
12841TIP3    H260015   1.890   0.274   1.744  0.3966  2.2886  1.1053
12842TIP3   OH260016   3.616   3.701  16.529  0.1543 -0.6894 -0.5725
12842TIP3    H160017   3.592   3.681  16.439 -0.9187 -1.6076 -0.1051
12842TIP3    H260018   3.707   3.729  16.524  0.2595 -1.2039 -1.8768
12843TIP3   OH260019   4.210   4.692  12.284 -0.4164 -0.3269 -0.0994
12843TIP3    H160020   4.195   4.771  12.335  0.3785 -0.4733  0.3820
12843TIP3    H260021   4.222   4.623  12.349  1.7789 -0.3078 -0.4152
12844TIP3   OH260022   1.571   3.602   2.998 -0.3399 -0.1806 -0.6541
12844TIP3    H160023   1.538   3.685   3.033 -1.9065 -1.2254  0.4849
12844TIP3    H260024   1.542   3.603   2.906  0.2144  0.7894 -0.8356
12845TIP3   OH260025   0.351   3.164   3.657 -0.2388  0.5260 -0.0967
12845TIP3    H160026   0.301   3.114   3.593 -1.3023  1.2328  0.1445
12845TIP3    H260027   0.425   3.199   3.607  0.5074 -1.2059 -0.2739
12846TIP3   OH260028   5.927   0.353   0.164 -0.1390 -0.4543  0.1663
12846TIP3    H160029   5.910   0.401   0.083  0.5379  1.2072  0.9683
12846TIP3    H260030   6.015   0.318   0.154 -1.0469 -2.5747 -0.8831
12847TIP3   OH260031   4.749   5.344   1.283 -0.3400 -0.2380  0.4011
12847TIP3    H160032   4.830   5.363   1.236 -1.3058  1.6703 -0.6419
12847TIP3    H260033   4.717   5.262   1.246  0.8184 -0.7072  0.4256
12848TIP3   OH260034   2.910   0.852  14.553 -0.2437 -0.2281  0.1797
12848TIP3    H160035   2.925   0.931  14.500 -0.9702 -1.6317 -2.2685
12848TIP3    H260036   2.992   0.840  14.601  0.8408  0.5968 -1.3726
12849TIP3   OH260037   5.106   6.628  12.727 -0.0851  0.3008 -0.0410
12849TIP3    H160038   5.049   6.621  12.804  1.4606  1.3641  1.2952
12849TIP3    H260039   5.097   6.544  12.682  0.1764 -1.0522  2.2476
12850TIP3   OH260040   5.978   6.300  14.557  0.3425 -0.6796 -0.5915
12850TIP3    H160041   5.980   6.395  14.564  1.1822 -0.6761 -0.7296
12850TIP3    H260042   6.065   6.277  14.526  0.7655 -1.6340  1.1735
12851TIP3   OH260043   3.959   5.905  14.883 -0.2057  0.5211 -0.0118
12851TIP3    H160044   4.018   5.831  14.872  0.6499  1.5650 -4.2460
12851TIP3    H260045   3.885   5.886  14.825 -0.9656  2.0837  0.3854
12852TIP3   OH260046   5.156   4.528   1.577 -0.2644  0.0288  0.5017
12852TIP3    H160047   5.236   4.546   1.626 -1.0522  0.4624  1.6632
12852TIP3    H260048   5.132   4.612   1.538  0.0150 -0.1743 -0.1199
12853TIP3   OH260049   6.218   2.438  16.577  0.1766 -0.1148  0.6406
12853TIP3    H160050   6.295   2.386  16.600  1.0158  0.9831  0.4023
12853TIP3    H260051   6.143   2.387  16.608  1.0613 -0.6680  1.9053
12854TIP3   OH260052   0.695   5.670  12.895 -0.2060 -0.2056  0.3712
12854TIP3    H160053   0.672   5.651  12.804 -1.0153  0.7835  0.3584
12854TIP3    H260054   0.735   5.589  12.927 -0.5114 -0.7783 -0.6610
12855TIP3   OH260055   6.577   3.746  12.762 -0.9378 -0.9004  0.2887
12855TIP3    H160056   6.625   3.822  12.792  0.3268 -1.8473  0.7529
12855TIP3    H260057   6.589   3.746  12.667 -1.0101 -0.4727  0.2822
12856TIP3   OH260058   5.715   4.216  16.344 -0.2658  0.8868 -0.0152
12856TIP3    H160059   5.677   4.293  16.386  0.5197  0.5706  1.3057
12856TIP3    H260060   5.719   4.150  16.413  0.9945  0.3356 -0.5919
12857TIP3   OH260061   6.712   4.933   3.525 -0.0646 -0.3542  0.8599
12857TIP3    H160062   6.626   4.971   3.545  0.0247 -0.5473  1.6326
12857TIP3    H260063   6.750   4.993   3.461 -0.0624  0.6887  1.8165
12858TIP3   OH260064   2.606   3.434  14.924 -0.1686  0.1650  0.2546
12858TIP3    H160065   2.635   3.393  14.843 -0.3360  0.7336 -0.1002
12858TIP3    H260066   2.528   3.384  14.950 -0.8638  0.7661 -0.6210
12859TIP3   OH260067   2.933   4.872  13.181  0.6766 -0.0341 -0.0231
12859TIP3    H160068   3.021   4.869  13.144  0.1128  0.7374 -1.4905
12859TIP3    H260069   2.874   4.865  13.106 -0.5259 -0.4289  0.9216
12860TIP3   OH260070   1.907   0.592   1.166 -0.0781 -0.7487  0.2475
12860TIP3    H160071   1.896   0.510   1.215 -1.4850 -0.6519  0.1423
12860TIP3    H260072   1.829   0.643   1.187  0.3346  0.1880 -0.4239
12861TIP3   OH260073   3.256   1.612  15.384  0.1619  0.0454 -0.6498
12861TIP3    H160074   3.220   1.673  15.448 -0.9864 -1.2952  0.0586
12861TIP3    H260075   3.248   1.657  15.300  1.8158  1.8853  0.1265
12862TIP3   OH260076   5.338   1.306  14.650 -0.6066  0.5512 -0.2444
12862TIP3    H160077   5.394   1.263  14.585 -1.6834  0.4082 -1.1131
12862TIP3    H260078   5.253   1.264  14.640 -0.6801  0.1772  1.6389
12863TIP3   OH260079   2.889   4.210   4.953  0.1032  0.3495  0.2828
12863TIP3    H160080   2.945   4.280   4.920  0.4921 -0.0642  0.0535
12863TIP3    H260081   2.950   4.140   4.975 -0.1141  0.6588  2.0332
12864TIP3   OH260082   6.668   5.189   3.409  0.5193  0.0482 -0.5067
12864TIP3    H160083   6.734   5.176   3.341  1.2764 -2.4022  0.5701
12864TIP3    H260084   6.718   5.213   3.487 -0.2603  1.9357 -0.5330
12865TIP3   OH260085   1.639   5.625   2.178  0.4658 -0.2195 -0.4962
12865TIP3    H160086   1.687   5.595   2.101  0.1164 -1.1935 -0.3425
12865TIP3    H260087   1.701   5.612   2.250  0.1398 -1.0360 -0.3622
12866TIP3   OH260088   4.380   5.546  16.928  0.1118 -0.3808 -0.0116
12866TIP3    H160089   4.376   5.497  17.010  0.2878  0.7759  0.7077
12866TIP3    H260090   4.309   5.509  16.875  0.4788 -1.6571  0.3430
12867TIP3   OH260091   2.906   5.885   0.520  0.4843  0.0609  0.4509
12867TIP3    H160092   2.931   5.926   0.604  2.3875 -0.7914  0.3554
12867TIP3    H260093   2.961   5.929   0.455 -1.4918  1.2290 -0.5311
12868TIP3   OH260094   3.390   2.943  14.874 -0.1710 -0.2047 -0.3655
12868TIP3    H160095   3.478   2.965  14.844  1.1176 -1.3071  2.2946
12868TIP3    H260096   3.401   2.866  14.929 -2.9812 -1.0223 -0.7756
12869TIP3   OH260097   0.336   1.886  11.334  0.1920  0.2624 -0.1108
12869TIP3    H160098   0.359   1.894  11.427  1.7270  1.4389 -0.5402
12869TIP3    H260099   0.331   1.791  11.319 -0.2457  0.0560  1.1984
12870TIP3   OH260100   3.062   5.726  11.378 -0.1120  0.9142 -0.9755
12870TIP3    H160101   3.080   5.639  11.342  0.3517 -0.6806  2.6594
12870TIP3    H260102   3.131   5.782  11.341  0.5372 -0.6021 -2.1683
12871TIP3   OH260103   1.779   1.897   1.119 -0.3121  0.0971  0.1847
12871TIP3    H160104   1.827   1.831   1.168  1.0255  0.8571 -0.0375
12871TIP3    H260105   1.812   1.888   1.029 -1.2502  0.0491 -0.1586
12872TIP3   OH260106   0.386   1.865   0.790 -0.3476  0.5182 -0.6002
12872TIP3    H160107   0.352   1.953   0.806 -2.3157 -0.5493  1.7436
12872TIP3    H260108   0.420   1.837   0.876  0.0958 -1.0829 -1.2636
12873TIP3   OH260109   3.320   6.072   2.401 -0.0444 -0.4992  0.5993
12873TIP3    H160110   3.294   5.998   2.345  2.6493  0.6503 -2.5618
12873TIP3    H260111   3.272   6.147   2.366  1.0141  0.0814  0.3311
12874TIP3   OH260112   6.016   4.238   4.236  0.2059  0.5899  1.0479
12874TIP3    H160113   6.050   4.154   4.204  1.8072  1.4085  0.5253
12874TIP3    H260114   5.978   4.217   4.321 -0.6286 -0.9008  0.3598
12875TIP3   OH260115   3.094   0.161  11.796  0.0030  0.0833  0.0221
12875TIP3    H160116   3.039   0.090  11.764 -0.5121  0.1321  0.7776
12875TIP3    H260117   3.183   0.135  11.772 -0.2000 -0.7269  0.1221
12876TIP3   OH260118   5.520   3.406   0.983 -0.2522  0.5687  0.1331
12876TIP3    H160119   5.431   3.371   0.988 -0.0680  0.0462 -0.2158
12876TIP3    H260120   5.529   3.459   1.063 -1.4427  2.0048 -0.6375
12877TIP3   OH260121   2.063   6.800   1.771 -0.3242 -0.2851 -0.0167
12877TIP3    H160122   1.981   6.806   1.820  0.3804 -0.8553  1.2931
12877TIP3    H260123   2.076   6.887   1.734 -0.2488  0.5898  1.9270
12878TIP3   OH260124   0.812   0.871  16.271  0.0547  0.2668 -0.3014
12878TIP3    H160125   0.787   0.963  16.281  0.5361  0.4482 -0.7213
12878TIP3    H260126   0.747   0.835  16.211 -2.6234 -0.7338  2.8770
12879TIP3   OH260127   2.821   1.452   4.590  0.2617  0.4317  0.2071
12879TIP3    H160128   2.796   1.473   4.680  0.1289 -0.6482  0.4266
12879TIP3    H260129   2.752   1.492   4.537 -0.8967 -0.8312  0.7092
12880TIP3   OH260130   6.810   1.193  15.490  0.1767 -0.1233 -0.1805
12880TIP3    H160131   6.785   1.285  15.499  0.4293 -0.1069  0.3644
12880TIP3    H260132   6.738   1.153  15.441  0.9181  0.7475 -2.0527
12881TIP3   OH260133   1.137   2.565   3.832 -0.4702  0.4917  0.3722
12881TIP3    H160134   1.212   2.569   3.773  0.5108  1.9355  1.6450
12881TIP3    H260135   1.083   2.639   3.807 -0.6283  0.4400  0.5559
12882TIP3   OH260136   6.374   0.777   3.733 -0.1997 -0.7369  0.2789
12882TIP3    H160137   6.449   0.816   3.688 -2.4808 -0.7038 -3.9362
12882TIP3    H260138   6.360   0.693   3.690 -2.8504 -0.5199  0.5572
12883TIP3   OH260139   5.234   1.180  13.012 -0.1297 -0.4790 -0.3648
12883TIP3    H160140   5.279   1.103  12.978  1.9494  1.6831 -2.9512
12883TIP3    H260141   5.246   1.175  13.107  1.8172 -2.2481 -0.6269
12884TIP3   OH260142   2.011   3.677   5.240 -0.5526 -0.3142 -0.3316
12884TIP3    H160143   2.028   3.748   5.179 -0.9397  0.1529  0.0941
12884TIP3    H260144   1.919   3.655   5.224 -0.7408  0.0178  0.2959
12885TIP3   OH260145   5.035   5.014  15.829  0.1643  0.0747  0.2985
12885TIP3    H160146   4.971   5.058  15.884 -0.6837  0.4510 -0.9425
12885TIP3    H260147   5.002   4.925  15.820  0.4066 -0.0410  0.5709
12886TIP3   OH260148   0.915   0.924  12.014 -0.3393  0.7135 -0.6411
12886TIP3    H160149   0.878   1.012  12.013  0.7407  1.1951 -2.1307
12886TIP3    H260150   0.910   0.895  11.923 -0.1775 -0.5552 -0.2673
12887TIP3   OH260151   6.255   3.498  11.375  0.3312  0.3750 -0.0528
12887TIP3    H160152   6.313   3.443  11.323  1.0745 -0.4026  1.5348
12887TIP3    H260153   6.287   3.587  11.360  0.6729  0.1499 -0.7137
12888TIP3   OH260154   4.199   0.524  14.721 -0.0486 -0.2764  0.3661
12888TIP3    H160155   4.187   0.454  14.786  2.1411  0.8512  2.1133
12888TIP3    H260156   4.287   0.557  14.737 -0.3318  1.6862 -1.6351
12889TIP3   OH260157   4.386   5.044   4.728 -0.3717 -0.3958  0.5441
12889TIP3    H160158   4.392   5.053   4.633 -1.7795  0.2327  0.4879
12889TIP3    H260159   4.361   4.953   4.742  0.5359 -0.6782  0.3585
12890TIP3   OH260160   3.437   3.960   0.842  0.8817  0.0146  0.1472
12890TIP3    H160161   3.342   3.966   0.855  0.5033  0.9923 -2.3878
12890TIP3    H260162   3.455   4.025   0.774  2.7764 -2.6316 -2.0768
12891TIP3   OH260163   6.391   4.768  11.301  1.0535 -0.2203  0.0417
12891TIP3    H160164   6.341   4.742  11.223  0.8880  0.0852  0.0467
12891TIP3    H260165   6.326   4.800  11.362  0.9587 -2.1429  1.0213
12892TIP3   OH260166   3.271   3.446   6.684  0.6468  0.3786  0.2404
12892TIP3    H160167   3.331   3.513   6.650 -0.2852  0.9707 -0.2917
12892TIP3    H260168   3.288   3.369   6.630 -0.4735  1.1614 -1.3032
12893TIP3   OH260169   2.742   3.621  12.335  0.1725  0.4692  0.5493
12893TIP3    H160170   2.666   3.617  12.276  1.6185 -1.9924 -1.3644
12893TIP3    H260171   2.816   3.639  12.278  1.3929  0.0727  1.9350
12894TIP3   OH260172   0.951   1.575   1.999  0.0982  0.1374 -0.0489
12894TIP3    H160173   0.868   1.624   1.996 -0.7131 -1.1156  0.9828
12894TIP3    H260174   0.969   1.564   2.092  1.2238  0.0182 -0.2667
12895TIP3   OH260175   0.067   3.647  12.974 -0.4039  0.4320 -0.1566
12895TIP3    H160176   0.100   3.612  12.891 -1.3582  1.1455 -0.8506
12895TIP3    H260177   0.014   3.576  13.011  1.0980 -0.3895  0.5288
12896TIP3   OH260178   5.383   2.860  14.880 -0.2371 -0.3528  0.5170
12896TIP3    H160179   5.295   2.869  14.918 -0.8485 -0.0676 -0.9021
12896TIP3    H260180   5.432   2.933  14.918 -0.9246  0.1344  0.5022
12897TIP3   OH260181   3.946   5.139  13.558 -0.2577 -0.7429  0.1531
12897TIP3    H160182   3.993   5.178  13.484 -2.3687 -3.2779 -2.7878
12897TIP3    H260183   4.010   5.080  13.597  0.4305 -0.6364 -0.7569
12898TIP3   OH260184   5.445   6.543  14.213 -0.2705  0.2475 -0.4654
12898TIP3    H160185   5.394   6.550  14.132 -0.7259  0.6020 -0.1543
12898TIP3    H260186   5.533   6.572  14.188  0.0648 -1.3235 -1.2472
12899TIP3   OH260187   1.345   2.165   3.227 -0.1030 -0.4642  0.2675
12899TIP3    H160188   1.333   2.094   3.164 -0.8455  0.4650 -0.6859
12899TIP3    H260189   1.318   2.244   3.180  0.4060  0.4188  1.3922
12900TIP3   OH260190   2.582   0.162  11.222  0.3394 -0.6458 -0.0053
12900TIP3    H160191   2.622   0.090  11.174 -0.3996 -0.4575 -0.9300
12900TIP3    H260192   2.557   0.226  11.155  1.9697  1.0009  0.8555
12901TIP3   OH260193   1.647   4.224  11.957  0.2825 -0.1117 -0.3644
12901TIP3    H160194   1.587   4.186  11.892  0.3683  0.1021 -0.5722
12901TIP3    H260195   1.731   4.227  11.912  0.6752 -1.2746  0.2352
12902TIP3   OH260196   1.668   5.585  11.094  0.2310 -0.2159  0.1632
12902TIP3    H160197   1.648   5.492  11.107 -0.0934 -0.2851 -0.7676
12902TIP3    H260198   1.686   5.593  11.000  0.9259  0.5421  0.3515
12903TIP3   OH260199   3.104   0.764   1.664 -0.1427  0.0940  0.5986
12903TIP3    H160200   3.075   0.831   1.725  0.4590  2.7704 -1.8712
12903TIP3    H260201   3.038   0.763   1.595 -0.0889 -1.8462  0.5066
12904TIP3   OH260202   6.806   3.381   1.830  0.1292  0.4257 -0.4756
12904TIP3    H160203   6.779   3.296   1.865 -0.5373 -0.3014 -2.6525
12904TIP3    H260204   6.732   3.438   1.846 -0.3996 -0.0503 -1.1981
12905TIP3   OH260205   0.120   6.476   2.389  0.5627  0.1499  0.1815
12905TIP3    H160206   0.120   6.428   2.306  0.1334 -0.8768  0.7421
12905TIP3    H260207   0.097   6.409   2.454 -0.2526  1.1676  0.9752
12906TIP3   OH260208   3.190   2.239  16.570 -1.1913  0.2575  0.4434
12906TIP3    H160209   3.114   2.206  16.617 -1.7472  0.2507 -0.4521
12906TIP3    H260210   3.155   2.298  16.504 -0.3946  0.5506  0.2638
12907TIP3   OH260211   6.681   3.373   3.371  0.4960 -0.2104  0.6113
12907TIP3    H160212   6.600   3.335   3.405 -0.1316  0.6014  0.0501
12907TIP3    H260213   6.742   3.369   3.445  0.3888 -2.0577  0.6445
12908TIP3   OH260214   6.675   4.330  12.625  0.0804  0.6583  1.0518
12908TIP3    H160215   6.639   4.398  12.568 -2.8830 -0.9433  0.8268
12908TIP3    H260216   6.603   4.269  12.639  1.3820 -0.3035  4.6486
12909TIP3   OH260217   6.804   4.616   4.416  0.3100  0.0544 -0.2435
12909TIP3    H160218   6.819   4.654   4.503  0.1232  0.0819 -0.2220
12909TIP3    H260219   6.714   4.584   4.420  0.4787 -0.4231 -0.2517
12910TIP3   OH260220   1.616   6.749   3.884  0.4238 -0.2174 -0.4918
12910TIP3    H160221   1.691   6.805   3.905  0.6414 -0.2281 -1.1852
12910TIP3    H260222   1.545   6.782   3.939  0.5943  0.6416 -0.7688
12911TIP3   OH260223   1.741   4.410   1.327  0.6741 -0.1047  0.0447
12911TIP3    H160224   1.692   4.430   1.407 -2.2710  1.2112 -1.9086
12911TIP3    H260225   1.715   4.478   1.265  4.6560  0.3289 -1.4331
12912TIP3   OH260226   4.629   1.108   5.225 -0.0184 -0.2120  0.2174
12912TIP3    H160227   4.700   1.172   5.231  0.2594 -0.4494 -0.5531
12912TIP3    H260228   4.551   1.157   5.253  0.5319 -0.1215  1.6655
12913TIP3   OH260229   2.351   1.405   2.346 -0.1916  0.0996  0.3852
12913TIP3    H160230   2.383   1.315   2.334  0.9795  0.2474  1.9733
12913TIP3    H260231   2.345   1.441   2.258  2.8828 -0.3845 -0.1394
12914TIP3   OH260232   4.117   3.377  16.185 -0.2224  0.0627  0.3402
12914TIP3    H160233   4.147   3.368  16.276  1.2900  1.2434 -0.0096
12914TIP3    H260234   4.190   3.342  16.133 -1.6864 -2.0535 -0.4340
12915TIP3   OH260235   5.457   5.785  12.995 -0.3219  0.2725 -0.3501
12915TIP3    H160236   5.466   5.700  12.953  1.5832  0.4321 -0.3753
12915TIP3    H260237   5.488   5.848  12.929 -0.3664  0.8387  0.1580
12916TIP3   OH260238   5.404   6.243  15.364  0.4113  0.1039 -0.2566
12916TIP3    H160239   5.430   6.217  15.276 -0.4277 -1.0457 -0.1761
12916TIP3    H260240   5.323   6.195  15.381  0.4199  0.5115  1.0459
12917TIP3   OH260241   4.319   0.744  11.564  0.4486 -0.2568 -0.3251
12917TIP3    H160242   4.406   0.703  11.562  0.6586  0.0328  1.6331
12917TIP3    H260243   4.299   0.760  11.472  3.5635  1.9650 -0.7828
12918TIP3   OH260244   4.339   1.790   3.122 -0.2627  0.0704  0.1251
12918TIP3    H160245   4.248   1.799   3.096 -0.5543 -0.8206  0.7952
12918TIP3    H260246   4.374   1.880   3.118 -1.2233  0.4563  0.1055
12919TIP3   OH260247   2.922   5.489   5.383  0.2563 -0.4641 -0.1354
12919TIP3    H160248   2.839   5.483   5.431 -0.9018  1.2199 -1.7702
12919TIP3    H260249   2.989   5.470   5.449 -1.3214  0.1279  1.7480
12920TIP3   OH260250   1.498   5.920  16.940 -0.2801 -0.0457 -0.1767
12920TIP3    H160251   1.547   5.839  16.955 -1.0698 -0.8022 -1.4875
12920TIP3    H260252   1.518   5.944  16.849  0.6605  1.7578  0.4673
12921TIP3   OH260253   3.492   0.055   3.185  0.3191 -0.3834 -0.1943
12921TIP3    H160254   3.563   0.018   3.132  1.4220  1.4117 -0.0521
12921TIP3    H260255   3.425  -0.014   3.186  1.0443 -1.2305 -2.3337
12922TIP3   OH260256   2.174   2.408   2.226  0.3697 -0.4639 -0.5657
12922TIP3    H160257   2.080   2.399   2.239  0.0534  1.2590 -1.3997
12922TIP3    H260258   2.197   2.491   2.268  1.3409 -0.4055 -1.1679
12923TIP3   OH260259   5.361   0.100  11.200 -0.3982  0.4760 -0.5297
12923TIP3    H160260   5.453   0.089  11.175 -0.5929  0.9793 -1.4970
12923TIP3    H260261   5.365   0.155  11.278  0.1426  0.0705 -0.2572
12924TIP3   OH260262   2.196   2.429   2.693  0.1062 -0.1686  0.0656
12924TIP3    H160263   2.125   2.406   2.633  0.4596 -0.7530 -0.1307
12924TIP3    H260264   2.186   2.523   2.707  0.0162 -0.0267 -0.9046
12925TIP3   OH260265   2.015   6.491   2.865  0.0455 -0.2652  0.7588
12925TIP3    H160266   1.992   6.505   2.957 -0.4258  1.0700  0.4593
12925TIP3    H260267   1.957   6.549   2.816 -0.6013 -1.8791 -0.4916
12926TIP3   OH260268   4.790   2.302   0.884  0.2448  0.2864 -0.4745
12926TIP3    H160269   4.727   2.235   0.910 -0.4751  0.8249 -0.7745
12926TIP3    H260270   4.852   2.307   0.956 -0.1299 -0.1700 -0.1155
12927TIP3   OH260271   4.657   3.816   5.032  0.2825 -0.3864  0.5079
12927TIP3    H160272   4.691   3.873   5.102  0.6358  2.0048 -1.4862
12927TIP3    H260273   4.734   3.774   4.996  0.3272 -0.1662  0.3458
12928TIP3   OH260274   1.056   4.279  13.140  0.1217 -0.0508 -0.2832
12928TIP3    H160275   0.961   4.284  13.134  0.1770  0.8637 -0.5820
12928TIP3    H260276   1.078   4.324  13.221  0.3193 -0.0650 -0.3268
12929TIP3   OH260277   2.372   4.153  10.609 -0.0663 -0.4228  0.2772
12929TIP3    H160278   2.452   4.188  10.568 -1.0424  1.7094  0.0497
12929TIP3    H260279   2.381   4.058  10.601  2.8645 -0.3142  1.0908
12930TIP3   OH260280   0.812   0.281   2.854  0.0558  0.0345  0.5570
12930TIP3    H160281   0.792   0.373   2.872  0.9462  0.6492 -1.3745
12930TIP3    H260282   0.899   0.268   2.893 -0.8675 -0.5818  2.5295
12931TIP3   OH260283   6.084   3.811  12.910 -0.2994 -0.6422 -0.0993
12931TIP3    H160284   6.120   3.808  12.822 -0.4704  1.1456 -0.2679
12931TIP3    H260285   6.161   3.812  12.967 -0.1864 -1.3789 -0.2184
12932TIP3   OH260286   5.278   1.284  13.279  0.0467  0.5080 -0.3577
12932TIP3    H160287   5.346   1.333  13.233 -1.0291  1.8176 -0.6220
12932TIP3    H260288   5.316   1.266  13.365  2.1019 -2.0163 -1.6401
12933TIP3   OH260289   2.688   2.029   1.870  0.0018 -0.3753  0.3816
12933TIP3    H160290   2.632   2.056   1.943  0.1569  0.6156  0.1614
12933TIP3    H260291   2.635   1.970   1.818 -0.9611  0.7691  0.0211
12934TIP3   OH260292   0.748   6.196  13.380  0.3138 -0.5558  0.0412
12934TIP3    H160293   0.790   6.111  13.371 -1.5119 -1.3782 -1.3950
12934TIP3    H260294   0.820   6.259  13.372  1.6070 -1.9279  0.4071
12935TIP3   OH260295   4.101   5.954   1.068  0.0256  0.4748 -0.0355
12935TIP3    H160296   4.171   5.978   1.129  0.1623 -0.5494  0.2223
12935TIP3    H260297   4.026   5.937   1.125 -0.5709  1.9672 -0.3343
12936TIP3   OH260298   5.456   0.655  13.282 -0.1005  0.2458 -0.5649
12936TIP3    H160299   5.515   0.704  13.339  2.1085  0.3284 -2.7559
12936TIP3    H260300   5.473   0.564  13.303 -0.6175  0.2997  0.1197
12937TIP3   OH260301   3.707   5.667  12.433  0.2705 -0.4037 -0.1435
12937TIP3    H160302   3.743   5.755  12.426 -2.3212  0.6677 -1.1127
12937TIP3    H260303   3.678   5.660  12.524  0.5478 -0.2918 -0.0478
12938TIP3   OH260304   5.992   1.114  12.074  0.3416 -0.0159 -0.2833
12938TIP3    H160305   5.924   1.164  12.118 -0.7879 -1.8916  0.2205
12938TIP3    H260306   6.074   1.159  12.096 -0.3327  0.0035  2.4682
12939TIP3   OH260307   0.023   6.678  13.283  0.5039  0.0213  0.4309
12939TIP3    H160308   0.048   6.651  13.372  0.1653  0.7522  0.7564
12939TIP3    H260309   0.021   6.597  13.233  0.9240 -0.3722  1.0379
12940TIP3   OH260310   2.720   3.830   2.109 -0.0545  0.1699 -0.0899
12940TIP3    H160311   2.748   3.742   2.136  1.2044 -0.2716 -2.5659
12940TIP3    H260312   2.778   3.853   2.037  0.2840  3.5122  1.0915
12941TIP3   OH260313   0.962   0.826  13.633  0.1413  0.6273  0.3597
12941TIP3    H160314   0.997   0.742  13.603  3.8050  1.2212  2.3540
12941TIP3    H260315   0.923   0.865  13.555  0.1375 -2.0430 -1.0922
12942TIP3   OH260316   5.935   5.011   6.077  0.1662 -0.6812  0.1779
12942TIP3    H160317   5.858   4.998   6.131 -0.1878  2.5921  0.6511
12942TIP3    H260318   6.009   5.007   6.138  0.0984 -0.7636  0.2536
12943TIP3   OH260319   3.132   3.589   1.446  0.3121 -0.4115  0.6114
12943TIP3    H160320   3.083   3.632   1.517 -0.5894  0.9211 -0.7657
12943TIP3    H260321   3.180   3.519   1.490 -0.8028 -0.1124  2.4332
12944TIP3   OH260322   2.603   3.112  17.056  0.0394  0.2816  0.4850
12944TIP3    H160323   2.562   3.098  17.142 -1.2973  3.0346  0.4008
12944TIP3    H260324   2.529   3.113  16.995  0.6555  1.3218 -0.2648
12945TIP3   OH260325   1.829   0.951  13.803 -0.2725  0.5376  0.0363
12945TIP3    H160326   1.842   0.882  13.738 -1.4640  2.5790 -2.5728
12945TIP3    H260327   1.734   0.953  13.817  0.0101 -0.5234  2.7796
12946TIP3   OH260328   3.427   4.476   5.833  0.3225  0.4913  0.2824
12946TIP3    H160329   3.522   4.466   5.819  0.3434  0.6138  0.3368
12946TIP3    H260330   3.403   4.550   5.778 -0.2889 -1.3441 -2.1164
12947TIP3   OH260331   6.636   4.752   5.933 -0.1484  0.4142  0.1231
12947TIP3    H160332   6.604   4.842   5.923  0.5012  0.9309  2.2844
12947TIP3    H260333   6.637   4.718   5.843 -0.5523  2.4960 -0.7446
12948TIP3   OH260334   5.132   3.530  12.070 -0.1341 -0.0160  0.4579
12948TIP3    H160335   5.077   3.471  12.018 -1.3237 -0.3650  2.0308
12948TIP3    H260336   5.199   3.474  12.108  1.3942  0.4074 -1.4484
12949TIP3   OH260337   0.931   0.397   0.683 -0.5261  0.1602  0.1560
12949TIP3    H160338   0.867   0.405   0.754  0.0182  0.8668  0.5738
12949TIP3    H260339   0.979   0.479   0.684  0.5936 -0.4742  0.0408
12950TIP3   OH260340   5.253   6.629   2.567 -0.2349 -0.1052 -0.6102
12950TIP3    H160341   5.286   6.678   2.643 -0.2148 -1.5959  0.3878
12950TIP3    H260342   5.325   6.571   2.543 -0.7865 -0.7315 -0.7808
12951TIP3   OH260343   2.614   1.107  15.525  0.5428 -0.2176 -0.9391
12951TIP3    H160344   2.584   1.112  15.615 -0.3646  1.0368 -1.2833
12951TIP3    H260345   2.665   1.026  15.521 -1.8018 -1.8422 -0.0414
12952TIP3   OH260346   0.888   0.630   3.359  0.0330  0.3438  0.3756
12952TIP3    H160347   0.974   0.639   3.400  0.4137  0.0259 -0.3424
12952TIP3    H260348   0.906   0.615   3.267 -0.7939  0.1093  0.2398
12953TIP3   OH260349   4.079   5.120   6.598 -0.3639 -0.4394 -0.4306
12953TIP3    H160350   3.992   5.158   6.612 -0.2561 -0.5840  0.6860
12953TIP3    H260351   4.068   5.027   6.617  0.7650  0.0292  3.4900
12954TIP3   OH260352   5.468   2.886   5.787  0.1511  0.3206 -0.1012
12954TIP3    H160353   5.537   2.953   5.786 -0.5863  1.1151  0.7020
12954TIP3    H260354   5.422   2.900   5.870  0.1688 -1.3917  0.2351
12955TIP3   OH260355   2.453   2.950   3.014  0.6056  0.0306  0.3326
12955TIP3    H160356   2.370   2.985   2.981 -0.0775 -2.3354 -0.6442
12955TIP3    H260357   2.440   2.944   3.109 -1.3340 -2.4557  0.0194
12956TIP3   OH260358   1.778   4.134   1.781  0.1585 -0.0665  0.2141
12956TIP3    H160359   1.833   4.059   1.803 -0.3135 -0.2832  0.6855
12956TIP3    H260360   1.835   4.192   1.732  1.0418  0.0851  1.3799
12957TIP3   OH260361   3.440   3.628   0.162 -0.4942  1.0048  0.1740
12957TIP3    H160362   3.502   3.699   0.179 -0.7008  1.1150  0.4748
12957TIP3    H260363   3.477   3.581   0.086  1.4335 -0.5983  1.9624
12958TIP3   OH260364   4.034   2.313   3.868  0.1248  0.4683  0.0573
12958TIP3    H160365   3.975   2.245   3.838  0.9994 -0.9385  1.3231
12958TIP3    H260366   4.041   2.299   3.963  1.8842  1.0358  0.0631
12959TIP3   OH260367   3.147   3.482   5.834 -0.3270  0.3903  0.2268
12959TIP3    H160368   3.173   3.473   5.742  0.2646 -0.6019  0.4799
12959TIP3    H260369   3.225   3.515   5.878 -0.8238  1.5569  0.2636
12960TIP3   OH260370   0.347   0.050  16.587 -0.0801  0.0833 -0.0877
12960TIP3    H160371   0.385   0.042  16.499  3.7367  0.6306  1.3265
12960TIP3    H260372   0.329  -0.040  16.613 -2.2120 -0.0413 -1.6779
12961TIP3   OH260373   1.546   2.972   4.211  0.1919  0.4373  0.5827
12961TIP3    H160374   1.539   3.029   4.134  1.7983 -0.7649 -0.5251
12961TIP3    H260375   1.462   2.979   4.254  0.0781  3.0910  0.0956
12962TIP3   OH260376   6.338   4.449  10.585 -0.2566  0.3786  0.1263
12962TIP3    H160377   6.244   4.439  10.602 -0.1024  0.4971  1.1010
12962TIP3    H260378   6.348   4.541  10.560 -0.4019  0.3571 -0.0137
12963TIP3   OH260379   2.304   3.039  12.766 -0.3278 -0.1136 -0.0776
12963TIP3    H160380   2.236   2.998  12.819  0.3844  0.1407  1.0820
12963TIP3    H260381   2.369   3.068  12.830  1.1934 -0.9443 -1.1816
12964TIP3   OH260382   3.504   3.131   6.377  0.2979  0.2305 -0.0016
12964TIP3    H160383   3.497   3.044   6.415  1.0622 -0.2435 -0.8917
12964TIP3    H260384   3.550   3.183   6.443  0.4351 -0.2210  0.2613
12965TIP3   OH260385   5.376   6.209  15.873  0.3094  0.3995  0.4536
12965TIP3    H160386   5.339   6.121  15.869  0.6925  0.2577 -0.2561
12965TIP3    H260387   5.349   6.249  15.790  1.8691  0.2245 -0.1800
12966TIP3   OH260388   2.632   5.424   3.167 -0.3493 -0.5017 -0.4498
12966TIP3    H160389   2.715   5.381   3.189  0.8287  2.7056  2.3297
12966TIP3    H260390   2.565   5.369   3.206  0.5920 -2.1008 -0.9700
12967TIP3   OH260391   0.688   5.583   2.641  0.0050  0.3349 -0.0428
12967TIP3    H160392   0.765   5.538   2.676  1.8529  1.2004 -2.7548
12967TIP3    H260393   0.669   5.651   2.705  0.3297 -0.9826  1.5396
12968TIP3   OH260394   1.918   5.467  15.651  0.4932 -0.1610  0.5126
12968TIP3    H160395   1.915   5.514  15.734 -1.2393 -0.2675  0.5449
12968TIP3    H260396   1.827   5.441  15.635  0.9441 -0.9212 -0.9710
12969TIP3   OH260397   2.787   6.228  12.751 -0.9850  0.8974 -0.0352
12969TIP3    H160398   2.744   6.175  12.684  1.3077  2.1915 -2.7662
12969TIP3    H260399   2.774   6.318  12.722  1.2569  1.4286  0.4269
12970TIP3   OH260400   2.732   0.766  16.685  0.2785  0.3515 -0.1440
12970TIP3    H160401   2.651   0.801  16.723  1.3543  0.4592  2.2254
12970TIP3    H260402   2.777   0.843  16.651  0.1520  0.5284  0.0807
12971TIP3   OH260403   4.275   2.094   2.078 -0.1009 -0.8688  0.1084
12971TIP3    H160404   4.326   2.172   2.101 -0.9695 -0.4561  0.6866
12971TIP3    H260405   4.283   2.037   2.154  0.2031 -1.1871 -0.1553
12972TIP3   OH260406   4.817   4.696   6.258 -0.0631  0.2755  0.2231
12972TIP3    H160407   4.759   4.768   6.284 -1.8987 -1.1356  0.2428
12972TIP3    H260408   4.899   4.714   6.304 -0.6684  2.0203  0.7054
12973TIP3   OH260409   0.733   4.671   3.318 -1.0129 -0.0678 -0.0840
12973TIP3    H160410   0.647   4.702   3.291 -0.4852 -0.5223 -2.5086
12973TIP3    H260411   0.790   4.747   3.307 -0.5082 -0.6587 -1.9200
12974TIP3   OH260412   3.784   4.177  12.530  0.5224 -0.3817 -0.3770
12974TIP3    H160413   3.779   4.199  12.623  1.5691 -1.0449 -0.1406
12974TIP3    H260414   3.707   4.217  12.491  0.6328  0.8235  0.5947
12975TIP3   OH260415   4.528   1.795  15.009  0.0467 -0.0237 -0.5391
12975TIP3    H160416   4.437   1.812  15.032 -0.3061 -0.0832 -1.8038
12975TIP3    H260417   4.525   1.718  14.952  1.0744 -1.0345  0.7012
12976TIP3   OH260418   3.105   4.027  17.064  0.5839  0.7256 -0.2509
12976TIP3    H160419   3.062   3.980  17.136  1.0596  1.4517  0.5271
12976TIP3    H260420   3.175   3.968  17.036 -0.3203 -0.0596 -0.9073
12977TIP3   OH260421   5.421   4.152  13.031 -0.2064 -0.4371 -0.2382
12977TIP3    H160422   5.330   4.181  13.032 -0.3074 -0.5052  2.9299
12977TIP3    H260423   5.418   4.063  12.994 -1.1311  0.1791 -1.7348
12978TIP3   OH260424   2.232   3.553  15.485 -0.2942 -0.5444  0.1688
12978TIP3    H160425   2.145   3.568  15.448 -1.2508  0.8143  2.7172
12978TIP3    H260426   2.215   3.516  15.572  1.6293  0.1992  0.9144
12979TIP3   OH260427   2.447   2.896   6.091 -0.3940 -0.5248  0.0068
12979TIP3    H160428   2.542   2.881   6.092 -0.2110  0.5623 -0.0676
12979TIP3    H260429   2.410   2.817   6.130  0.5576 -0.8561  0.2656
12980TIP3   OH260430   3.591   2.003  14.479 -0.1353 -0.0241 -0.2498
12980TIP3    H160431   3.544   2.075  14.436 -1.2117 -0.7124 -0.2739
12980TIP3    H260432   3.529   1.968  14.543 -0.2830 -1.9601 -1.3550
12981TIP3   OH260433   1.119   4.573  17.098 -0.0347  0.5379  0.2327
12981TIP3    H160434   1.157   4.622  17.025  0.0817 -0.4665 -0.4060
12981TIP3    H260435   1.189   4.570  17.164  0.2170  0.5872 -0.0303
12982TIP3   OH260436   6.222   2.413   6.188 -0.8614  0.4025  0.8073
12982TIP3    H160437   6.195   2.452   6.272 -0.1182 -0.2324  1.3584
12982TIP3    H260438   6.301   2.364   6.210  1.2837  2.8381 -0.8671
12983TIP3   OH260439   1.530   5.935   0.078  0.2790  0.0910 -0.3412
12983TIP3    H160440   1.601   5.882   0.041 -0.2768 -0.7489 -0.2416
12983TIP3    H260441   1.563   6.025   0.075  0.4432  0.0051 -2.4112
12984TIP3   OH260442   6.298   5.713  11.189  0.0248 -0.4905 -0.0862
12984TIP3    H160443   6.338   5.783  11.240 -1.4123 -1.1477  2.0868
12984TIP3    H260444   6.233   5.757  11.134  0.3700  0.0648 -0.0475
12985TIP3   OH260445   4.463   5.170  15.175  0.0534  0.2819 -0.1708
12985TIP3    H160446   4.519   5.195  15.249  0.0540  0.4170 -0.2165
12985TIP3    H260447   4.419   5.251  15.150 -0.3536  0.1245  0.0234
12986TIP3   OH260448   2.692   3.497   6.041 -0.0017  0.0111  0.2016
12986TIP3    H160449   2.761   3.489   5.975  0.7126  3.2692  0.3513
12986TIP3    H260450   2.739   3.519   6.121 -1.0279 -1.4351  1.2370
12987TIP3   OH260451   2.192   6.267   0.079  0.6294  0.2152 -0.1360
12987TIP3    H160452   2.104   6.244   0.109  1.5180 -1.4044  1.4399
12987TIP3    H260453   2.212   6.349   0.124 -0.0688  0.6258 -0.5507
12988TIP3   OH260454   4.072   2.173  14.338  0.5685  0.0051 -0.6688
12988TIP3    H160455   4.023   2.159  14.419  0.7266  2.5012 -0.0606
12988TIP3    H260456   4.008   2.212  14.279  1.0620  0.4265 -0.9272
12989TIP3   OH260457   1.175   5.127  13.213  0.2727  0.6546  0.4802
12989TIP3    H160458   1.102   5.173  13.170  0.6209  2.1446  1.3936
12989TIP3    H260459   1.165   5.149  13.306 -0.9871 -3.2051  1.4151
12990TIP3   OH260460   3.526   6.592   1.732 -0.0214  0.9150  0.2111
12990TIP3    H160461   3.577   6.537   1.792  1.7528  1.2688 -0.9047
12990TIP3    H260462   3.443   6.546   1.721  0.6735 -0.5279  0.8260
12991TIP3   OH260463   3.664   1.559  15.780 -0.5622 -0.0692 -0.1317
12991TIP3    H160464   3.661   1.620  15.854 -1.7600  0.3165 -0.4662
12991TIP3    H260465   3.742   1.507  15.794 -0.2131  0.6959  0.8535
12992TIP3   OH260466   2.770   6.373   4.486 -0.6437 -0.5551  0.6347
12992TIP3    H160467   2.722   6.339   4.411  2.3871 -0.6454 -1.4275
12992TIP3    H260468   2.793   6.295   4.537  0.8282 -1.0223 -0.6619
12993TIP3   OH260469   6.055   4.733   3.417 -0.1836 -0.0278 -0.1974
12993TIP3    H160470   6.129   4.772   3.464 -0.7509  2.6704 -1.3314
12993TIP3    H260471   6.089   4.713   3.330 -0.5127  0.3095 -0.4091
12994TIP3   OH260472   5.113   5.845  12.546 -0.0371 -0.6625  0.3029
12994TIP3    H160473   5.138   5.838  12.454 -0.6344 -0.5057  0.1241
12994TIP3    H260474   5.194   5.831  12.595  0.3261 -0.4879 -0.2526
12995TIP3   OH260475   4.787   4.236  10.712  0.2255 -0.2982  0.0297
12995TIP3    H160476   4.843   4.275  10.779  0.6635 -0.6933 -0.1009
12995TIP3    H260477   4.817   4.145  10.705  0.1397 -0.2801 -0.6476
12996TIP3   OH260478   1.810   4.800  13.427  0.0962 -0.2786 -0.2390
12996TIP3    H160479   1.860   4.754  13.359  0.2043  2.1319 -1.9040
12996TIP3    H260480   1.856   4.780  13.508  1.8053 -0.8163 -1.2885
12997TIP3   OH260481   1.265   5.232  15.375 -0.0034  0.0026 -0.2403
12997TIP3    H160482   1.204   5.165  15.345 -0.4690  0.4805 -0.3815
12997TIP3    H260483   1.215   5.314  15.369  0.8421  0.4922 -0.9651
12998TIP3   OH260484   1.445   0.514   3.568 -0.0578 -0.2766  0.4093
12998TIP3    H160485   1.477   0.584   3.625 -0.6945  0.8571 -0.5958
12998TIP3    H260486   1.434   0.439   3.627  1.0166  0.3278  1.4284
12999TIP3   OH260487   3.807   4.915  14.422  0.2742 -0.3571  0.0669
12999TIP3    H160488   3.723   4.961  14.427 -0.3350 -1.3124 -0.9288
12999TIP3    H260489   3.818   4.893  14.330  0.2052 -2.7437  0.5370
13000TIP3   OH260490   3.400   3.849   4.048 -0.2179 -0.1394  0.2789
13000TIP3    H160491   3.461   3.922   4.034 -0.2741 -0.3320 -1.1144
13000TIP3    H260492   3.314   3.890   4.056 -0.0682  0.0444  1.0019
13001TIP3   OH260493   6.083   4.014   4.045  0.0018  0.0055 -0.0034
13001TIP3    H160494   6.048   4.050   3.964 -0.3657 -1.1764 -0.3787
13001TIP3    H260495   6.017   3.952   4.076  0.0074  0.6393  1.3590
13002TIP3   OH260496   4.854   0.811   2.068 -0.2682 -0.0180 -0.2058
13002TIP3    H160497   4.782   0.816   2.131 -0.2633 -0.0118 -0.2005
13002TIP3    H260498   4.883   0.901   2.058  1.0687 -0.2443  1.3211
13003TIP3   OH260499   1.739   2.244  12.312 -0.5306 -0.2537 -0.5921
13003TIP3    H160500   1.815   2.236  12.254 -0.5904  0.2471 -0.7445
13003TIP3    H260501   1.761   2.190  12.388 -0.6972 -1.3826 -1.3340
13004TIP3   OH260502   6.108   6.541   0.910 -0.4413 -0.0712  0.6860
13004TIP3    H160503   6.203   6.534   0.921 -0.2879  3.1865  2.5842
13004TIP3    H260504   6.092   6.505   0.823  2.6879  0.2247 -0.1485
13005TIP3   OH260505   1.362   0.586  13.423  0.2064 -0.1184 -0.0644
13005TIP3    H160506   1.398   0.635  13.497  0.5038  0.6112 -0.6776
13005TIP3    H260507   1.394   0.633  13.346 -0.5722 -0.5368 -0.6484
13006TIP3   OH260508   3.986   6.063   3.350  0.2777  0.3813  0.4382
13006TIP3    H160509   3.986   6.149   3.307 -1.9471  0.2359  0.0396
13006TIP3    H260510   3.983   6.000   3.279  2.9829 -0.1332  0.6942
13007TIP3   OH260511   4.388   4.826   2.002  0.0854  0.4881 -0.3674
13007TIP3    H160512   4.419   4.763   1.937  0.9166  0.6779 -0.1745
13007TIP3    H260513   4.465   4.880   2.020 -0.8329  2.1255 -1.1729
13008TIP3   OH260514   5.387   0.125   3.112 -0.4451  0.1128  0.1883
13008TIP3    H160515   5.482   0.114   3.115 -0.5678 -0.8580  1.9630
13008TIP3    H260516   5.370   0.198   3.172 -0.8105  0.5865 -0.4693
13009TIP3   OH260517   4.873   0.356  11.714  0.4888  0.2066 -0.2720
13009TIP3    H160518   4.922   0.345  11.795 -0.9959 -1.4223  0.4858
13009TIP3    H260519   4.782   0.335  11.738 -0.5076  2.4564 -1.7400
13010TIP3   OH260520   3.552   5.340   6.459  0.2075  0.1852 -0.3435
13010TIP3    H160521   3.546   5.290   6.377  2.0046 -0.2100 -0.2669
13010TIP3    H260522   3.539   5.274   6.528 -2.5830  0.7091 -0.2448
13011TIP3   OH260523   5.090   3.985   3.118  0.3410 -0.2146  0.6334
13011TIP3    H160524   5.002   3.973   3.084  0.3154 -1.4509  1.0865
13011TIP3    H260525   5.146   3.986   3.040 -0.0649  0.5680  0.3488
13012TIP3   OH260526   0.798   4.033   6.168  0.8432  0.2347 -0.1669
13012TIP3    H160527   0.835   3.950   6.198 -0.3750 -0.5156 -0.6591
13012TIP3    H260528   0.786   4.021   6.074 -0.3588  0.5348 -0.0710
13013TIP3   OH260529   1.776   3.511  11.859 -0.7711  0.7766  0.4207
13013TIP3    H160530   1.814   3.427  11.885 -1.9224  0.8015  2.3772
13013TIP3    H260531   1.780   3.510  11.763 -0.5198 -1.3874  0.3895
13014TIP3   OH260532   3.006   6.001   0.758 -0.0327  0.6067  0.5278
13014TIP3    H160533   3.096   6.026   0.779 -0.2845  1.5946  0.4775
13014TIP3    H260534   2.952   6.067   0.801 -0.7837 -0.4321  1.2439
13015TIP3   OH260535   3.072   1.814   0.691 -0.1177  0.2393 -0.0428
13015TIP3    H160536   3.141   1.803   0.757  0.8952  0.2527 -1.0588
13015TIP3    H260537   3.083   1.739   0.633 -0.1642  0.8878 -0.9058
13016TIP3   OH260538   5.751   5.622   1.435  0.2993 -0.2591  0.0525
13016TIP3    H160539   5.776   5.541   1.480  0.8816 -0.8703 -1.3108
13016TIP3    H260540   5.666   5.602   1.397  0.6128 -0.3636 -0.5977
13017TIP3   OH260541   4.859   3.298  14.601 -0.2478 -0.2162 -1.2733
13017TIP3    H160542   4.828   3.213  14.634 -0.7252 -0.4976 -2.3802
13017TIP3    H260543   4.782   3.336  14.558  0.2913  0.2222 -1.8580
13018TIP3   OH260544   3.180   3.256  13.920 -0.3404  0.5888  0.2085
13018TIP3    H160545   3.234   3.181  13.894 -0.8717  0.8361 -1.7169
13018TIP3    H260546   3.225   3.292  13.997  1.8797  0.3684 -0.9143
13019TIP3   OH260547   5.175   3.334   3.620 -0.4946 -0.0015  0.1401
13019TIP3    H160548   5.231   3.322   3.543  0.2192 -0.0966  0.6652
13019TIP3    H260549   5.166   3.246   3.657  0.1698  0.2141  0.8457
13020TIP3   OH260550   5.248   5.325   3.324 -0.2136 -0.5860  0.3059
13020TIP3    H160551   5.160   5.315   3.289  0.1778 -0.6756 -0.7054
13020TIP3    H260552   5.300   5.354   3.249  0.5243 -0.0837  1.0006
13021TIP3   OH260553   3.542   4.202   2.186 -0.2167  0.1090 -0.0829
13021TIP3    H160554   3.475   4.254   2.141  0.5384 -0.9892 -2.6454
13021TIP3    H260555   3.622   4.254   2.176 -0.4196  0.8996  2.0215
13022TIP3   OH260556   3.022   2.271   5.933  0.0599  0.0788  0.3952
13022TIP3    H160557   3.102   2.264   5.985  1.0790 -0.6862 -1.1869
13022TIP3    H260558   2.951   2.267   5.997  1.2361 -1.4887  1.6725
13023TIP3   OH260559   0.204   2.193   0.175  0.1429 -0.7387  0.2944
13023TIP3    H160560   0.146   2.157   0.243  0.8919 -3.5753 -0.4059
13023TIP3    H260561   0.149   2.195   0.096  0.1958 -0.6583  0.2599
13024TIP3   OH260562   0.937   5.404  10.628 -0.1015  0.3873 -0.3515
13024TIP3    H160563   1.011   5.426  10.571 -0.0784 -0.9418 -0.8723
13024TIP3    H260564   0.953   5.454  10.708 -0.5219  2.8852 -1.7171
13025TIP3   OH260565   2.531   0.652  11.547 -0.1017  0.0781 -0.0233
13025TIP3    H160566   2.521   0.600  11.627  0.6089 -1.5283 -0.9305
13025TIP3    H260567   2.464   0.720  11.554 -0.9358 -0.8378  1.3163
13026TIP3   OH260568   4.847   6.296   3.374  0.4623 -0.1330 -0.0115
13026TIP3    H160569   4.922   6.324   3.321  0.8282  1.7096  1.3668
13026TIP3    H260570   4.885   6.241   3.442  0.2531 -0.9696 -0.5672
13027TIP3   OH260571   2.967   3.313  13.377  0.0804 -0.3559  0.4276
13027TIP3    H160572   2.898   3.379  13.387  1.3915  1.0581  0.4197
13027TIP3    H260573   2.996   3.322  13.287 -0.2143 -1.4646  0.2096
13028TIP3   OH260574   1.891   4.589  11.550  0.4777  0.4162 -0.0325
13028TIP3    H160575   1.891   4.652  11.621  0.2082  0.3806 -0.0022
13028TIP3    H260576   1.809   4.605  11.502 -0.3009 -0.8555  0.8178
13029TIP3   OH260577   4.400   1.578  13.191  0.6413  0.1292 -0.2809
13029TIP3    H160578   4.309   1.575  13.221  0.9688  0.2312  0.7651
13029TIP3    H260579   4.442   1.640  13.250  1.3749  0.1761 -0.8375
13030TIP3   OH260580   5.449   2.144   2.014  0.5312 -0.1274  0.0591
13030TIP3    H160581   5.393   2.082   1.966 -1.1280  0.8314  0.6836
13030TIP3    H260582   5.538   2.113   1.997 -0.1345 -1.3582 -1.4686
13031TIP3   OH260583   6.154   6.618   4.268 -0.4934 -0.0009  0.2686
13031TIP3    H160584   6.246   6.640   4.252 -0.9008  1.7246  0.0659
13031TIP3    H260585   6.149   6.524   4.251  0.6791  0.3286 -2.5387
13032TIP3   OH260586   3.127   6.518  17.010  0.8330  0.2154 -0.1661
13032TIP3    H160587   3.198   6.470  16.969  0.9499 -0.4775  0.7976
13032TIP3    H260588   3.048   6.470  16.986  0.6220  1.1867 -1.5300
13033TIP3   OH260589   4.192   2.306  10.987  0.0097 -0.2704  0.6331
13033TIP3    H160590   4.146   2.314  11.071  1.5556  1.3069  1.4007
13033TIP3    H260591   4.127   2.269  10.927 -2.3330  1.9892  1.5903
13034TIP3   OH260592   5.960   3.170  16.584 -0.2203 -0.4662  0.0768
13034TIP3    H160593   5.952   3.236  16.514 -1.2563 -0.7790 -0.1221
13034TIP3    H260594   6.048   3.183  16.618  0.6203 -0.8083 -1.8032
13035TIP3   OH260595   1.541   6.284   4.514  0.1018 -0.1585 -0.6448
13035TIP3    H160596   1.527   6.370   4.553 -0.6119 -0.3009 -0.5850
13035TIP3    H260597   1.591   6.236   4.580  1.0380  0.4001 -0.9257
13036TIP3   OH260598   6.071   6.499   4.739  0.0963  0.0267 -0.1113
13036TIP3    H160599   5.997   6.502   4.799 -0.3014 -0.9523 -0.5176
13036TIP3    H260600   6.048   6.560   4.669  0.2586  0.6692  0.3877
13037TIP3   OH260601   3.642   3.428   6.252  0.3281 -0.3355 -0.4947
13037TIP3    H160602   3.652   3.400   6.343  2.3819  0.2238 -0.5010
13037TIP3    H260603   3.555   3.467   6.248 -1.4560 -3.7938  0.2594
13038TIP3   OH260604   1.376   1.463  16.511 -0.5832  1.1635 -0.2435
13038TIP3    H160605   1.320   1.407  16.457 -0.2888  0.5852  0.0328
13038TIP3    H260606   1.447   1.489  16.452 -1.1029  1.8622 -0.5814
13039TIP3   OH260607   6.447   2.169  14.276 -0.3075  0.4276  0.1469
13039TIP3    H160608   6.449   2.133  14.188 -0.0247  1.5271 -0.3213
13039TIP3    H260609   6.524   2.132  14.319 -0.5334 -0.2357 -0.0191
13040TIP3   OH260610   2.239   0.142   2.542 -0.2412  0.2444  0.2921
13040TIP3    H160611   2.317   0.102   2.580 -0.0118  0.8035  0.4265
13040TIP3    H260612   2.243   0.121   2.449  1.7392  2.8437 -0.3132
13041TIP3   OH260613   6.355   1.368  16.858 -0.0930  0.1413  0.2050
13041TIP3    H160614   6.320   1.310  16.926 -0.1898 -1.2800 -0.9820
13041TIP3    H260615   6.435   1.404  16.895 -1.5464  1.6468  2.1111
13042TIP3   OH260616   1.475   1.385   0.921  0.2751  0.5012  0.0846
13042TIP3    H160617   1.461   1.406   0.829  2.2707  0.6080 -0.2407
13042TIP3    H260618   1.498   1.292   0.921  1.0073  0.6775  0.3748
13043TIP3   OH260619   3.873   1.592  15.996  0.1252 -0.1183 -0.4464
13043TIP3    H160620   3.924   1.615  16.074 -2.3501 -0.4558  1.4340
13043TIP3    H260621   3.782   1.597  16.026 -0.8683 -2.4471 -2.7402
13044TIP3   OH260622   1.603   3.373  15.248  0.5273 -0.2453 -0.4437
13044TIP3    H160623   1.683   3.333  15.283  0.2459 -1.7943 -1.4388
13044TIP3    H260624   1.551   3.394  15.325  2.0163  1.1032  0.2367
13045TIP3   OH260625   5.832   5.507   2.761 -0.1397 -0.4842  0.4291
13045TIP3    H160626   5.872   5.511   2.674  0.3835  0.7777  0.7000
13045TIP3    H260627   5.877   5.574   2.811 -2.8666  1.4053  0.6168
13046TIP3   OH260628   3.962   0.337   5.134 -0.7069 -0.3427  0.2900
13046TIP3    H160629   3.922   0.404   5.078  0.6466  0.3568  0.1135
13046TIP3    H260630   3.908   0.336   5.213 -0.9456  0.7472  0.1538
13047TIP3   OH260631   6.778   6.245   4.612 -0.0865  0.3369 -0.2833
13047TIP3    H160632   6.699   6.197   4.589 -0.6556  1.0087  0.2118
13047TIP3    H260633   6.844   6.215   4.549 -0.1986 -1.6261  0.4555
13048TIP3   OH260634   1.093   0.300   3.583  0.0843  0.1036  0.2270
13048TIP3    H160635   1.157   0.338   3.522 -0.2124  0.6877  0.2720
13048TIP3    H260636   1.011   0.300   3.534 -0.6289  2.5064  1.2858
13049TIP3   OH260637   0.195   4.381   3.847 -1.0409 -0.4007  0.0245
13049TIP3    H160638   0.172   4.473   3.830 -0.3145 -0.2139  0.0353
13049TIP3    H260639   0.124   4.331   3.807 -0.2692  0.0745 -2.0173
13050TIP3   OH260640   4.599   2.560  14.549  0.1047  0.0840 -0.7356
13050TIP3    H160641   4.564   2.560  14.460 -0.3344  0.0637 -0.5625
13050TIP3    H260642   4.650   2.479  14.555 -1.4667 -0.9046 -0.3431
13051TIP3   OH260643   1.406   0.560  12.163 -0.1112 -0.0456  0.0686
13051TIP3    H160644   1.310   0.552  12.166 -0.2528  1.3535  0.0020
13051TIP3    H260645   1.432   0.499  12.094 -1.3869  2.4054 -2.8446
13052TIP3   OH260646   0.493   1.569  17.208  0.0054  0.0220  0.2643
13052TIP3    H160647   0.420   1.509  17.217  1.4895 -1.7815  0.8716
13052TIP3    H260648   0.482   1.631  17.280 -2.0913  1.1943 -0.9629
13053TIP3   OH260649   0.199   4.574   4.257  0.5586  0.3150 -0.1755
13053TIP3    H160650   0.117   4.586   4.303  0.8926 -1.2573  0.9019
13053TIP3    H260651   0.183   4.500   4.198  1.1368  0.1203 -0.0953
13054TIP3   OH260652   3.076   3.564   4.535 -0.2373  0.2976 -0.6942
13054TIP3    H160653   3.049   3.473   4.542  1.6953 -0.3585 -1.1675
13054TIP3    H260654   3.146   3.564   4.470  0.9792  1.8414  0.5292
13055TIP3   OH260655   3.669   3.245   1.286 -0.6219 -0.3866  0.1669
13055TIP3    H160656   3.687   3.315   1.224  1.4118 -0.9915  0.0003
13055TIP3    H260657   3.737   3.180   1.270 -0.7270 -1.0943  2.2298
13056TIP3   OH260658   5.623   0.171  10.857 -0.2123  0.2849  0.7571
13056TIP3    H160659   5.713   0.186  10.886 -0.2339  1.3186  0.3321
13056TIP3    H260660   5.632   0.134  10.769 -0.1906 -1.0048  1.2747
13057TIP3   OH260661   2.525   0.073  14.905 -0.4786  0.0879  0.2887
13057TIP3    H160662   2.440   0.037  14.929 -0.7203  0.5205  0.0961
13057TIP3    H260663   2.564   0.101  14.988 -0.2630 -0.6624  0.4439
13058TIP3   OH260664   5.216   5.296   0.688  0.4480 -0.1986 -0.6134
13058TIP3    H160665   5.278   5.272   0.619  0.6793 -1.1123 -0.1119
13058TIP3    H260666   5.166   5.368   0.651  1.6329  0.3925 -1.1284
13059TIP3   OH260667   2.276   1.480   3.399  0.1403  0.1527 -0.2465
13059TIP3    H160668   2.339   1.482   3.471 -0.6311 -0.9394  0.4910
13059TIP3    H260669   2.205   1.537   3.427 -0.1066 -0.1805 -0.1799
13060TIP3   OH260670   6.375   2.124  13.986 -0.5537 -0.4282 -0.3097
13060TIP3    H160671   6.365   2.213  13.952  0.7306 -0.9150 -2.1062
13060TIP3    H260672   6.285   2.096  14.005 -1.0289  1.0282 -0.2689
13061TIP3   OH260673   2.587   1.813  16.153 -0.0505 -0.2488  0.6239
13061TIP3    H160674   2.492   1.809  16.151 -0.0245 -0.6471 -0.4757
13061TIP3    H260675   2.607   1.896  16.195 -0.8838 -0.0125  0.5613
13062TIP3   OH260676   6.793   0.735   2.693  0.0058 -0.2666  0.4742
13062TIP3    H160677   6.798   0.754   2.787 -0.9492 -0.5862  0.6045
13062TIP3    H260678   6.700   0.745   2.672  0.5064  2.0142 -0.9306
13063TIP3   OH260679   2.197   3.659   0.078 -0.2477 -0.0203 -0.4248
13063TIP3    H160680   2.107   3.632   0.097 -0.9931  1.1309 -2.1375
13063TIP3    H260681   2.227   3.598   0.011  0.3659 -0.5426  0.2989
13064TIP3   OH260682   1.252   6.444  12.710 -0.7087 -0.1036  0.0691
13064TIP3    H160683   1.332   6.494  12.722 -0.9115 -0.0794  1.5619
13064TIP3    H260684   1.184   6.497  12.753 -1.3222 -0.6391 -0.2138
13065TIP3   OH260685   3.984   2.716  12.146 -0.2959  0.2412 -0.4299
13065TIP3    H160686   3.889   2.720  12.159 -0.4018  0.6312 -1.2379
13065TIP3    H260687   4.006   2.624  12.157 -0.7992  0.1228 -0.3935
13066TIP3   OH260688   1.607   4.768  11.775  0.0441 -0.2138 -0.2320
13066TIP3    H160689   1.627   4.674  11.772  0.3047 -0.1808  0.2584
13066TIP3    H260690   1.630   4.800  11.688  1.3087 -0.3509  0.0256
13067TIP3   OH260691   1.156   1.575   0.664 -0.0439 -0.4470 -0.1498
13067TIP3    H160692   1.083   1.519   0.692  0.0911 -0.6497 -0.2004
13067TIP3    H260693   1.207   1.590   0.743  0.2241 -0.8512 -0.2386
13068TIP3   OH260694   0.304   3.450  10.991 -0.2201 -0.1087 -0.1884
13068TIP3    H160695   0.373   3.507  10.956  1.0731 -1.8849 -0.6484
13068TIP3    H260696   0.297   3.379  10.928 -1.1375 -0.9433  0.8123
13069TIP3   OH260697   2.658   5.479   3.964 -0.4583  0.1499  0.3926
13069TIP3    H160698   2.748   5.453   3.944 -0.4894  0.1316  0.2746
13069TIP3    H260699   2.630   5.420   4.034  0.2245  1.2893  1.6818
13070TIP3   OH260700   0.387   2.041   1.763 -0.2967  0.4956  0.0592
13070TIP3    H160701   0.411   2.105   1.696  1.0721  0.8917  0.8962
13070TIP3    H260702   0.400   2.087   1.846 -0.3409 -0.5130  0.6367
13071TIP3   OH260703   4.966   4.387   3.391  0.2072  0.1702 -0.0686
13071TIP3    H160704   4.949   4.357   3.302  0.2852  0.5531 -0.2134
13071TIP3    H260705   5.020   4.319   3.430 -1.8586 -1.2382  0.5029
13072TIP3   OH260706   1.637   4.628   3.669 -0.4084  0.2796  0.0299
13072TIP3    H160707   1.584   4.549   3.659  0.3419 -0.5728  2.1120
13072TIP3    H260708   1.691   4.610   3.746  2.4548  1.3411 -1.5811
13073TIP3   OH260709   0.082   6.709  11.520 -0.2754 -0.7434 -0.0854
13073TIP3    H160710   0.095   6.767  11.595  0.6878 -0.6343 -0.3259
13073TIP3    H260711  -0.009   6.723  11.494 -0.0665  0.6622 -0.1390
13074TIP3   OH260712   6.338   4.953   3.780  0.4467  0.5816 -0.0805
13074TIP3    H160713   6.385   4.869   3.776  3.1701  1.8990  1.6185
13074TIP3    H260714   6.270   4.938   3.846  1.9886  0.1211  1.4929
13075TIP3   OH260715   4.667   5.331  16.779  0.3435 -0.2592 -0.1443
13075TIP3    H160716   4.578   5.334  16.814  0.5767  1.1764  0.3660
13075TIP3    H260717   4.684   5.237  16.767 -0.5754 -0.6754  1.4517
13076TIP3   OH260718   1.428   5.976  11.703  0.4146 -0.1145 -0.6282
13076TIP3    H160719   1.475   5.965  11.786  0.9365 -0.2088 -0.9391
13076TIP3    H260720   1.484   5.936  11.637 -0.3314 -0.6944 -0.9333
13077TIP3   OH260721   1.171   0.201   1.009  0.0954  0.1098  0.1534
13077TIP3    H160722   1.225   0.160   1.076 -0.7014 -0.2060  0.6093
13077TIP3    H260723   1.143   0.128   0.953  0.7285  0.3647 -0.5167
13078TIP3   OH260724   1.347   2.895  13.160 -0.1272 -0.0526  0.0647
13078TIP3    H160725   1.418   2.918  13.220 -0.8795  2.1255  0.2052
13078TIP3    H260726   1.273   2.876  13.218  0.3071 -2.4739 -0.0743
13079TIP3   OH260727   5.620   6.293   4.772 -0.3615 -0.5166  0.2656
13079TIP3    H160728   5.651   6.234   4.703  1.2225  0.9397 -0.3580
13079TIP3    H260729   5.664   6.263   4.851  0.4842 -0.1881 -0.0614
13080TIP3   OH260730   3.848   0.815  12.341  0.7457  0.2192  0.1356
13080TIP3    H160731   3.853   0.872  12.418 -1.3084  2.7239 -1.4197
13080TIP3    H260732   3.789   0.744  12.366 -1.1503  1.8400  0.5038
13081TIP3   OH260733   3.318   2.357  12.291  0.5446  0.4648  0.3603
13081TIP3    H160734   3.314   2.443  12.248  1.5391  0.4327  0.1819
13081TIP3    H260735   3.411   2.343  12.309  0.2512 -0.0068  1.5679
13082TIP3   OH260736   1.834   5.052  13.910 -0.0717  0.4571 -0.4434
13082TIP3    H160737   1.758   5.034  13.965 -0.9275  2.4533 -0.9006
13082TIP3    H260738   1.800   5.106  13.839  1.6425  0.7546 -1.0820
13083TIP3   OH260739   5.857   6.453   2.797  0.0626 -0.0105  0.0579
13083TIP3    H160740   5.936   6.480   2.844  0.3558  0.0294 -0.4506
13083TIP3    H260741   5.875   6.362   2.773 -0.9313 -0.7116  1.8001
13084TIP3   OH260742   2.141   1.031   6.402  0.4044 -0.6256 -0.4862
13084TIP3    H160743   2.192   1.041   6.322  1.6210 -0.1299  0.3200
13084TIP3    H260744   2.166   1.106   6.455  0.4330 -1.5120  0.7888
13085TIP3   OH260745   2.853   3.569  12.564 -0.1404  0.5048  0.3718
13085TIP3    H160746   2.853   3.478  12.591  1.5409  0.3234 -0.1358
13085TIP3    H260747   2.803   3.570  12.482 -1.0077  0.2270  0.8880
13086TIP3   OH260748   0.409   4.559   4.006 -0.3769  0.9083 -0.0689
13086TIP3    H160749   0.356   4.494   3.959 -0.0327  2.4283 -2.8200
13086TIP3    H260750   0.348   4.631   4.023 -0.0592  1.1446  0.0811
13087TIP3   OH260751   6.796   3.820   5.922  0.9311 -0.2084  0.3511
13087TIP3    H160752   6.720   3.763   5.907  1.6324 -0.5866 -2.3219
13087TIP3    H260753   6.770   3.904   5.884  1.9972 -0.4942 -1.0648
13088TIP3   OH260754   6.527   0.941  15.107  0.1051 -0.6111  0.0571
13088TIP3    H160755   6.465   1.005  15.071  1.5374 -0.0661 -1.5991
13088TIP3    H260756   6.509   0.860  15.059  0.3670 -0.5779 -0.0979
13089TIP3   OH260757   0.133   1.057   5.090  0.5397  0.0891  0.2658
13089TIP3    H160758   0.135   1.022   5.180  1.6007 -0.7312 -0.0581
13089TIP3    H260759   0.224   1.080   5.072  0.3654  0.0392 -0.6841
13090TIP3   OH260760   5.653   1.258   1.397 -0.8055 -0.4007  0.0231
13090TIP3    H160761   5.747   1.260   1.414 -0.7371 -0.9846 -0.2642
13090TIP3    H260762   5.617   1.325   1.455 -0.0172  1.0800 -1.1166
13091TIP3   OH260763   5.345   5.040   1.251 -0.4951 -0.4142  0.1326
13091TIP3    H160764   5.334   5.130   1.281  0.9926 -0.2030  0.1324
13091TIP3    H260765   5.301   5.038   1.166 -2.7038 -0.3891  1.2270
13092TIP3   OH260766   4.201   4.206  16.479 -0.0322 -0.2728 -0.1697
13092TIP3    H160767   4.181   4.193  16.387 -1.5178 -0.3008  0.1295
13092TIP3    H260768   4.230   4.120  16.510  2.3800  0.1635 -1.0059
13093TIP3   OH260769   3.013   3.384   6.558  0.0346  0.0175  0.1100
13093TIP3    H160770   3.091   3.406   6.609 -0.3151  1.0108  0.2420
13093TIP3    H260771   2.986   3.467   6.519 -1.7741  0.0111  1.2217
13094TIP3   OH260772   5.130   6.801  12.338 -0.3507  0.4546 -0.6185
13094TIP3    H160773   5.089   6.874  12.383  0.9302  0.8761 -0.0666
13094TIP3    H260774   5.058   6.745  12.311 -1.3645  1.9047 -1.0452
13095TIP3   OH260775   4.201   5.184  13.951  0.2853 -0.2350  0.1086
13095TIP3    H160776   4.277   5.242  13.949  0.0569  0.0573 -0.8986
13095TIP3    H260777   4.183   5.170  14.044  1.0124  0.4232  0.3575
13096TIP3   OH260778   3.964   1.820  17.117  0.4130  0.2115  0.3147
13096TIP3    H160779   3.974   1.795  17.025 -0.4148 -1.1617  0.5667
13096TIP3    H260780   4.054   1.826  17.149  0.6943 -0.4833 -0.2925
13097TIP3   OH260781   1.790   2.077  10.435 -0.4428  0.2001  0.4706
13097TIP3    H160782   1.722   2.029  10.388 -1.1957  0.9470  0.7728
13097TIP3    H260783   1.831   2.012  10.491 -0.4911 -0.3917 -0.1740
13098TIP3   OH260784   6.128   4.966   4.565  0.1207  0.0919 -0.1504
13098TIP3    H160785   6.040   4.952   4.531 -0.2983 -0.1913  1.0059
13098TIP3    H260786   6.124   4.936   4.656  1.6869 -0.9233 -0.3720
13099TIP3   OH260787   5.042   6.412   1.156  0.0534  0.3263 -0.2320
13099TIP3    H160788   4.992   6.492   1.144 -0.4636 -0.0653 -0.7822
13099TIP3    H260789   5.085   6.422   1.241 -1.3145  0.4967  0.4567
13100TIP3   OH260790   0.872   3.422  14.747  0.2537  0.1879  0.3063
13100TIP3    H160791   0.824   3.340  14.740  0.5680  0.0879 -1.2394
13100TIP3    H260792   0.900   3.441  14.657  1.7458  1.0509  0.9034
13101TIP3   OH260793   5.318   5.677   2.483  0.3092  0.2347 -0.4044
13101TIP3    H160794   5.274   5.686   2.399 -0.5538  1.9612  0.1940
13101TIP3    H260795   5.256   5.711   2.547  1.9507  1.4818  0.6253
13102TIP3   OH260796   5.429   4.409  17.196  0.6612  0.4685  0.0546
13102TIP3    H160797   5.454   4.487  17.146  1.5881  0.5914  0.6743
13102TIP3    H260798   5.498   4.400  17.262 -0.3392  0.1203  1.0930
13103TIP3   OH260799   0.318   0.648   5.068 -0.3526 -0.3754  0.0924
13103TIP3    H160800   0.326   0.590   4.992 -0.1080 -0.3944  0.1312
13103TIP3    H260801   0.317   0.588   5.143  0.6236 -0.3003  0.1799
13104TIP3   OH260802   4.650   6.558   5.248 -0.5039 -0.1391  0.2449
13104TIP3    H160803   4.729   6.601   5.282 -0.7460 -0.2809  1.0064
13104TIP3    H260804   4.588   6.629   5.235 -0.9953 -0.2586  1.7586
13105TIP3   OH260805   2.654   5.393  12.242  0.2672 -0.3185 -0.2009
13105TIP3    H160806   2.730   5.428  12.196  0.1938  1.3102  0.8431
13105TIP3    H260807   2.657   5.433  12.329 -2.6870  1.1804 -0.6562
13106TIP3   OH260808   3.078   4.200   6.209 -0.4593 -0.1979  0.6130
13106TIP3    H160809   3.154   4.182   6.265 -1.4159 -0.2459  1.9539
13106TIP3    H260810   3.004   4.166   6.259 -1.3204 -0.5965 -0.8934
13107TIP3   OH260811   5.019   3.884  17.187  0.1860 -1.0109 -0.0101
13107TIP3    H160812   5.006   3.977  17.170 -0.4569 -1.4542 -2.3564
13107TIP3    H260813   4.961   3.864  17.260  0.9520  0.5655  1.0781
13108TIP3   OH260814   6.112   3.566   5.422 -0.4005 -0.5114  0.6457
13108TIP3    H160815   6.204   3.544   5.436 -0.6372 -0.9872  1.4965
13108TIP3    H260816   6.111   3.662   5.422  0.1536 -0.4975  0.1973
13109TIP3   OH260817   5.143   6.707   4.315  0.1580  0.2008 -0.1009
13109TIP3    H160818   5.221   6.755   4.344 -0.2357  1.5736 -1.2294
13109TIP3    H260819   5.125   6.646   4.387  0.5527  1.8970  1.5008
13110TIP3   OH260820   4.079   4.504   3.034  0.1260  0.1637  0.2488
13110TIP3    H160821   4.108   4.501   3.125  1.2891  1.6860 -0.0469
13110TIP3    H260822   4.066   4.412   3.010 -1.5502 -0.2398  2.3342
13111TIP3   OH260823   6.747   5.326  13.760 -0.6423 -0.2245 -0.3829
13111TIP3    H160824   6.762   5.242  13.804  0.5914  0.2725  0.1803
13111TIP3    H260825   6.834   5.355  13.733 -1.0486  0.8984 -0.5422
13112TIP3   OH260826   3.080   3.974  10.463  0.1282  0.2374 -0.1559
13112TIP3    H160827   3.029   3.914  10.517  0.0775 -2.5216 -2.9336
13112TIP3    H260828   3.015   4.020  10.410  0.2801 -0.3157 -0.8549
13113TIP3   OH260829   4.082   3.128   1.547  0.7530 -0.1561  0.0609
13113TIP3    H160830   4.076   3.168   1.461 -0.2437  0.4144  0.3788
13113TIP3    H260831   4.162   3.075   1.544 -0.5210 -2.1213 -2.0141
13114TIP3   OH260832   3.927   6.686  11.089  0.5847 -0.4390  0.0693
13114TIP3    H160833   3.847   6.692  11.036  1.0179 -1.9244 -0.8023
13114TIP3    H260834   3.968   6.605  11.062  1.9196 -0.1874  1.2084
13115TIP3   OH260835   4.278   5.305  16.203  0.2458 -0.1231  0.6755
13115TIP3    H160836   4.219   5.376  16.180  0.6705 -0.0653 -0.3120
13115TIP3    H260837   4.232   5.225  16.177 -0.2755 -0.2265  1.8825
13116TIP3   OH260838   0.315   5.899  14.116 -0.3994  0.0825 -0.4203
13116TIP3    H160839   0.349   5.886  14.204 -0.9818 -1.1615 -0.3554
13116TIP3    H260840   0.223   5.921  14.128 -0.7976 -1.2974 -0.7263
13117TIP3   OH260841   3.390   0.886   0.005  0.2031  0.2243 -0.1836
13117TIP3    H160842   3.359   0.949   0.070 -2.4035  0.1132 -1.2244
13117TIP3    H260843   3.422   0.812   0.057 -2.6859 -0.2728  1.0493
13118TIP3   OH260844   1.410   5.133   6.199  0.4960  0.1650 -0.4463
13118TIP3    H160845   1.454   5.098   6.276  0.6004 -0.5309 -0.8206
13118TIP3    H260846   1.319   5.105   6.209  0.6365 -0.4690 -0.8862
13119TIP3   OH260847   5.864   5.280  16.452 -0.4801  0.4111 -0.5158
13119TIP3    H160848   5.896   5.191  16.465 -0.1285  0.6623  0.3963
13119TIP3    H260849   5.859   5.289  16.357  1.1439 -0.0176 -0.6801
13120TIP3   OH260850   0.878   6.438  17.231 -0.1462  0.8991 -0.0783
13120TIP3    H160851   0.803   6.477  17.276 -1.4559  0.5035 -1.8243
13120TIP3    H260852   0.914   6.376  17.295 -0.6914  1.7864  1.1384
13121TIP3   OH260853   0.355   4.513  12.579 -0.0692 -1.2234 -0.7580
13121TIP3    H160854   0.341   4.593  12.528 -0.5294 -1.3067 -0.7666
13121TIP3    H260855   0.449   4.496  12.572  0.1720 -0.2467 -0.0940
13122TIP3   OH260856   5.376   5.218   1.474  0.5691  0.0044  0.7561
13122TIP3    H160857   5.324   5.216   1.554  2.3029 -1.6661  1.9221
13122TIP3    H260858   5.457   5.173   1.497  0.7905 -1.2987 -2.1750
13123TIP3   OH260859   2.514   2.241   0.895  0.4998 -0.5598  0.9430
13123TIP3    H160860   2.556   2.298   0.959  0.2694 -0.0789  0.6735
13123TIP3    H260861   2.485   2.165   0.946 -0.3427  0.1512  1.5699
13124TIP3   OH260862   4.041   5.092  15.035  0.3073  0.0185  1.0093
13124TIP3    H160863   3.995   5.171  15.063 -1.1092 -0.1040 -0.8066
13124TIP3    H260864   3.972   5.029  15.014  1.2736 -0.5218 -0.8192
13125TIP3   OH260865   4.344   4.148  14.499  0.1325  0.0934 -0.7885
13125TIP3    H160866   4.312   4.182  14.416  0.3012  1.0828 -0.4603
13125TIP3    H260867   4.265   4.126  14.549 -0.0621  1.8711 -0.2487
13126TIP3   OH260868   1.533   0.408  15.719 -0.7606  0.0403  0.1661
13126TIP3    H160869   1.584   0.377  15.644 -2.1697 -1.3696 -0.2441
13126TIP3    H260870   1.597   0.455  15.772  0.3104  1.0017 -1.8365
13127TIP3   OH260871   1.693   4.840  16.224  0.3183  0.2520 -0.6201
13127TIP3    H160872   1.636   4.915  16.205 -0.2134 -0.4219 -1.7571
13127TIP3    H260873   1.636   4.778  16.269  0.4246  0.0043 -0.8270
13128TIP3   OH260874   3.435   5.087  17.010  0.4101  0.3293 -0.6488
13128TIP3    H160875   3.469   5.147  17.076  0.3538  1.3566 -1.5213
13128TIP3    H260876   3.499   5.016  17.006 -0.7212 -0.9615  2.0969
13129TIP3   OH260877   3.562   4.835   0.546  0.0242  0.0674 -0.0299
13129TIP3    H160878   3.558   4.837   0.450 -1.4694 -1.2066 -0.0522
13129TIP3    H260879   3.633   4.775   0.566  0.9488  1.0508 -0.3101
13130TIP3   OH260880   3.624   2.749  16.439 -0.5666  0.0710 -0.1302
13130TIP3    H160881   3.649   2.658  16.447 -0.9543  0.0019  0.4094
13130TIP3    H260882   3.574   2.754  16.357  0.1012 -0.0387 -0.5510
13131TIP3   OH260883   5.985   5.665  15.547 -0.5630 -0.7410 -0.1569
13131TIP3    H160884   5.903   5.712  15.565  0.5572  0.2349  3.3265
13131TIP3    H260885   5.959   5.573  15.539 -2.2071 -0.2008 -1.6406
13132TIP3   OH260886   5.476   2.662   0.406 -0.1707 -0.6126 -0.0079
13132TIP3    H160887   5.550   2.667   0.468 -0.2611 -1.4369  0.1752
13132TIP3    H260888   5.512   2.696   0.324  0.8464 -2.3288 -0.3128
13133TIP3   OH260889   1.038   3.439   6.516  0.6042  0.0750 -0.2827
13133TIP3    H160890   0.957   3.456   6.564 -0.0592 -2.1935 -0.4886
13133TIP3    H260891   1.074   3.360   6.556  1.5590 -0.2135 -1.6246
13134TIP3   OH260892   5.586   2.771  16.697 -0.7900 -0.4000  0.6546
13134TIP3    H160893   5.677   2.800  16.701 -0.6719 -0.4739 -0.9298
13134TIP3    H260894   5.537   2.842  16.738 -0.1187  0.1379  0.5480
13135TIP3   OH260895   2.965   3.284   3.785  0.1103 -0.0934  0.0581
13135TIP3    H160896   3.016   3.244   3.714 -0.2943  1.9767 -1.4979
13135TIP3    H260897   2.879   3.242   3.779  1.0295 -2.3291  1.5518
13136TIP3   OH260898   1.683   0.366   0.943 -0.0394  0.8820  0.1239
13136TIP3    H160899   1.648   0.437   0.997 -0.3152  0.2841  0.7430
13136TIP3    H260900   1.778   0.381   0.943  0.1865 -0.1183  2.3097
13137TIP3   OH260901   5.740   4.224  11.367  0.0982  0.5260 -0.2228
13137TIP3    H160902   5.828   4.262  11.369  0.3752 -0.1055 -0.3958
13137TIP3    H260903   5.705   4.240  11.454  1.3881 -1.5889  0.7508
13138TIP3   OH260904   2.987   4.783  15.814 -0.2723 -0.0610 -0.3694
13138TIP3    H160905   2.902   4.758  15.850 -0.1146 -0.2370 -0.1108
13138TIP3    H260906   2.967   4.846  15.745 -0.5649  0.4948  0.2164
13139TIP3   OH260907   3.519   1.444   5.447  0.1237 -0.0901  0.6059
13139TIP3    H160908   3.447   1.504   5.429  0.6437  0.6079  0.7952
13139TIP3    H260909   3.598   1.494   5.426  0.5728 -0.6962  0.8085
13140TIP3   OH260910   1.452   0.218   1.371  0.4480 -0.0694  0.5075
13140TIP3    H160911   1.443   0.310   1.395  0.2175 -0.1739  0.8193
13140TIP3    H260912   1.403   0.171   1.437  0.1617 -0.3885  0.0735
13141TIP3   OH260913   5.988   1.051  15.656  0.3353  0.0670  0.4568
13141TIP3    H160914   5.964   1.015  15.571  2.7104 -0.0204 -0.2527
13141TIP3    H260915   5.916   1.109  15.680 -0.3115  0.1876 -1.6566
13142TIP3   OH260916   1.686   1.527   4.040  0.5631  0.0958  0.0582
13142TIP3    H160917   1.709   1.613   4.004 -0.9421  1.0534  1.2486
13142TIP3    H260918   1.750   1.467   4.002  2.0770  1.8414 -0.2952
13143TIP3   OH260919   3.276   3.758  13.786 -0.0965 -0.2727 -0.3245
13143TIP3    H160920   3.202   3.769  13.727 -0.8435  0.8415  0.7657
13143TIP3    H260921   3.321   3.842  13.784  0.5804 -0.6226 -0.2197
13144TIP3   OH260922   1.491   4.869   4.086  0.3109 -0.4964  0.7757
13144TIP3    H160923   1.429   4.803   4.116  0.5307 -0.9140  0.3150
13144TIP3    H260924   1.577   4.834   4.109  0.4678 -0.7002 -0.0915
13145TIP3   OH260925   1.114   0.610   3.110 -0.1424  0.2024 -0.0194
13145TIP3    H160926   1.151   0.633   3.025  0.8503  0.3356  0.4391
13145TIP3    H260927   1.105   0.694   3.156  2.1496 -0.0898  1.1191
13146TIP3   OH260928   4.136   1.953   1.081 -0.9405 -0.0479 -0.1228
13146TIP3    H160929   4.159   2.009   1.155  0.4960 -2.3316  1.2697
13146TIP3    H260930   4.045   1.927   1.098 -0.5351 -0.7823  1.0209
13147TIP3   OH260931   0.285   2.898  16.760  0.3603 -0.4594 -0.3827
13147TIP3    H160932   0.272   2.851  16.678 -0.1331 -0.6866 -0.1784
13147TIP3    H260933   0.293   2.990  16.735 -1.3111 -0.3429 -0.5561
13148TIP3   OH260934   4.094   5.450   4.800 -0.0932  0.0967 -0.1474
13148TIP3    H160935   4.047   5.489   4.873  1.8143  0.7982  0.7544
13148TIP3    H260936   4.149   5.382   4.840 -0.6215 -1.0269 -1.2334
13149TIP3   OH260937   3.003   2.797  16.084  0.5839  0.3162  0.6429
13149TIP3    H160938   2.940   2.778  16.153  2.7264 -1.1560  2.3458
13149TIP3    H260939   3.004   2.892  16.078 -0.8390  0.4089  1.4631
13150TIP3   OH260940   3.148   4.994   0.236  0.0068 -0.2445 -1.0604
13150TIP3    H160941   3.241   4.989   0.214  0.5505  2.4316  0.2407
13150TIP3    H260942   3.127   5.087   0.234 -1.8440 -0.4770  1.6238
13151TIP3   OH260943   5.362   4.786  15.521 -0.3654 -0.4012 -0.2419
13151TIP3    H160944   5.404   4.719  15.466  0.8327  1.2603 -1.4492
13151TIP3    H260945   5.345   4.859  15.461  0.9947  1.5014  1.5683
13152TIP3   OH260946   4.864   3.471  11.597 -0.5917  0.3808  0.0483
13152TIP3    H160947   4.865   3.525  11.677 -0.1520  1.1488 -0.4586
13152TIP3    H260948   4.913   3.523  11.533  1.3024 -1.3533 -0.0084
13153TIP3   OH260949   6.671   2.189   3.890 -0.5183  0.2471 -0.2455
13153TIP3    H160950   6.734   2.118   3.895 -0.6663  0.1583  0.4646
13153TIP3    H260951   6.590   2.147   3.860 -0.3345  0.3031 -0.8306
13154TIP3   OH260952   0.329   1.826  11.627 -0.7487  0.2077 -0.5856
13154TIP3    H160953   0.242   1.858  11.651 -0.4238  0.3800  0.4187
13154TIP3    H260954   0.365   1.793  11.709 -0.2273 -0.7395 -1.1717
13155TIP3   OH260955   0.550   1.025  15.500  0.0700 -0.7995 -0.2240
13155TIP3    H160956   0.465   0.994  15.468 -1.3680  1.2202  1.3471
13155TIP3    H260957   0.554   0.992  15.590  1.7316 -2.1603 -0.7335
13156TIP3   OH260958   4.469   5.594  14.295  0.3631  0.7591  0.5738
13156TIP3    H160959   4.542   5.635  14.249  0.0662  0.4943 -0.1392
13156TIP3    H260960   4.393   5.647  14.271  0.0104 -0.0678 -0.1938
13157TIP3   OH260961   1.152   2.858   6.083 -0.1491 -0.1225 -0.3024
13157TIP3    H160962   1.188   2.842   6.170 -0.5417 -1.0495 -0.2959
13157TIP3    H260963   1.058   2.870   6.098 -0.2904 -0.7671 -0.6449
13158TIP3   OH260964   1.914   1.650   2.754 -0.8452 -0.3098  0.0232
13158TIP3    H160965   1.986   1.602   2.794 -1.5842 -0.9914  0.5814
13158TIP3    H260966   1.895   1.720   2.817 -0.8480 -0.3060  0.0180
13159TIP3   OH260967   5.899   4.381   6.601 -0.2007 -0.0074 -0.1925
13159TIP3    H160968   5.850   4.307   6.564 -0.3138 -0.8893  1.6298
13159TIP3    H260969   5.833   4.432   6.646  0.4722 -1.2918  2.4318
13160TIP3   OH260970   6.120   4.742   5.334  0.5605  0.2192 -0.1577
13160TIP3    H160971   6.161   4.784   5.258  0.7041  2.4255  1.0376
13160TIP3    H260972   6.031   4.777   5.336  0.7729  0.7721  1.0523
13161TIP3   OH260973   0.269   2.089   0.572 -0.2141 -0.5011  0.5265
13161TIP3    H160974   0.210   2.016   0.557 -1.3379  0.1287  1.7143
13161TIP3    H260975   0.321   2.064   0.649 -0.5960 -0.0699  0.9322
13162TIP3   OH260976   4.632   3.881  11.845  0.0338 -0.2682  0.1014
13162TIP3    H160977   4.727   3.894  11.852 -0.0452 -0.1535  1.1021
13162TIP3    H260978   4.595   3.969  11.845 -0.0476 -0.2912 -0.9019
13163TIP3   OH260979   4.158   2.480  15.649  0.0804 -0.4818  0.0813
13163TIP3    H160980   4.213   2.536  15.594  0.4076 -1.0338 -0.1629
13163TIP3    H260981   4.070   2.489  15.613  0.1256 -0.0915  0.0683
13164TIP3   OH260982   4.955   5.391  11.244  0.5984 -0.4587  0.0364
13164TIP3    H160983   4.992   5.372  11.158 -1.4283  1.4483 -1.3560
13164TIP3    H260984   4.994   5.474  11.269 -1.4761  0.8239 -0.7719
13165TIP3   OH260985   3.782   4.284   3.832  0.0185  0.3802 -0.0432
13165TIP3    H160986   3.752   4.362   3.787 -1.9117 -0.6123 -0.6028
13165TIP3    H260987   3.762   4.212   3.771  3.0971 -0.4670 -0.2004
13166TIP3   OH260988   4.585   2.434   1.916  0.4040  0.1406  0.5507
13166TIP3    H160989   4.524   2.458   1.846  0.6122 -0.0997  0.2817
13166TIP3    H260990   4.651   2.503   1.915 -0.7529  1.3047  1.9554
13167TIP3   OH260991   0.212   1.471  11.779  0.7573  0.3778 -0.1980
13167TIP3    H160992   0.146   1.541  11.773 -0.0975 -0.4095 -0.2660
13167TIP3    H260993   0.294   1.513  11.753  0.1596  1.2069 -0.8143
13168TIP3   OH260994   3.002   2.042   1.285 -0.4882  0.1462  0.7785
13168TIP3    H160995   3.021   1.963   1.234 -0.6331 -0.7075  1.9852
13168TIP3    H260996   3.081   2.095   1.278  0.0688 -0.6416  0.8800
13169TIP3   OH260997   2.197   1.759  14.263  0.2450  0.1196 -0.3731
13169TIP3    H160998   2.242   1.692  14.314 -0.1063  0.4414  0.3824
13169TIP3    H260999   2.145   1.807  14.328  1.5398  1.9964 -0.6579
13170TIP3   OH261000   5.639   6.388   2.526  0.7191 -0.4491 -0.1241
13170TIP3    H161001   5.613   6.310   2.477 -2.4872  0.5975 -0.3520
13170TIP3    H261002   5.654   6.356   2.615 -0.7991 -1.3679 -0.1496
13171TIP3   OH261003   0.591   2.499   0.092  0.2261 -0.2559  0.1458
13171TIP3    H161004   0.517   2.475   0.148  1.5082 -1.6585  1.3353
13171TIP3    H261005   0.624   2.416   0.059  0.4305  0.4483 -1.5368
13172TIP3   OH261006   3.495   5.013  13.370  0.1484 -0.4081  0.5929
13172TIP3    H161007   3.538   5.037  13.452 -0.8809 -1.8408  1.6058
13172TIP3    H261008   3.405   4.993  13.395 -0.4725  0.1434 -1.0771
13173TIP3   OH261009   5.150   1.342  10.693 -0.1023  0.0196  0.3208
13173TIP3    H161010   5.208   1.355  10.768 -0.2875 -0.8040  0.6214
13173TIP3    H261011   5.143   1.247  10.685 -1.1453  0.1081  0.0871
13174TIP3   OH261012   3.850   2.693  15.591  0.0533 -0.3418 -0.2242
13174TIP3    H161013   3.771   2.674  15.539  1.7669 -0.9523 -2.7985
13174TIP3    H261014   3.923   2.667  15.534  2.1929  2.0174  1.2396
13175TIP3   OH261015   4.361   0.214   5.723  0.0017 -0.5376  0.0530
13175TIP3    H161016   4.281   0.265   5.740  0.7729  0.2989  1.3005
13175TIP3    H261017   4.386   0.180   5.809  0.5231 -1.5043 -0.4763
13176TIP3   OH261018   5.733   5.215   0.166  0.1155 -0.2511 -0.0723
13176TIP3    H161019   5.802   5.280   0.178 -0.6719  0.8637 -1.3090
13176TIP3    H261020   5.657   5.265   0.138 -0.1532 -1.7778 -2.4306
13177TIP3   OH261021   5.452   2.038  14.381 -0.1273  0.4363 -0.3337
13177TIP3    H161022   5.402   2.064  14.304 -0.0504  2.1760  0.1664
13177TIP3    H261023   5.537   2.011  14.346 -0.5963 -0.2724 -0.9693
13178TIP3   OH261024   5.645   0.783  13.483 -0.2922  0.3774  0.6617
13178TIP3    H161025   5.709   0.746  13.544  0.3359 -1.0463 -0.7756
13178TIP3    H261026   5.639   0.875  13.507  0.4957  0.0200  2.3626
13179TIP3   OH261027   6.596   2.089   2.932 -0.6686  0.1721  0.1197
13179TIP3    H161028   6.652   2.105   3.008 -1.3652  0.8065  0.5072
13179TIP3    H261029   6.612   2.164   2.875 -2.4182  1.3048  1.0286
13180TIP3   OH261030   0.704   5.526  11.763  0.3355  0.0404  0.4550
13180TIP3    H161031   0.637   5.543  11.829 -0.6009  0.3230 -0.5441
13180TIP3    H261032   0.712   5.431  11.760 -1.7498 -0.1677 -1.0425
13181TIP3   OH261033   2.500   1.524   3.597  0.2161  0.4975  0.4040
13181TIP3    H161034   2.548   1.472   3.533 -0.4561 -0.4201  0.6166
13181TIP3    H261035   2.533   1.495   3.682 -0.7379 -0.1980  0.5563
13182TIP3   OH261036   2.701   3.184  12.338 -0.0593  0.5260  0.8605
13182TIP3    H161037   2.753   3.215  12.263 -0.8771 -3.1430 -1.4751
13182TIP3    H261038   2.612   3.215  12.320  0.0599  1.1585  1.3197
13183TIP3   OH261039   4.998   5.585  14.414 -0.3883 -0.0231  0.1389
13183TIP3    H161040   5.051   5.531  14.357  0.5175  1.0771 -0.0919
13183TIP3    H261041   4.979   5.529  14.490  2.9756  0.1924  1.3040
13184TIP3   OH261042   4.340   1.397   0.486  0.2179  0.2913  0.1093
13184TIP3    H161043   4.326   1.418   0.579  0.5497  0.0056  0.2264
13184TIP3    H261044   4.424   1.438   0.465 -0.7967  2.0792 -0.6163
13185TIP3   OH261045   2.370   1.558  14.834 -0.0834 -0.0194  0.4295
13185TIP3    H161046   2.305   1.557  14.764 -0.2911  0.9738  0.5886
13185TIP3    H261047   2.354   1.640  14.881  1.7294  0.6302  0.0277
13186TIP3   OH261048   5.211   6.211   1.288  0.3857 -0.3334 -0.0973
13186TIP3    H161049   5.137   6.150   1.296 -1.6168  2.0293  0.6128
13186TIP3    H261050   5.238   6.202   1.196 -1.8604 -0.1593 -0.8495
13187TIP3   OH261051   1.765   0.411   2.070  0.0412  0.2846 -0.4249
13187TIP3    H161052   1.802   0.468   2.137  0.2843 -1.0568  0.6375
13187TIP3    H261053   1.779   0.458   1.988  0.1605  1.7625  0.3961
13188TIP3   OH261054   1.699   1.777   5.523  0.1005  0.3634  0.8561
13188TIP3    H161055   1.610   1.790   5.490  0.1495 -0.3388  0.4380
13188TIP3    H261056   1.699   1.823   5.607 -0.3965  1.1060  0.4710
13189TIP3   OH261057   6.404   5.944   5.661 -0.3131  0.6491 -0.3393
13189TIP3    H161058   6.425   6.032   5.693 -0.4918  0.9070 -0.9194
13189TIP3    H261059   6.388   5.956   5.568  0.0408 -0.0657 -0.4975
13190TIP3   OH261060   5.937   6.541   5.852 -0.0505 -0.0367 -0.2491
13190TIP3    H161061   5.842   6.547   5.857 -0.2111  1.7112 -3.2421
13190TIP3    H261062   5.969   6.626   5.880  0.5854 -0.2602 -0.2705
13191TIP3   OH261063   2.691   0.932   3.625  0.0307  1.0412  0.0624
13191TIP3    H161064   2.759   0.993   3.597  0.9578 -0.3532 -0.8478
13191TIP3    H261065   2.733   0.880   3.693  0.7474 -1.3924 -2.1017
13192TIP3   OH261066   1.794   3.299   2.814  0.1235 -0.4994 -0.2077
13192TIP3    H161067   1.832   3.312   2.727 -1.1595 -0.7720 -0.8421
13192TIP3    H261068   1.782   3.204   2.821 -0.7056 -0.4063 -0.1757
13193TIP3   OH261069   1.013   6.633   4.183  0.4012 -0.1766  0.6148
13193TIP3    H161070   0.968   6.708   4.144  0.0418 -0.7331 -0.0356
13193TIP3    H261071   0.947   6.564   4.188  1.2811 -1.1660 -0.8132
13194TIP3   OH261072   6.171   3.497   6.579  0.4360 -0.2368 -0.4688
13194TIP3    H161073   6.193   3.415   6.535  1.1620 -1.1376  1.4925
13194TIP3    H261074   6.155   3.473   6.670 -1.4279  1.5046 -0.2510
13195TIP3   OH261075   1.604   0.550   0.530  0.1965 -0.3551 -0.4689
13195TIP3    H161076   1.519   0.507   0.541 -0.2770  0.3390 -1.3144
13195TIP3    H261077   1.668   0.486   0.562 -0.6126 -1.0459 -0.2116
13196TIP3   OH261078   1.367   4.290   4.112 -0.3999  0.5012  0.0720
13196TIP3    H161079   1.303   4.263   4.177 -1.2577  1.2143 -0.4432
13196TIP3    H261080   1.442   4.321   4.163 -0.7630  0.3576  0.7009
13197TIP3   OH261081   1.336   6.378  15.677  0.1432  0.0976  0.1638
13197TIP3    H161082   1.400   6.440  15.712 -0.3350  0.2744  0.7399
13197TIP3    H261083   1.267   6.433  15.640  0.8226 -0.0857 -1.4133
13198TIP3   OH261084   2.399   0.843  14.964 -0.5951 -0.8071  0.2816
13198TIP3    H161085   2.459   0.916  14.953 -2.3369  0.6634 -0.0877
13198TIP3    H261086   2.447   0.779  15.017  1.1681  0.3662  0.1791
13199TIP3   OH261087   1.513   6.559  10.759  0.1238 -0.7796  0.4484
13199TIP3    H161088   1.464   6.572  10.840 -0.0495  0.1922  0.2041
13199TIP3    H261089   1.539   6.467  10.761 -0.3357 -0.9018  1.3467
13200TIP3   OH261090   5.569   4.606   2.756 -0.1490 -0.0306  0.1515
13200TIP3    H161091   5.592   4.526   2.709 -1.6743 -0.2774 -0.2264
13200TIP3    H261092   5.652   4.652   2.768  0.1885  1.2697 -4.9285
13201TIP3   OH261093   5.962   0.167  17.128  0.4050  0.2653  0.6716
13201TIP3    H161094   5.960   0.075  17.157  0.7960 -1.4512 -3.8813
13201TIP3    H261095   6.049   0.179  17.091 -0.0091  2.1623  0.2085
13202TIP3   OH261096   1.744   2.203  16.706  0.1203 -0.3861 -0.2087
13202TIP3    H161097   1.758   2.210  16.800  0.7257 -2.5892 -0.0985
13202TIP3    H261098   1.821   2.158  16.673 -0.6689 -0.8053 -1.5780
13203TIP3   OH261099   3.803   3.085  11.736 -0.0771 -0.3289 -0.5367
13203TIP3    H161100   3.819   3.172  11.773 -0.1535  0.1424 -1.5437
13203TIP3    H261101   3.795   3.027  11.811  1.1396  0.3319  0.1275
13204TIP3   OH261102   1.564   3.869   0.685  0.4224 -0.0729  0.3575
13204TIP3    H161103   1.519   3.812   0.748 -1.0109  1.5058  0.8284
13204TIP3    H261104   1.630   3.914   0.737  0.2846  0.0850  0.3958
13205TIP3   OH261105   0.777   5.821   4.118 -0.2395  0.8006 -0.2424
13205TIP3    H161106   0.686   5.825   4.090 -0.3534  0.9197  0.1504
13205TIP3    H261107   0.774   5.791   4.209  0.2045 -1.2458 -0.8269
13206TIP3   OH261108   2.907   6.777   1.840 -0.1269 -0.1846  0.2152
13206TIP3    H161109   2.938   6.751   1.927 -0.7006 -0.9838  0.1955
13206TIP3    H261110   2.837   6.840   1.858  0.4909  0.4987  0.2924
13207TIP3   OH261111   6.774   4.811  15.122 -0.1555  0.1612  1.0066
13207TIP3    H161112   6.822   4.773  15.195 -3.1838  0.2810  3.2852
13207TIP3    H261113   6.696   4.755  15.113 -0.7317  1.1847 -0.9934
13208TIP3   OH261114   0.417   2.883  12.685 -0.5974  0.8855 -0.1452
13208TIP3    H161115   0.402   2.951  12.751  0.7136  2.0247 -0.9737
13208TIP3    H261116   0.465   2.927  12.616  0.5288 -0.9573 -0.6009
13209TIP3   OH261117   3.658   4.523   0.552  0.2470  0.8767  0.7381
13209TIP3    H161118   3.742   4.477   0.550  0.4916  1.3331 -1.1573
13209TIP3    H261119   3.614   4.497   0.471  1.0610  5.0658 -1.2896
13210TIP3   OH261120   1.001   3.490   1.598  0.1224  0.0795 -0.0595
13210TIP3    H161121   1.003   3.424   1.529  1.7353 -2.4179  2.1606
13210TIP3    H261122   0.909   3.491   1.627  0.0465 -1.1728 -0.1951
13211TIP3   OH261123   6.567   3.409   0.924  0.0330 -0.0378 -0.0532
13211TIP3    H161124   6.579   3.342   0.991  0.6986  0.6417  0.5237
13211TIP3    H261125   6.650   3.411   0.876  0.0538  0.4272 -0.0086
13212TIP3   OH261126   1.653   2.877   1.403  0.1621  0.1289  0.2924
13212TIP3    H161127   1.742   2.896   1.431 -0.3712  0.4494  1.8962
13212TIP3    H261128   1.654   2.891   1.309  1.7070  0.5000  0.3334
13213TIP3   OH261129   3.847   2.874   1.880  0.0620  0.1118  0.1977
13213TIP3    H161130   3.904   2.884   1.956  2.9034 -1.6253 -1.4886
13213TIP3    H261131   3.906   2.842   1.811 -2.6828 -0.0560 -2.2530
13214TIP3   OH261132   3.688   5.689   5.438  0.3194 -0.2713 -0.0217
13214TIP3    H161133   3.645   5.625   5.381  2.0447 -2.0595  0.5292
13214TIP3    H261134   3.754   5.729   5.382 -0.2332  0.4641 -0.1533
13215TIP3   OH261135   0.202   3.873  15.128 -0.2340  0.0502  0.0922
13215TIP3    H161136   0.262   3.946  15.113 -1.2982  0.8817 -0.2323
13215TIP3    H261137   0.209   3.819  15.050  0.4972 -0.1682  0.2986
13216TIP3   OH261138   2.247   0.801   2.101 -0.1049  0.5342 -0.3607
13216TIP3    H161139   2.297   0.783   2.021  0.7462  1.9095 -0.1803
13216TIP3    H261140   2.157   0.810   2.072 -0.0270 -0.3869 -0.9390
13217TIP3   OH261141   1.457   0.121   3.497 -0.1814 -0.4234  0.2887
13217TIP3    H161142   1.465   0.185   3.568 -0.6583 -0.7102  0.6070
13217TIP3    H261143   1.464   0.036   3.541 -1.2610 -0.6197  0.1097
13218TIP3   OH261144   6.772   2.246  11.666 -0.5602 -0.0509 -0.3320
13218TIP3    H161145   6.849   2.198  11.635  0.1836  1.3533 -0.7006
13218TIP3    H261146   6.802   2.335  11.679 -2.7820  1.3061 -3.3513
13219TIP3   OH261147   4.681   5.711   5.285  0.2648  0.7394  0.1791
13219TIP3    H161148   4.598   5.757   5.289 -0.4907 -0.4067 -1.4701
13219TIP3    H261149   4.746   5.776   5.310 -0.8876  2.3364 -0.8434
13220TIP3   OH261150   6.095   1.993   3.973 -0.3189 -0.2422 -0.1913
13220TIP3    H161151   6.099   2.085   3.947 -0.7323  0.0944  0.8385
13220TIP3    H261152   6.011   1.962   3.938 -1.9257  0.8114  2.4133
13221TIP3   OH261153   6.523   0.924  12.695 -0.1022 -0.3649  0.0837
13221TIP3    H161154   6.470   0.912  12.616 -0.2584  0.0834  0.1170
13221TIP3    H261155   6.492   0.857  12.755 -1.3345  0.5072  0.4641
13222TIP3   OH261156   1.587   4.111  11.387 -0.0742  0.6590 -0.5167
13222TIP3    H161157   1.675   4.087  11.355  0.1052  2.5626 -1.6389
13222TIP3    H261158   1.602   4.190  11.438 -0.8387 -0.5005  1.6295
13223TIP3   OH261159   1.404   3.585   5.162 -0.2167 -0.3641 -0.2829
13223TIP3    H161160   1.433   3.643   5.232 -0.8850 -0.8678  0.4191
13223TIP3    H261161   1.435   3.628   5.082  0.1921  0.4308  0.2856
13224TIP3   OH261162   3.397   4.802  15.635 -0.3341 -0.1348 -0.1203
13224TIP3    H161163   3.467   4.840  15.688  0.4683  0.0728 -1.2896
13224TIP3    H261164   3.325   4.864  15.642 -0.4729 -0.4285  1.2288
13225TIP3   OH261165   6.293   2.114  12.435  0.6237 -0.1866  0.7686
13225TIP3    H161166   6.376   2.067  12.437  0.9618  0.2861 -0.8101
13225TIP3    H261167   6.284   2.142  12.344 -0.9485  0.3411  1.0663
13226TIP3   OH261168   2.252   2.823   1.967  0.8272  0.6692  0.0600
13226TIP3    H161169   2.270   2.902   2.019  0.8850  0.2559  0.6749
13226TIP3    H261170   2.338   2.794   1.936  0.6900  1.5338 -1.2001
13227TIP3   OH261171   2.477   5.322  13.611 -0.3906 -0.4334 -0.0213
13227TIP3    H161172   2.441   5.323  13.523 -0.2002  1.4490 -0.1128
13227TIP3    H261173   2.431   5.392  13.657 -1.0920 -1.9236  1.6572
13228TIP3   OH261174   6.749   0.550   2.318  0.3786 -0.6089  0.1789
13228TIP3    H161175   6.830   0.581   2.359  0.0763  0.1462  0.2221
13228TIP3    H261176   6.758   0.572   2.225  0.2956 -0.6763  0.1540
13229TIP3   OH261177   1.168   3.903   2.751 -0.0515 -0.1005  0.0764
13229TIP3    H161178   1.167   3.817   2.709 -2.6920  0.5576 -1.3760
13229TIP3    H261179   1.258   3.934   2.740  0.6909 -2.1987 -0.2712
13230TIP3   OH261180   1.411   2.031  13.684  0.6012  0.2688  0.3148
13230TIP3    H161181   1.457   2.066  13.607  0.0959  0.8353  0.2621
13230TIP3    H261182   1.359   2.104  13.716 -1.7267 -0.8298 -0.7225
13231TIP3   OH261183   1.678   5.355  15.204 -0.4747  0.0867 -0.3186
13231TIP3    H161184   1.750   5.358  15.267 -0.6865 -0.5892 -0.0336
13231TIP3    H261185   1.717   5.384  15.121  0.2226 -0.6631 -0.2604
13232TIP3   OH261186   5.846   0.383  15.478 -0.1962  0.4783 -0.4087
13232TIP3    H161187   5.862   0.295  15.513 -2.0408 -0.0900 -0.8895
13232TIP3    H261188   5.757   0.380  15.444  0.4542  1.8833 -2.4762
13233TIP3   OH261189   5.346   6.239  14.659  0.0101  0.1408 -0.0839
13233TIP3    H161190   5.387   6.321  14.686 -0.0355 -0.1587  0.9150
13233TIP3    H261191   5.363   6.234  14.564  0.9628  0.7655  0.0389
13234TIP3   OH261192   4.866   4.023  11.793  0.0766  0.2262 -0.1741
13234TIP3    H161193   4.892   4.106  11.752 -1.3088  0.2805 -0.9675
13234TIP3    H261194   4.860   3.961  11.720  1.5007 -0.7149  0.4593
13235TIP3   OH261195   2.021   1.237   4.608 -0.5397 -0.1823  0.3804
13235TIP3    H161196   2.047   1.322   4.645 -0.7197  0.0169  0.0582
13235TIP3    H261197   2.043   1.173   4.676  2.2225 -0.2190 -0.4287
13236TIP3   OH261198   6.819   6.544  16.181 -0.2999  0.5200 -0.0790
13236TIP3    H161199   6.830   6.637  16.159 -1.2745  1.0700  1.5646
13236TIP3    H261200   6.764   6.545  16.259  0.1975 -1.4320  0.3336
13237TIP3   OH261201   2.181   2.012  12.847  0.2193 -0.1000  1.0112
13237TIP3    H161202   2.153   2.094  12.805 -2.3281 -1.1914  0.3895
13237TIP3    H261203   2.237   1.970  12.783 -0.4540  0.0460  0.3158
13238TIP3   OH261204   6.780   5.041   4.599  0.1719 -0.6204  0.5859
13238TIP3    H161205   6.824   4.957   4.611 -0.8644 -0.9983  2.0206
13238TIP3    H261206   6.822   5.099   4.662  1.0440  0.0259 -0.5637
13239TIP3   OH261207   1.022   1.593  15.163 -0.2756 -0.0903 -0.1165
13239TIP3    H161208   0.979   1.668  15.204  0.3268 -0.7191  1.7544
13239TIP3    H261209   1.106   1.626  15.133  0.1164 -0.0591  0.9761
13240TIP3   OH261210   4.419   5.888   4.967  0.4507 -0.3555 -0.1746
13240TIP3    H161211   4.367   5.810   4.946  0.9194 -1.2673  1.7806
13240TIP3    H261212   4.509   5.864   4.944  0.3899  0.1889 -0.9921
13241TIP3   OH261213   4.496   6.669  15.808  0.2903  0.1070  0.3342
13241TIP3    H161214   4.529   6.737  15.867 -1.1454  1.7184 -0.6256
13241TIP3    H261215   4.444   6.717  15.744 -2.7650 -2.0979  0.9694
13242TIP3   OH261216   4.017   2.939  12.328 -0.4505 -0.2109  0.1048
13242TIP3    H161217   3.972   2.922  12.410 -0.3276  0.7895  0.3874
13242TIP3    H261218   4.053   2.854  12.302 -1.0857 -0.6729  0.7203
13243TIP3   OH261219   3.154   0.839  16.490 -0.1144  0.3996  0.1514
13243TIP3    H161220   3.239   0.805  16.462 -0.4114  2.0746 -3.2340
13243TIP3    H261221   3.171   0.930  16.514 -0.5441 -0.0066  2.1328
13244TIP3   OH261222   3.813   3.663  14.303  0.5087  0.5286 -0.1164
13244TIP3    H161223   3.874   3.637  14.372  0.8856  0.1008 -0.6066
13244TIP3    H261224   3.767   3.582  14.281 -1.2826  1.0965  1.2418
13245TIP3   OH261225   3.423   5.697  15.627 -0.4616 -0.5237  0.0512
13245TIP3    H161226   3.340   5.657  15.605 -0.0911 -0.5426 -1.3880
13245TIP3    H261227   3.467   5.710  15.543 -0.4802  2.7114  0.4143
13246TIP3   OH261228   4.408   0.720   5.863 -0.0727 -0.5601  0.5454
13246TIP3    H161229   4.436   0.811   5.867 -1.6948 -0.0607  1.2962
13246TIP3    H261230   4.352   0.708   5.940 -0.0755 -2.1312  0.3397
13247TIP3   OH261231   2.892   2.955  13.457 -0.2092 -0.1624  0.2692
13247TIP3    H161232   2.873   2.936  13.365  0.6934 -0.7822  0.1882
13247TIP3    H261233   2.934   3.041  13.456 -2.9007  1.2677  0.4644
13248TIP3   OH261234   5.096   3.176  14.690 -0.4676  0.7516 -0.6382
13248TIP3    H161235   5.046   3.215  14.618 -0.9721  1.4067  0.0633
13248TIP3    H261236   5.143   3.103  14.649 -2.1217 -0.0048 -1.2918
13249TIP3   OH261237   2.087   0.792   1.101 -0.0663 -0.5130  0.1568
13249TIP3    H161238   2.021   0.723   1.102  1.0834 -1.6665  2.1674
13249TIP3    H261239   2.057   0.856   1.164 -0.4083  0.1435 -0.6550
13250TIP3   OH261240   5.787   3.881   0.985  0.2213  0.1140 -0.0151
13250TIP3    H161241   5.831   3.966   0.983  0.1436  0.2046  1.4765
13250TIP3    H261242   5.735   3.880   0.905  1.2153  0.9171 -0.7106
13251TIP3   OH261243   6.778   2.636  11.977 -0.1911  0.2387  0.1771
13251TIP3    H161244   6.860   2.679  11.952 -0.9432  0.6950 -1.6678
13251TIP3    H261245   6.716   2.662  11.909 -1.1298 -2.3926 -0.0610
13252TIP3   OH261246   3.299   5.336  16.897 -0.0971 -0.0540 -0.2293
13252TIP3    H161247   3.278   5.250  16.862  0.2102 -0.0650 -0.3879
13252TIP3    H261248   3.394   5.344  16.887 -0.0108 -0.0310  0.5335
13253TIP3   OH261249   5.243   2.605   0.838  0.2975  0.2961 -0.2469
13253TIP3    H161250   5.149   2.606   0.858 -0.5043  2.3642 -3.2730
13253TIP3    H261251   5.250   2.550   0.759  1.2544  1.6730 -1.1766
13254TIP3   OH261252   3.626   4.337   1.468 -0.1014 -0.3896 -0.0865
13254TIP3    H161253   3.572   4.268   1.430  0.5962 -1.7953  1.3480
13254TIP3    H261254   3.712   4.326   1.426  0.0154 -0.4029  0.1526
13255TIP3   OH261255   2.884   2.682  12.159 -0.1220 -0.0511  0.1301
13255TIP3    H161256   2.950   2.747  12.182 -2.2518  1.4973  2.3210
13255TIP3    H261257   2.824   2.728  12.100  0.5429 -1.3893 -1.7112
13256TIP3   OH261258   4.127   3.707   0.519  0.0099 -0.2500 -0.2534
13256TIP3    H161259   4.102   3.748   0.436 -0.3703  0.8248  0.3643
13256TIP3    H261260   4.052   3.723   0.577  0.8540  0.3206  0.7213
13257TIP3   OH261261   0.625   0.193  10.905  0.1096 -0.3535 -0.4119
13257TIP3    H161262   0.543   0.164  10.944 -0.9187  1.4859 -1.0695
13257TIP3    H261263   0.685   0.119  10.917 -0.9286 -0.8782  2.1419
13258TIP3   OH261264   0.085   4.153  16.011  0.5908  0.1698  0.0485
13258TIP3    H161265   0.177   4.130  16.022  0.5855  1.0338  2.2534
13258TIP3    H261266   0.062   4.201  16.090 -2.4650 -2.2378  0.8235
13259TIP3   OH261267   1.177   6.791  13.879 -0.4845  0.5059  0.3348
13259TIP3    H161268   1.130   6.826  13.955 -0.0053 -0.4069  1.0642
13259TIP3    H261269   1.152   6.699  13.875 -0.5555  0.5478 -0.6737
13260TIP3   OH261270   0.146   2.811   1.476  0.3618 -0.4998 -0.0673
13260TIP3    H161271   0.086   2.827   1.403 -1.6750  1.2828  1.8700
13260TIP3    H261272   0.104   2.850   1.552  3.3717 -0.3605  1.7170
13261TIP3   OH261273   3.407   4.819   2.819 -0.2118 -0.4776  0.2230
13261TIP3    H161274   3.353   4.803   2.896  0.4066 -1.1199  0.5278
13261TIP3    H261275   3.374   4.758   2.753 -0.0612 -0.6472  0.3062
13262TIP3   OH261276   2.185   5.204   2.569  0.4803 -0.0827  0.2123
13262TIP3    H161277   2.216   5.133   2.511  0.8485  1.2849 -1.3494
13262TIP3    H261278   2.093   5.215   2.546  1.0246  1.6075 -1.4759
13263TIP3   OH261279   0.765   2.304   1.449  0.8831  0.1678  0.4536
13263TIP3    H161280   0.685   2.352   1.470  0.6570 -0.5837  1.3721
13263TIP3    H261281   0.826   2.328   1.519  1.1759  0.0721  0.2319
13264TIP3   OH261282   4.974   1.527   2.800 -0.2154 -0.1267 -0.1565
13264TIP3    H161283   4.904   1.559   2.742 -2.2852  0.5323  2.4978
13264TIP3    H261284   5.016   1.606   2.833  0.5921 -0.4715 -0.3441
13265TIP3   OH261285   4.943   0.468   5.463 -0.2870  0.2809  0.5340
13265TIP3    H161286   5.026   0.424   5.445 -0.2174  0.2845  0.8378
13265TIP3    H261287   4.876   0.404   5.439 -0.1951 -0.9297  3.0939
13266TIP3   OH261288   5.834   0.323  10.907 -0.7229  0.4527  0.1592
13266TIP3    H161289   5.868   0.396  10.958  1.2698  1.2200 -2.0885
13266TIP3    H261290   5.806   0.363  10.824 -0.4692 -1.2037 -0.7654
13267TIP3   OH261291   4.722   4.536  12.282 -0.2153  0.4034  0.6922
13267TIP3    H161292   4.651   4.472  12.268  0.2624 -0.3823  1.6943
13267TIP3    H261293   4.720   4.591  12.204 -4.3152  2.7874  2.1782
13268TIP3   OH261294   3.191   3.666   1.969  0.3156 -0.5764  0.0887
13268TIP3    H161295   3.200   3.572   1.989 -1.3484 -0.3715  2.1513
13268TIP3    H261296   3.131   3.699   2.036 -0.9340  1.5374 -1.9284
13269TIP3   OH261297   1.613   4.885  13.713  0.4297 -0.1629 -0.5222
13269TIP3    H161298   1.599   4.791  13.726 -0.3289 -0.2014 -1.4622
13269TIP3    H261299   1.534   4.925  13.750  0.5160  0.0586 -0.5826
13270TIP3   OH261300   4.822   1.813  12.504  0.3641 -0.3656 -0.2984
13270TIP3    H161301   4.847   1.831  12.595 -0.3221  0.2550 -0.2166
13270TIP3    H261302   4.901   1.778  12.464  1.1043  0.6786  0.1728
13271TIP3   OH261303   2.660   4.430   0.972  0.3679  0.4924  0.0402
13271TIP3    H161304   2.654   4.497   0.904 -1.1941 -0.4062 -0.7686
13271TIP3    H261305   2.719   4.364   0.936 -1.7175 -0.7858 -1.2581
13272TIP3   OH261306   4.869   0.147   5.539 -0.1938  0.0435  0.4081
13272TIP3    H161307   4.953   0.109   5.512 -0.0275 -0.3881  1.4847
13272TIP3    H261308   4.842   0.094   5.615  0.8150  2.9384  3.0110
13273TIP3   OH261309   0.582   1.936  15.305 -0.7042 -0.0261  0.6445
13273TIP3    H161310   0.555   1.884  15.380 -1.4042 -0.3213  0.1949
13273TIP3    H261311   0.503   1.948  15.253 -0.3031  0.4612  0.1203
13274TIP3   OH261312   3.640   5.114  11.849  0.1000 -0.4150  0.2849
13274TIP3    H161313   3.707   5.177  11.876 -0.3397 -0.1801  0.8500
13274TIP3    H261314   3.612   5.143  11.762  1.4110 -1.0760 -0.3862
13275TIP3   OH261315   0.521   6.379   1.164 -0.3020 -0.4828 -0.3218
13275TIP3    H161316   0.604   6.378   1.116  0.0528 -3.1800  0.2134
13275TIP3    H261317   0.522   6.299   1.215 -3.3861 -0.7450 -0.4971
13276TIP3   OH261318   5.413   3.549   0.332 -0.4238 -0.4673  0.7614
13276TIP3    H161319   5.320   3.571   0.339 -0.0791  1.6599 -0.5182
13276TIP3    H261320   5.416   3.478   0.267 -1.2671 -2.0956  2.3888
13277TIP3   OH261321   1.621   5.330  13.116  0.2081  0.1680 -0.8965
13277TIP3    H161322   1.700   5.325  13.169 -0.4329  1.3361  0.1972
13277TIP3    H261323   1.632   5.408  13.062  1.0463 -1.2273 -2.8867
13278TIP3   OH261324   1.567   5.497   0.087 -0.0956 -0.1351  0.1824
13278TIP3    H161325   1.506   5.565   0.116  2.5659  1.2763  3.2037
13278TIP3    H261326   1.574   5.438   0.162  0.9207 -1.2089 -0.7254
13279TIP3   OH261327   4.870   1.292   3.921 -0.4388  0.0359 -0.2278
13279TIP3    H161328   4.921   1.261   3.995  0.3852  0.2874 -0.6824
13279TIP3    H261329   4.804   1.350   3.960 -0.2579 -0.1317  0.3380
13280TIP3   OH261330   0.573   0.418  11.269 -0.1900 -0.6889 -0.0200
13280TIP3    H161331   0.610   0.330  11.259 -0.5774 -0.8445 -0.1212
13280TIP3    H261332   0.637   0.465  11.322 -0.4849 -1.3681  0.9781
13281TIP3   OH261333   1.238   5.676   3.183 -0.2210  0.1435 -0.2742
13281TIP3    H161334   1.314   5.705   3.134  0.6783 -2.0204 -0.2693
13281TIP3    H261335   1.264   5.685   3.275 -0.0950 -0.2717 -0.2680
13282TIP3   OH261336   5.336   4.314  11.636 -0.0857 -0.5983  0.3104
13282TIP3    H161337   5.299   4.306  11.723 -0.2753 -1.0765  0.1897
13282TIP3    H261338   5.262   4.302  11.577  0.2191 -1.3853  0.0688
13283TIP3   OH261339   4.670   3.812  16.365  0.5435  0.2227  0.1300
13283TIP3    H161340   4.742   3.773  16.415  0.1200  0.7852  1.2117
13283TIP3    H261341   4.620   3.737  16.333 -0.4142 -0.1913  2.4102
13284TIP3   OH261342   1.880   6.146   2.515  0.1398  0.0891  0.0925
13284TIP3    H161343   1.816   6.076   2.513 -0.5431  0.7112 -0.6694
13284TIP3    H261344   1.828   6.226   2.519  0.9095  0.5512  1.5911
13285TIP3   OH261345   5.137   6.104  15.381  0.3065  0.2086  0.4470
13285TIP3    H161346   5.126   6.107  15.476  1.0978  0.6458  0.5234
13285TIP3    H261347   5.096   6.021  15.356 -1.4892  0.8734  0.9466
13286TIP3   OH261348   5.601   3.124   4.643  0.2219  0.1077  0.0186
13286TIP3    H161349   5.602   3.219   4.654 -0.5723 -0.0154  1.2377
13286TIP3    H261350   5.694   3.101   4.632  0.7050  0.7602  2.2769
13287TIP3   OH261351   6.592   3.106   5.017  0.3720 -0.2539 -0.0051
13287TIP3    H161352   6.605   3.011   5.015 -0.1866 -0.4265  2.0763
13287TIP3    H261353   6.503   3.118   5.049  0.7353  0.9659  0.6296
13288TIP3   OH261354   4.982   3.397  15.818 -0.2227 -0.0330  0.0385
13288TIP3    H161355   5.061   3.382  15.870 -0.9752  0.1551  1.2986
13288TIP3    H261356   4.988   3.333  15.747  0.5552 -0.7564  0.7201
13289TIP3   OH261357   0.667   6.756  12.513  0.4497  0.1719  0.2134
13289TIP3    H161358   0.752   6.741  12.470  0.4381  1.9102 -0.5004
13289TIP3    H261359   0.679   6.838  12.560 -0.8966  0.5389 -0.0534
13290TIP3   OH261360   2.513   1.692   6.105  0.7848  0.1172  0.6704
13290TIP3    H161361   2.421   1.690   6.080  0.6362 -1.3780  1.2485
13290TIP3    H261362   2.517   1.637   6.184  2.2298 -0.1288  0.4417
13291TIP3   OH261363   2.024   6.129  16.076 -0.0567 -0.0184 -0.3128
13291TIP3    H161364   2.091   6.150  16.141 -0.4733 -0.6119  0.3348
13291TIP3    H261365   1.947   6.180  16.103 -0.0225  0.2685 -0.7503
13292TIP3   OH261366   3.085   3.041   4.205 -0.3365 -0.1852 -0.1411
13292TIP3    H161367   3.023   3.091   4.258 -0.2563 -0.5558  0.3097
13292TIP3    H261368   3.111   2.968   4.261 -0.7101 -0.9283 -0.9017
13293TIP3   OH261369   3.998   2.501  16.217 -0.3350  0.5725 -0.7349
13293TIP3    H161370   3.963   2.553  16.289 -0.9291 -1.1961  0.3180
13293TIP3    H261371   3.921   2.457  16.180  0.5324 -2.6508  0.9992
13294TIP3   OH261372   5.638   5.028  15.884 -0.1972 -0.3081 -0.4887
13294TIP3    H161373   5.606   4.945  15.917  0.9523 -0.6826 -0.2806
13294TIP3    H261374   5.662   5.010  15.793  1.3246 -0.5761 -0.0579
13295TIP3   OH261375   2.214   4.443   1.187 -0.7789  0.4412 -0.4505
13295TIP3    H161376   2.171   4.440   1.273 -0.6942 -2.0126 -0.3986
13295TIP3    H261377   2.150   4.486   1.130 -1.9912 -0.3009  0.2998
13296TIP3   OH261378   4.654   1.045   2.868  0.1545  0.4485 -0.2284
13296TIP3    H161379   4.577   1.093   2.839  0.8571  1.3727 -0.6086
13296TIP3    H261380   4.693   1.010   2.788  0.2947  0.2372 -0.0707
13297TIP3   OH261381   4.711   5.431  13.239  0.2804  0.1294  0.2770
13297TIP3    H161382   4.777   5.490  13.276  1.3518 -1.1416  0.4763
13297TIP3    H261383   4.632   5.484  13.232  1.1122  1.4790  0.7717
13298TIP3   OH261384   6.177   4.619   4.948  0.2844 -0.7855  0.5210
13298TIP3    H161385   6.229   4.673   4.889  0.1002 -1.3991 -0.2146
13298TIP3    H261386   6.239   4.555   4.983  0.4125 -0.3714  1.0804
13299TIP3   OH261387   1.772   5.247  15.998  0.1156 -0.3094 -0.3574
13299TIP3    H161388   1.703   5.194  16.037  1.3034 -1.7667 -0.1454
13299TIP3    H261389   1.739   5.272  15.912 -0.0644 -2.3304 -0.9061
13300TIP3   OH261390   2.625   1.957  10.501 -0.0712 -0.2838 -0.0371
13300TIP3    H161391   2.548   1.976  10.447 -0.0663 -1.1226 -0.3485
13300TIP3    H261392   2.635   2.035  10.556  0.9468  1.3841 -2.4347
13301TIP3   OH261393   3.911   4.676   0.453 -0.5443  0.3490 -0.4265
13301TIP3    H161394   3.889   4.592   0.412 -0.9755  0.9564 -1.4988
13301TIP3    H261395   3.893   4.741   0.385  0.3581  1.2674  0.1827
13302TIP3   OH261396   0.629   0.072   2.820  0.1392  0.5557 -0.1135
13302TIP3    H161397   0.701   0.116   2.863  0.0481  1.1870 -0.5952
13302TIP3    H261398   0.613   0.123   2.741 -0.4263  0.0634 -0.3272
13303TIP3   OH261399   6.353   1.849   0.678  0.1691  0.5657 -0.0680
13303TIP3    H161400   6.284   1.900   0.636  2.6002  1.2173 -3.6463
13303TIP3    H261401   6.372   1.778   0.616 -0.1079 -2.2607  2.8016
13304TIP3   OH261402   6.815   5.969   2.804  0.0165  0.1278 -0.0593
13304TIP3    H161403   6.800   5.986   2.711  0.2750 -0.0666 -0.1359
13304TIP3    H261404   6.888   6.026   2.828  0.8411 -0.8017 -0.3004
13305TIP3   OH261405   2.922   3.791  11.427  0.0696 -0.0502  0.2980
13305TIP3    H161406   2.917   3.783  11.331  2.2303 -2.2361  0.2442
13305TIP3    H261407   2.943   3.883  11.442  1.4876  0.0018 -1.5210
13306TIP3   OH261408   0.562   3.125  14.884 -0.4177  0.0402  0.2090
13306TIP3    H161409   0.546   3.160  14.972  0.4243  0.9868  0.0106
13306TIP3    H261410   0.475   3.105  14.850 -0.7224 -1.0914  1.5388
13307TIP3   OH261411   0.635   5.286   2.047 -0.1900  0.0843 -0.5816
13307TIP3    H161412   0.618   5.192   2.051 -3.5771  0.5721 -0.9654
13307TIP3    H261413   0.589   5.316   1.969 -2.3838  2.5748  1.5069
13308TIP3   OH261414   4.554   0.005  16.813 -0.5483 -0.1468 -0.7415
13308TIP3    H161415   4.494  -0.038  16.875  1.1275 -1.7865 -0.1779
13308TIP3    H261416   4.535   0.098  16.824 -1.2321 -0.4560  1.2974
13309TIP3   OH261417   6.753   2.612  14.522 -0.2124  0.5228  0.6978
13309TIP3    H161418   6.846   2.591  14.519 -0.1764  0.3017  2.4309
13309TIP3    H261419   6.713   2.554  14.457  0.9488  1.3603 -0.8358
13310TIP3   OH261420   4.594   0.622  14.593 -0.2050  0.6070  0.6611
13310TIP3    H161421   4.517   0.620  14.537  0.5045  2.3188 -0.4533
13310TIP3    H261422   4.581   0.550  14.655 -2.8161  1.0222  0.6922
13311TIP3   OH261423   3.608   2.305  15.979 -0.0971  0.5132 -0.1537
13311TIP3    H161424   3.653   2.245  16.038  1.9435  0.8680 -1.2850
13311TIP3    H261425   3.582   2.251  15.904 -0.2964  0.6063 -0.1540
13312TIP3   OH261426   0.377   1.424  12.034 -0.5221  0.0283  0.5492
13312TIP3    H161427   0.376   1.417  12.130 -1.3418  0.8338  0.6097
13312TIP3    H261428   0.383   1.333  12.004 -1.2309 -0.3046  1.3627
13313TIP3   OH261429   1.596   4.372  15.539  0.1289 -0.7502  0.4433
13313TIP3    H161430   1.573   4.385  15.447  1.7204 -0.2225  0.0858
13313TIP3    H261431   1.524   4.412  15.588 -0.8794 -1.2992 -0.5661
13314TIP3   OH261432   6.534   3.801   2.576  0.5752  0.3439 -0.4421
13314TIP3    H161433   6.514   3.806   2.670  2.0949  0.8943 -0.1134
13314TIP3    H261434   6.498   3.717   2.548 -0.6354  0.5451  0.4394
13315TIP3   OH261435   2.856   2.671   1.661 -0.7916 -0.4492 -0.6292
13315TIP3    H161436   2.831   2.758   1.692  0.1291  0.6998 -2.8661
13315TIP3    H261437   2.776   2.619   1.668 -0.9162 -0.0308  2.4591
13316TIP3   OH261438   1.104   4.048   5.819  0.0856 -0.2583  0.0805
13316TIP3    H161439   1.126   4.016   5.731 -0.8491  0.7385 -0.5513
13316TIP3    H261440   1.167   4.005   5.877 -0.4061 -2.3440 -0.8249
13317TIP3   OH261441   1.091   2.814  17.008  0.3459 -0.1887  0.6111
13317TIP3    H161442   1.074   2.851  16.921 -1.0773  0.0140  0.9547
13317TIP3    H261443   1.103   2.720  16.992 -3.9086 -0.8892  0.5517
13318TIP3   OH261444   3.905   5.934   2.975  0.1437  0.0163  0.5479
13318TIP3    H161445   3.932   5.884   3.052  0.7246 -0.7898 -0.1615
13318TIP3    H261446   3.985   5.947   2.924 -0.4241 -0.5286 -0.5224
13319TIP3   OH261447   4.378   3.249   2.345 -0.2644 -0.7168 -0.2700
13319TIP3    H161448   4.424   3.222   2.425 -0.6489 -0.1512  0.1452
13319TIP3    H261449   4.446   3.250   2.278  0.0390 -1.3188  0.0194
13320TIP3   OH261450   3.502   4.785   1.169  0.2101 -0.3855 -0.2165
13320TIP3    H161451   3.566   4.833   1.116  1.8117 -2.1295  0.0480
13320TIP3    H261452   3.499   4.698   1.130  0.0970 -1.1773  1.4945
13321TIP3   OH261453   5.800   1.780   2.034 -0.2325 -0.2986 -0.3262
13321TIP3    H161454   5.788   1.836   2.111 -0.8231  0.0886 -0.6884
13321TIP3    H261455   5.878   1.729   2.054 -1.1537 -1.2153  1.1387
13322TIP3   OH261456   5.030   4.290   5.699  0.2405  0.3667 -0.2516
13322TIP3    H161457   4.953   4.344   5.716 -1.8956 -1.7417 -2.3731
13322TIP3    H261458   5.035   4.231   5.773 -0.8997 -0.1867 -0.5931
13323TIP3   OH261459   2.117   4.991   0.101  0.2032  0.5153 -0.6531
13323TIP3    H161460   2.068   5.074   0.102 -1.0619 -0.1678  1.2125
13323TIP3    H261461   2.208   5.017   0.087 -0.3291  2.1038 -1.4045
13324TIP3   OH261462   5.703   2.732  15.083 -0.7095 -0.0292  0.3053
13324TIP3    H161463   5.753   2.812  15.098 -0.3712 -0.2958  0.6026
13324TIP3    H261464   5.687   2.731  14.988 -0.0450 -0.0050  0.1892
13325TIP3   OH261465   3.042   1.504  16.830 -0.0133  0.2473  0.3222
13325TIP3    H161466   3.002   1.591  16.839  0.3084  0.6051 -1.3529
13325TIP3    H261467   3.091   1.508  16.748  2.2607 -0.6776  1.5402
13326TIP3   OH261468   2.330   0.362  15.979 -0.5076  0.1249  0.1069
13326TIP3    H161469   2.366   0.377  15.891  0.5856 -0.4484  0.4384
13326TIP3    H261470   2.262   0.295  15.966  0.0141 -0.3479 -0.2336
13327TIP3   OH261471   5.973   1.944   1.251 -0.6670 -0.0496  0.3736
13327TIP3    H161472   6.027   1.903   1.184  1.8217 -0.1585  2.2990
13327TIP3    H261473   5.994   1.896   1.331 -1.2256  1.9670  1.7990
13328TIP3   OH261474   1.072   6.492  14.775  0.1694  0.2588 -0.2019
13328TIP3    H161475   1.009   6.532  14.836  1.0755  0.6740  0.4922
13328TIP3    H261476   1.080   6.402  14.806 -0.7090 -0.0431 -0.8157
13329TIP3   OH261477   0.722   6.178  11.272 -0.1529 -0.0868 -0.4361
13329TIP3    H161478   0.738   6.272  11.259 -0.5841 -0.0061 -0.3651
13329TIP3    H261479   0.649   6.158  11.214 -0.1075 -0.3679 -0.3959
13330TIP3   OH261480   4.596   3.590   0.649  0.2369  0.1889  0.2378
13330TIP3    H161481   4.507   3.594   0.615  0.3176 -2.1454 -0.4235
13330TIP3    H261482   4.620   3.681   0.666 -2.1562  0.8744  0.1851
13331TIP3   OH261483   3.528   6.061  14.546  0.2947  0.7517  0.1993
13331TIP3    H161484   3.549   5.968  14.545  1.9976  1.0637  1.3013
13331TIP3    H261485   3.612   6.105  14.531 -0.6298  2.1288 -1.3578
13332TIP3   OH261486   6.130   5.507  13.456 -0.3739  0.2829  0.3883
13332TIP3    H161487   6.204   5.552  13.415 -0.4093 -1.3050 -1.5567
13332TIP3    H261488   6.087   5.461  13.384  0.0636 -3.4163  2.2560
13333TIP3   OH261489   0.915   2.327  12.029 -0.3871 -0.1498 -0.2642
13333TIP3    H161490   0.943   2.285  11.947 -2.4853 -1.3294 -0.4412
13333TIP3    H261491   0.851   2.266  12.066  1.3870 -0.2565  2.9254
13334TIP3   OH261492   0.544   0.439   5.696  0.8946 -0.6087  0.2529
13334TIP3    H161493   0.568   0.381   5.625  0.5822 -0.6103  0.1474
13334TIP3    H261494   0.452   0.419   5.713  0.4687  0.6083 -0.5056
13335TIP3   OH261495   0.490   1.043  16.060 -0.1698  0.5849  0.0481
13335TIP3    H161496   0.460   1.094  16.135 -1.8724  0.3494 -0.4321
13335TIP3    H261497   0.410   1.026  16.009  0.6235 -1.0169 -0.7289
13336TIP3   OH261498   3.821   6.120  10.852 -0.6445 -0.2407  0.4274
13336TIP3    H161499   3.749   6.064  10.823  0.1262 -0.4481 -1.2359
13336TIP3    H261500   3.800   6.206  10.817 -0.7100 -0.0155  1.0261
13337TIP3   OH261501   0.029   1.153  16.432  0.2366  0.8084 -0.0471
13337TIP3    H161502  -0.008   1.181  16.516  0.8896 -0.2122  0.6005
13337TIP3    H261503  -0.046   1.146  16.374 -0.3855  0.3799  0.7868
13338TIP3   OH261504   4.980   5.338   1.156 -0.1536  0.1468 -0.2324
13338TIP3    H161505   5.062   5.368   1.195 -0.9685  1.8277  0.2686
13338TIP3    H261506   4.997   5.341   1.061  0.5108  0.0114 -0.1246
13339TIP3   OH261507   1.550   5.776   1.207 -0.2595 -0.0411 -0.0890
13339TIP3    H161508   1.590   5.836   1.145  0.8575 -1.0259 -0.3610
13339TIP3    H261509   1.550   5.823   1.290 -1.8271  1.3106 -0.8104
13340TIP3   OH261510   0.897   3.300   2.994  0.3199 -0.2601 -0.4197
13340TIP3    H161511   0.972   3.297   3.053  0.1233  0.8703 -0.0939
13340TIP3    H261512   0.821   3.283   3.050  0.2701 -0.8999 -0.6624
13341TIP3   OH261513   2.726   5.065  16.525  0.0970  0.1333 -0.1833
13341TIP3    H161514   2.707   5.034  16.436  1.2353  0.7289 -0.6531
13341TIP3    H261515   2.655   5.029  16.578  0.6032 -2.1251 -0.9367
13342TIP3   OH261516   1.166   1.969  12.080  0.0151  0.2043  0.1268
13342TIP3    H161517   1.156   1.877  12.104 -0.6903  0.7001  1.9439
13342TIP3    H261518   1.225   1.968  12.006  0.8084 -1.6562  0.7142
13343TIP3   OH261519   3.412   6.797  16.052 -0.1959  0.3756 -0.1947
13343TIP3    H161520   3.444   6.846  16.128 -2.3586  0.1216  0.9547
13343TIP3    H261521   3.413   6.705  16.082 -1.6768  0.3395 -0.2001
13344TIP3   OH261522   4.670   5.101   5.405 -0.4171 -0.1477 -0.2753
13344TIP3    H161523   4.629   5.181   5.439 -2.4261 -0.7808 -1.0999
13344TIP3    H261524   4.715   5.129   5.326 -0.8831  0.2317 -0.4121
13345TIP3   OH261525   2.093   6.228   2.905  0.0214  0.1036  0.3646
13345TIP3    H161526   2.049   6.311   2.890  1.6605  0.8667 -0.4033
13345TIP3    H261527   2.177   6.251   2.944  0.6232 -1.1679 -0.1136
13346TIP3   OH261528   2.182   0.512   2.064 -0.0823 -0.1189  0.0520
13346TIP3    H161529   2.210   0.448   1.999 -0.3430 -0.9279  0.7267
13346TIP3    H261530   2.245   0.583   2.055 -0.0384 -0.2624 -0.9939
13347TIP3   OH261531   4.088   3.264   1.306 -0.3767  0.2178  0.1550
13347TIP3    H161532   4.010   3.303   1.267  0.2538  1.7179  0.2885
13347TIP3    H261533   4.152   3.263   1.236 -0.4177 -0.7517  0.1195
13348TIP3   OH261534   4.917   1.403  14.160  0.6789 -0.1060  0.4224
13348TIP3    H161535   4.858   1.456  14.214  2.0631  0.6618  1.2412
13348TIP3    H261536   4.974   1.359  14.224  1.2193 -0.5523 -0.3572
13349TIP3   OH261537   4.330   1.809   1.390 -0.1850 -0.7512  0.0190
13349TIP3    H161538   4.325   1.840   1.299 -0.2761 -1.9332 -0.3940
13349TIP3    H261539   4.248   1.761   1.403  0.6418 -2.1839  0.1021
13350TIP3   OH261540   3.649   5.530  12.702  0.3311 -0.2422  0.2842
13350TIP3    H161541   3.633   5.436  12.692  2.1578 -0.5045 -0.7395
13350TIP3    H261542   3.703   5.537  12.781  1.5872 -0.2673 -0.5496
13351TIP3   OH261543   3.349   6.190   1.161 -0.3808  0.7562 -0.1716
13351TIP3    H161544   3.339   6.095   1.169  0.8721  0.7747  2.7750
13351TIP3    H261545   3.265   6.225   1.188  0.2257  0.4887  2.2565
13352TIP3   OH261546   5.937   0.987  15.399 -0.0663 -0.1194 -0.1973
13352TIP3    H161547   5.986   0.945  15.328  0.0511 -1.1025  0.4457
13352TIP3    H261548   5.987   1.066  15.419 -1.2213  1.3513 -2.6130
13353TIP3   OH261549   2.495   0.737   3.585 -0.0608  0.0306 -0.3127
13353TIP3    H161550   2.423   0.776   3.535 -0.6893  2.0032  1.9107
13353TIP3    H261551   2.564   0.803   3.582  0.6254 -0.6800 -0.2032
13354TIP3   OH261552   6.419   5.043   1.124 -0.1160  0.1841  0.3538
13354TIP3    H161553   6.470   5.057   1.204 -0.3008 -1.0311  0.7008
13354TIP3    H261554   6.330   5.071   1.148  0.3509  2.4069 -0.2849
13355TIP3   OH261555   0.201   5.527   5.851  0.3682  0.1783  0.1894
13355TIP3    H161556   0.256   5.488   5.783  0.4621  0.8471 -0.1387
13355TIP3    H261557   0.136   5.460   5.872  1.8354 -0.9714  1.2331
13356TIP3   OH261558   1.546   5.036  11.024 -0.5448  0.1444 -0.2753
13356TIP3    H161559   1.511   5.102  10.965 -0.4985  1.1015  0.7394
13356TIP3    H261560   1.540   4.954  10.975 -0.3607  0.9316 -1.6538
13357TIP3   OH261561   1.033   5.701  14.035  0.2182  0.2534 -0.3192
13357TIP3    H161562   0.972   5.653  13.980  0.5589  0.5869 -1.0088
13357TIP3    H261563   1.012   5.793  14.020  0.0860  0.3431  0.3826
13358TIP3   OH261564   2.485   5.492   4.453  0.2095  0.3772  0.7304
13358TIP3    H161565   2.411   5.483   4.513 -0.7417 -1.4412 -0.6213
13358TIP3    H261566   2.445   5.518   4.369  0.6423 -3.2006 -0.7444
13359TIP3   OH261567   2.734   3.288   6.351 -0.3564  0.1072  0.0463
13359TIP3    H161568   2.785   3.357   6.308 -0.2044  0.6312  1.0294
13359TIP3    H261569   2.734   3.313   6.444 -0.4801 -1.1135  0.3844
13360TIP3   OH261570   6.216   2.205  10.326  0.0079 -0.0050  0.3942
13360TIP3    H161571   6.264   2.282  10.358 -0.7352  0.4382  0.4701
13360TIP3    H261572   6.124   2.231  10.330 -0.1868 -0.4037 -0.8618
13361TIP3   OH261573   3.762   3.967  15.165 -0.0521 -0.3200 -0.2929
13361TIP3    H161574   3.817   3.978  15.243 -0.5181 -1.5361  0.2348
13361TIP3    H261575   3.815   3.914  15.105 -1.1478 -2.9434  0.8713
13362TIP3   OH261576   3.539   2.201   3.861  0.7942 -0.5261  0.3579
13362TIP3    H161577   3.458   2.224   3.814  2.1562  0.6528 -1.5888
13362TIP3    H261578   3.553   2.108   3.839  1.1288 -0.1349 -1.2359
13363TIP3   OH261579   5.068   6.678  13.079  0.4626 -0.0913 -0.2464
13363TIP3    H161580   5.034   6.754  13.126  0.3863  1.6256 -2.8978
13363TIP3    H261581   5.037   6.603  13.130 -2.8850  1.5197  0.3551
13364TIP3   OH261582   1.471   2.303   2.003  0.3178 -0.6751 -0.0642
13364TIP3    H161583   1.463   2.215   2.040 -2.0148 -1.3376 -1.9117
13364TIP3    H261584   1.519   2.289   1.921 -0.1870 -0.2608 -0.4307
13365TIP3   OH261585   5.041   5.018   3.404  0.6148  0.2478 -0.1722
13365TIP3    H161586   5.121   4.990   3.360 -0.9046 -0.2644 -2.8342
13365TIP3    H261587   5.028   5.108   3.374 -0.1994  0.0512 -0.4496
13366TIP3   OH261588   0.470   5.766   5.722  0.5538 -0.4983  0.1258
13366TIP3    H161589   0.512   5.793   5.640  0.2479 -0.1577  0.0781
13366TIP3    H261590   0.386   5.813   5.722  0.9197  0.1723  1.0459
13367TIP3   OH261591   3.331   0.265  12.578 -0.6078 -0.3294  0.0688
13367TIP3    H161592   3.398   0.254  12.511 -0.6713 -0.5417  0.0379
13367TIP3    H261593   3.289   0.348  12.557  0.6365  0.5680  0.9656
13368TIP3   OH261594   5.714   6.677   2.785  0.4487 -0.3861 -0.1552
13368TIP3    H161595   5.777   6.744   2.813  0.3533 -0.7858  1.0930
13368TIP3    H261596   5.765   6.596   2.785  0.5488 -0.3452 -1.6017
13369TIP3   OH261597   0.064   5.169  12.566 -0.2843  0.3278  0.0127
13369TIP3    H161598   0.051   5.264  12.561 -2.7263  0.0686  0.5528
13369TIP3    H261599   0.049   5.147  12.657  0.4557 -0.5911 -0.0706
13370TIP3   OH261600   6.685   5.467  11.930  0.0172 -0.4512 -0.2994
13370TIP3    H161601   6.756   5.430  11.983 -0.8025 -0.8571  0.5446
13370TIP3    H261602   6.703   5.561  11.927  0.4216 -0.5124  0.1543
13371TIP3   OH261603   6.536   1.173  15.541  0.2922  0.7830 -0.1131
13371TIP3    H161604   6.442   1.172  15.525  0.4054  0.4186 -0.7708
13371TIP3    H261605   6.575   1.152  15.457  0.9888  1.5350  0.0075
13372TIP3   OH261606   1.519   4.327   1.092  0.4259 -0.1763  0.0513
13372TIP3    H161607   1.463   4.316   1.169  0.5961  0.6904  0.3087
13372TIP3    H261608   1.584   4.257   1.100 -1.5551 -2.2971 -1.1534
13373TIP3   OH261609   1.878   4.255  11.826 -0.4439 -0.4217  0.0661
13373TIP3    H161610   1.930   4.237  11.748  2.6026  0.4202  1.7265
13373TIP3    H261611   1.923   4.208  11.896 -4.4256 -3.2032  1.1163
13374TIP3   OH261612   3.131   5.341   3.082  0.2461  0.1121  0.2311
13374TIP3    H161613   3.167   5.253   3.068  0.3622  0.3419 -1.0500
13374TIP3    H261614   3.188   5.380   3.147 -0.3673 -1.0762  1.5448
13375TIP3   OH261615   0.529   3.036   3.353  0.0899  0.1300 -0.0692
13375TIP3    H161616   0.446   3.004   3.389 -1.1362  0.5961 -2.2710
13375TIP3    H261617   0.573   2.957   3.321 -1.3956  0.1635 -2.4547
13376TIP3   OH261618   4.750   4.748  17.140  0.3560  0.3299 -0.1035
13376TIP3    H161619   4.764   4.767  17.233 -1.8309  0.4895  0.2463
13376TIP3    H261620   4.829   4.780  17.097  1.1294  0.8649  1.6226
13377TIP3   OH261621   3.389   5.086   2.787  0.0899  0.3758 -0.1919
13377TIP3    H161622   3.321   5.072   2.720 -0.9556  0.5724  0.8000
13377TIP3    H261623   3.416   4.998   2.812  0.8149  0.3007 -1.1757
13378TIP3   OH261624   6.334   3.331   5.040 -0.3164  0.0502  0.6806
13378TIP3    H161625   6.355   3.420   5.067 -1.0597  0.4240  0.0331
13378TIP3    H261626   6.275   3.341   4.965  1.2938 -0.9653 -0.7961
13379TIP3   OH261627   4.560   6.664  13.491 -0.3159  0.5421 -0.7702
13379TIP3    H161628   4.532   6.581  13.453  0.3540 -0.5948  1.1059
13379TIP3    H261629   4.480   6.717  13.496 -0.6922  0.1703 -2.2741
13380TIP3   OH261630   4.648   6.795   3.737  0.0669 -0.6471  0.9660
13380TIP3    H161631   4.688   6.878   3.710 -0.4525 -0.6029  0.2867
13380TIP3    H261632   4.615   6.812   3.825 -2.2552  0.7144 -0.0526
13381TIP3   OH261633   0.734   5.421  17.064 -0.6703  0.4196  0.3342
13381TIP3    H161634   0.807   5.371  17.101  0.3079  1.7612  0.3204
13381TIP3    H261635   0.695   5.466  17.138 -2.5415 -1.4936  0.5889
13382TIP3   OH261636   2.075   0.775  12.924 -0.5032 -0.0756  0.7208
13382TIP3    H161637   2.153   0.767  12.978 -0.8625 -0.7005  1.1541
13382TIP3    H261638   2.055   0.685  12.897 -1.2376  0.0413  0.8536
13383TIP3   OH261639   1.229   5.287   1.141 -0.1278 -0.4043  0.0542
13383TIP3    H161640   1.278   5.314   1.218 -2.2462 -0.2636  1.4284
13383TIP3    H261641   1.222   5.192   1.149  1.5804 -0.6933 -1.2360
13384TIP3   OH261642   3.001   4.138  15.718  0.2578  0.5335  0.2806
13384TIP3    H161643   2.969   4.072  15.779 -0.3031  1.2386  0.7706
13384TIP3    H261644   3.044   4.203  15.774  1.3454  0.2896 -0.2504
13385TIP3   OH261645   4.391   3.940   2.977  0.3396 -0.0188  0.5432
13385TIP3    H161646   4.456   3.874   2.999 -1.6423 -1.2447  3.4701
13385TIP3    H261647   4.331   3.897   2.917  1.0595  0.4152 -0.5054
13386TIP3   OH261648   2.348   0.024  16.938 -0.3705 -0.3736  0.6902
13386TIP3    H161649   2.430  -0.016  16.908 -1.7981 -0.9662 -3.0057
13386TIP3    H261650   2.279  -0.032  16.901 -2.5203  0.4534  3.1150
13387TIP3   OH261651   6.019   5.770  12.607 -1.0395  0.2164 -0.2601
13387TIP3    H161652   6.114   5.761  12.618 -1.3012 -0.4475  2.2325
13387TIP3    H261653   6.006   5.860  12.579  0.3565  0.0193 -1.6907
13388TIP3   OH261654   3.507   4.890   2.092 -0.0917 -0.2041  0.0604
13388TIP3    H161655   3.499   4.852   2.004 -0.8756  0.1140 -0.0142
13388TIP3    H261656   3.598   4.918   2.098 -0.3033  0.8371 -1.1130
13389TIP3   OH261657   3.755   2.027  12.100 -0.1590  0.6054 -0.2285
13389TIP3    H161658   3.798   1.941  12.102  0.1112  0.7043 -1.2681
13389TIP3    H261659   3.729   2.042  12.190 -0.6653 -0.8030 -0.1116
13390TIP3   OH261660   2.821   5.766  15.836 -0.2904  0.2101 -0.2454
13390TIP3    H161661   2.907   5.790  15.872  0.2053 -0.9732 -0.6123
13390TIP3    H261662   2.785   5.704  15.900 -0.5190  0.0753 -0.5044
13391TIP3   OH261663   5.114   2.905  14.988  0.7198  0.1545 -0.2329
13391TIP3    H161664   5.098   2.888  14.895 -0.4482  1.8670 -0.3936
13391TIP3    H261665   5.037   2.869  15.032  1.7211 -1.5241  0.2066
13392TIP3   OH261666   1.850   0.508   0.236 -0.3199  0.1051 -0.3207
13392TIP3    H161667   1.880   0.551   0.316  0.0648 -1.4715  0.4385
13392TIP3    H261668   1.762   0.542   0.221 -0.6834 -0.1064  1.2070
13393TIP3   OH261669   3.437   1.838  14.647 -0.5097 -0.1594  0.2464
13393TIP3    H161670   3.446   1.865  14.739  2.3249 -1.2886  0.3773
13393TIP3    H261671   3.406   1.748  14.651 -1.7669  0.2399  0.0102
13394TIP3   OH261672   3.807   2.534  15.226 -0.0458 -0.0375 -0.0248
13394TIP3    H161673   3.714   2.532  15.205  0.0417  0.8973 -0.5876
13394TIP3    H261674   3.838   2.446  15.208 -0.9716 -0.5854  0.9465
13395TIP3   OH261675   1.878   6.318   6.094  0.3402 -0.1927 -0.8382
13395TIP3    H161676   1.931   6.253   6.139  0.1754  0.9076  1.0480
13395TIP3    H261677   1.928   6.400   6.102  0.0750  0.1467 -2.2803
13396TIP3   OH261678   4.541   5.365   4.086  0.6060 -0.0895 -0.1261
13396TIP3    H161679   4.491   5.412   4.020 -2.4365 -2.2868  0.4015
13396TIP3    H261680   4.531   5.416   4.166 -1.1365 -0.6044  0.0263
13397TIP3   OH261681   1.300   1.909  11.662 -0.3071  0.3301 -0.1627
13397TIP3    H161682   1.393   1.900  11.686 -0.8485 -1.2504  1.6527
13397TIP3    H261683   1.253   1.899  11.745 -2.1865 -1.2908 -1.3148
13398TIP3   OH261684   4.575   6.467  15.011  0.4828  0.0380 -0.2136
13398TIP3    H161685   4.551   6.472  14.918  0.3774  2.4065 -0.1298
13398TIP3    H261686   4.671   6.464  15.010  0.5103  0.6952 -0.4164
13399TIP3   OH261687   4.683   4.468   4.878  0.4442  0.7502  0.2065
13399TIP3    H161688   4.754   4.417   4.840  0.0255 -0.0764  0.5148
13399TIP3    H261689   4.726   4.538   4.926  1.0322  0.5693 -0.0516
13400TIP3   OH261690   3.138   3.805   6.378  0.3562 -0.2504 -0.2605
13400TIP3    H161691   3.090   3.884   6.354  0.1831 -0.7672 -1.6748
13400TIP3    H261692   3.084   3.764   6.445  1.3865  1.7806  1.9812
13401TIP3   OH261693   0.367   0.080   2.738 -0.0506 -0.2654  0.1308
13401TIP3    H161694   0.432   0.126   2.790  1.4040 -0.0603 -1.7627
13401TIP3    H261695   0.417   0.016   2.687 -0.9304  1.2670 -2.9175
13402TIP3   OH261696   1.854   2.452  15.266 -0.4273 -0.0529 -0.2681
13402TIP3    H161697   1.826   2.388  15.332 -2.0193  0.8701  0.0057
13402TIP3    H261698   1.937   2.417  15.233 -1.1430 -2.1725 -0.0116
13403TIP3   OH261699   2.900   3.407  16.516 -0.4791 -0.2257  0.6341
13403TIP3    H161700   2.834   3.409  16.447 -1.0861  0.0535  1.2028
13403TIP3    H261701   2.936   3.496  16.518 -1.0517  0.0066  1.2103
13404TIP3   OH261702   1.421   1.562   1.639 -0.4055 -0.5490 -0.3078
13404TIP3    H161703   1.391   1.471   1.646  1.6169 -1.3297 -0.8902
13404TIP3    H261704   1.411   1.598   1.727 -0.3269 -1.6618  0.1721
13405TIP3   OH261705   3.849   6.486   0.960 -1.4422 -0.2565  0.2114
13405TIP3    H161706   3.854   6.567   0.909  1.7399 -0.7329 -0.4834
13405TIP3    H261707   3.894   6.507   1.042  1.5114 -1.7800 -0.8755
13406TIP3   OH261708   3.305   6.226  11.617  0.1997  0.1941 -0.1094
13406TIP3    H161709   3.298   6.259  11.528  2.3640  1.1303  0.0179
13406TIP3    H261710   3.292   6.131  11.609  0.6093  0.2435 -1.4594
13407TIP3   OH261711   1.403   6.794  16.044  0.0638 -0.0691 -0.7884
13407TIP3    H161712   1.440   6.707  16.054  0.2740  0.0841 -0.2025
13407TIP3    H261713   1.479   6.852  16.039 -0.0661  0.2719  0.6596
13408TIP3   OH261714   4.462   2.838  13.095  0.7206  0.4786  0.0507
13408TIP3    H161715   4.406   2.908  13.062  0.3522  0.8647  1.4665
13408TIP3    H261716   4.453   2.841  13.190  1.8108 -0.5703  0.2211
13409TIP3   OH261717   1.877   4.330   0.959  0.1727 -0.2407  0.3441
13409TIP3    H161718   1.851   4.303   0.871  3.2367 -1.1335 -0.4077
13409TIP3    H261719   1.852   4.257   1.016 -0.1686 -0.4598 -0.0858
13410TIP3   OH261720   5.304   3.369   6.042 -0.1078 -0.3438  0.3193
13410TIP3    H161721   5.304   3.465   6.035 -0.7313 -0.3037  0.7560
13410TIP3    H261722   5.228   3.350   6.098  0.4028 -1.0480  0.7799
13411TIP3   OH261723   6.379   0.386   3.817  0.1195 -1.0097  0.1741
13411TIP3    H161724   6.462   0.344   3.836  0.1362 -0.5511  1.1724
13411TIP3    H261725   6.342   0.408   3.903 -1.1547 -1.4400 -0.2334
13412TIP3   OH261726   2.368   1.283  15.728  0.1213 -0.0922 -0.3588
13412TIP3    H161727   2.332   1.372  15.732 -2.1534 -0.9452 -0.4479
13412TIP3    H261728   2.392   1.271  15.636  0.2455  0.3383 -0.3862
13413TIP3   OH261729   3.316   0.440   5.539 -0.0842 -0.4325  0.3129
13413TIP3    H161730   3.240   0.482   5.500  1.1756  0.2752 -1.5150
13413TIP3    H261731   3.291   0.348   5.549 -0.3387 -0.7736 -2.6944
13414TIP3   OH261732   3.498   6.269   3.569 -0.3768 -0.1818 -0.3185
13414TIP3    H161733   3.529   6.330   3.635  2.6133  1.3130 -2.8001
13414TIP3    H261734   3.570   6.206   3.559 -0.6074 -0.2243 -2.1779
13415TIP3   OH261735   6.496   0.383   5.680 -0.1582  0.1429  0.1050
13415TIP3    H161736   6.458   0.364   5.766  0.2178 -0.3735  0.1603
13415TIP3    H261737   6.571   0.440   5.698 -0.1768  0.1684  0.1018
13416TIP3   OH261738   1.859   3.517  16.581  0.0092 -0.7826  0.1255
13416TIP3    H161739   1.863   3.430  16.620 -1.0034 -0.3615  1.2221
13416TIP3    H261740   1.932   3.519  16.519 -0.0411 -2.4516 -0.0288
13417TIP3   OH261741   4.303   5.111   1.732  0.0392 -0.6510 -0.0937
13417TIP3    H161742   4.238   5.085   1.797  1.9675 -2.2733  1.3276
13417TIP3    H261743   4.350   5.183   1.773  0.4817 -0.8808 -0.1919
13418TIP3   OH261744   3.867   1.184  16.351  0.2665  0.2800 -0.5132
13418TIP3    H161745   3.818   1.265  16.367 -0.2423 -0.4632  2.1098
13418TIP3    H261746   3.926   1.206  16.278 -2.3272  1.8698 -2.2758
13419TIP3   OH261747   0.052   5.842  15.981  0.3120 -0.3236  0.0647
13419TIP3    H161748   0.041   5.800  15.895  1.5466  2.6338 -1.7015
13419TIP3    H261749  -0.027   5.894  15.993 -0.7548 -2.2204  1.7500
13420TIP3   OH261750   5.604   3.363  13.821 -0.9271  0.5453 -0.0315
13420TIP3    H161751   5.697   3.374  13.841 -1.0974  2.2997 -0.0714
13420TIP3    H261752   5.573   3.451  13.800 -2.5703 -0.0304 -0.1735
13421TIP3   OH261753   1.574   4.946  13.024 -0.4363 -0.1167  0.3516
13421TIP3    H161754   1.571   4.945  13.119 -1.6147  1.2139  0.3664
13421TIP3    H261755   1.637   5.016  13.003  0.6410 -1.1206  0.1202
13422TIP3   OH261756   5.268   5.467  12.133  0.5269 -0.6461 -0.2408
13422TIP3    H161757   5.184   5.472  12.178  0.8800  1.3377  0.2808
13422TIP3    H261758   5.245   5.467  12.040 -0.0668 -1.3094 -0.1092
13423TIP3   OH261759   1.588   5.326   0.539 -0.0783 -0.1718 -0.5542
13423TIP3    H161760   1.574   5.367   0.624 -0.2385 -0.5051 -0.4185
13423TIP3    H261761   1.516   5.358   0.484 -0.4779 -0.6363 -0.3124
13424TIP3   OH261762   2.579   0.096   0.199  0.2353  0.1899 -0.1800
13424TIP3    H161763   2.568   0.185   0.232 -0.3848  0.1639 -0.3109
13424TIP3    H261764   2.611   0.046   0.274 -0.2241  0.3412  0.1148
13425TIP3   OH261765   6.266   1.817   2.395  0.6395  0.0645 -0.2256
13425TIP3    H161766   6.342   1.837   2.340 -0.6095  0.1482 -2.0196
13425TIP3    H261767   6.281   1.727   2.424  1.4784  0.1246 -0.4298
13426TIP3   OH261768   3.137   4.293   2.500 -0.1088 -0.1959 -0.1917
13426TIP3    H161769   3.141   4.378   2.456  0.4631 -1.0440 -1.8781
13426TIP3    H261770   3.048   4.288   2.535 -0.7790  0.3167 -1.7352
13427TIP3   OH261771   6.556   6.689  15.423  0.4248 -0.0958  0.3783
13427TIP3    H161772   6.469   6.698  15.385  0.1219 -0.6825  0.9207
13427TIP3    H261773   6.615   6.720  15.354 -0.2376  0.9031  0.2408
13428TIP3   OH261774   6.552   1.275   5.697  0.4660  0.5709 -0.0850
13428TIP3    H161775   6.509   1.225   5.628 -0.8967  0.2276  0.9601
13428TIP3    H261776   6.578   1.357   5.655  1.7479 -0.5132 -1.5459
13429TIP3   OH261777   4.419   3.686  17.022  1.0724 -0.4299 -0.5233
13429TIP3    H161778   4.378   3.709  16.939 -0.0717 -1.8297 -0.3707
13429TIP3    H261779   4.448   3.596  17.011  0.1350 -0.9366  0.8626
13430TIP3   OH261780   4.020   3.487   2.701 -0.3738  0.4259 -0.1631
13430TIP3    H161781   4.088   3.528   2.648  0.6401 -0.6011  0.2923
13430TIP3    H261782   3.945   3.547   2.695  1.1452  2.5676  0.8156
13431TIP3   OH261783   2.991   3.609  13.918  1.1674 -0.5595  0.7930
13431TIP3    H161784   2.972   3.702  13.909  2.2122 -0.4207 -0.1819
13431TIP3    H261785   3.043   3.603  13.999  0.4331 -0.4157  1.2860
13432TIP3   OH261786   4.517   6.536  17.266 -0.4017 -0.7439  0.4790
13432TIP3    H161787   4.425   6.524  17.287 -0.3558 -2.8397 -0.3230
13432TIP3    H261788   4.533   6.478  17.192  1.1868  0.8507 -0.5225
13433TIP3   OH261789   4.032   4.918   3.437  0.2628 -0.1429  0.1505
13433TIP3    H161790   3.965   4.952   3.378 -0.3872 -2.1857 -0.3667
13433TIP3    H261791   4.093   4.872   3.379  0.2308 -1.2102  0.9368
13434TIP3   OH261792   2.503   5.755  14.800 -0.3463 -0.8390  0.0243
13434TIP3    H161793   2.458   5.800  14.872  0.3556  1.2118 -0.7496
13434TIP3    H261794   2.572   5.704  14.843 -0.4367 -0.2690  0.8761
13435TIP3   OH261795   3.160   2.349  12.537 -0.3276  0.0830  0.1012
13435TIP3    H161796   3.223   2.289  12.577 -1.5184 -0.8895  0.6075
13435TIP3    H261797   3.185   2.352  12.445  0.4947 -0.2375  0.3017
13436TIP3   OH261798   6.264   1.010  11.864 -0.1784  0.4541  0.3340
13436TIP3    H161799   6.191   0.976  11.916  0.0656 -0.9010 -0.1523
13436TIP3    H261800   6.250   0.974  11.776  1.0283  0.1990  0.2186
13437TIP3   OH261801   5.438   5.686   0.894 -0.3552 -0.0894  0.6932
13437TIP3    H161802   5.412   5.620   0.958  1.0347  0.0409  1.4293
13437TIP3    H261803   5.500   5.641   0.837 -0.0890  0.3343  0.6440
13438TIP3   OH261804   4.147   0.545  16.203  0.1290  0.0375  0.1391
13438TIP3    H161805   4.222   0.532  16.262 -2.1866  1.1562  3.6325
13438TIP3    H261806   4.184   0.592  16.129  2.9902  0.1480  1.4727
13439TIP3   OH261807   5.739   0.639  12.973 -0.4885  0.1397  0.1519
13439TIP3    H161808   5.750   0.704  13.042  0.7978 -1.1276  1.2161
13439TIP3    H261809   5.645   0.627  12.964 -0.6801 -0.4668  2.5050
13440TIP3   OH261810   2.008   4.353  14.634 -0.2940  0.0788  0.3487
13440TIP3    H161811   2.037   4.422  14.575 -0.6852 -0.3614 -0.3665
13440TIP3    H261812   2.029   4.272  14.588  0.0401 -0.2867  1.1224
13441TIP3   OH261813   1.557   5.482  16.622 -0.2268  0.0886  0.2184
13441TIP3    H161814   1.585   5.441  16.704 -0.4085 -1.6606 -0.5293
13441TIP3    H261815   1.590   5.571  16.626  1.9244 -0.6777  1.1284
13442TIP3   OH261816   6.124   2.504   4.676 -0.3827 -0.2855  0.0866
13442TIP3    H161817   6.208   2.465   4.701  0.3171  0.9631 -0.2340
13442TIP3    H261818   6.066   2.487   4.750  0.1820 -1.0603  0.3614
13443TIP3   OH261819   5.144   0.248  14.356  0.7108  0.0168 -0.3404
13443TIP3    H161820   5.237   0.262  14.340  0.6122 -0.3746 -1.3366
13443TIP3    H261821   5.101   0.317  14.306  0.4582  0.1367  0.0393
13444TIP3   OH261822   6.080   3.683   3.484 -0.1812 -0.0830  0.1433
13444TIP3    H161823   6.005   3.628   3.462  1.0978 -1.6300 -0.5924
13444TIP3    H261824   6.141   3.670   3.411  0.9174  0.9020  0.8489
13445TIP3   OH261825   4.077   6.722  12.406  0.5603 -0.3261 -0.1983
13445TIP3    H161826   4.140   6.766  12.349  0.2849 -1.5733 -1.5098
13445TIP3    H261827   4.107   6.742  12.495  0.7312  2.0503 -0.7275
13446TIP3   OH261828   6.451   1.030   3.894 -0.0712 -0.7115  0.8237
13446TIP3    H161829   6.447   0.973   3.818 -0.7766  0.1458  0.1864
13446TIP3    H261830   6.359   1.051   3.912  0.1991  0.6702  0.6810
13447TIP3   OH261831   3.559   2.464  11.402  0.4447  0.0624  0.0054
13447TIP3    H161832   3.474   2.446  11.362  0.7781  0.1401 -0.7469
13447TIP3    H261833   3.546   2.444  11.495 -0.8518  1.6074  0.1958
13448TIP3   OH261834   6.739   4.669  12.281  0.1733 -0.2497 -0.2434
13448TIP3    H161835   6.727   4.734  12.350  0.6578  1.3363 -1.5821
13448TIP3    H261836   6.650   4.640  12.259 -0.0445 -0.0835  0.4059
13449TIP3   OH261837   1.859   4.337   4.629 -0.4703  0.3657  0.1233
13449TIP3    H161838   1.872   4.292   4.712  2.4965 -0.5050 -0.7212
13449TIP3    H261839   1.869   4.269   4.563 -1.7477  1.2445 -1.0400
13450TIP3   OH261840   5.149   2.971   6.247  0.3380 -0.0378  0.6142
13450TIP3    H161841   5.098   3.039   6.203  2.4745  0.0653 -1.9525
13450TIP3    H261842   5.089   2.896   6.251 -1.0805  1.0559  0.7582
13451TIP3   OH261843   4.725   3.590   4.485  0.2229  0.0604  0.1303
13451TIP3    H161844   4.762   3.615   4.570 -1.1079  1.2315  0.3964
13451TIP3    H261845   4.749   3.661   4.426 -3.3330  2.0733  0.8244
13452TIP3   OH261846   5.325   0.594   2.232 -0.1761  0.3058  0.0628
13452TIP3    H161847   5.326   0.676   2.282 -1.1150  0.7518 -0.6151
13452TIP3    H261848   5.290   0.529   2.293  1.1233  0.2708  0.7888
13453TIP3   OH261849   3.236   5.262  14.335 -0.1802 -0.0470 -0.3141
13453TIP3    H161850   3.206   5.350  14.362 -3.4503 -1.2408  0.4730
13453TIP3    H261851   3.185   5.243  14.257 -3.1239 -2.8604  2.0039
13454TIP3   OH261852   2.219   4.836   5.060 -0.3972  0.6326 -0.1821
13454TIP3    H161853   2.149   4.858   5.121 -0.0645  1.7070 -0.1787
13454TIP3    H261854   2.295   4.818   5.116 -0.2153  1.1573 -0.2632
13455TIP3   OH261855   5.538   6.015   3.011  0.6794  0.4947  0.2993
13455TIP3    H161856   5.568   6.069   2.938 -0.3652 -1.4173 -1.6864
13455TIP3    H261857   5.443   6.028   3.013  0.5361 -0.4744  0.4352
13456TIP3   OH261858   0.338   0.845  16.478  0.6115  0.0924 -0.4249
13456TIP3    H161859   0.286   0.902  16.420 -0.7311 -1.8059 -1.1794
13456TIP3    H261860   0.274   0.807  16.538  1.5518 -0.2983  0.3549
13457TIP3   OH261861   6.811   0.891  12.619  0.3671  0.0448  0.3848
13457TIP3    H161862   6.729   0.936  12.636 -1.5064 -2.1679 -1.9732
13457TIP3    H261863   6.879   0.954  12.644 -2.0042  2.8000  0.4000
13458TIP3   OH261864   5.689   5.556  11.220  0.1074 -0.2842 -0.5260
13458TIP3    H161865   5.631   5.621  11.261  0.0985 -1.7405  2.0105
13458TIP3    H261866   5.776   5.578  11.254  0.2817 -0.8756 -0.5765
13459TIP3   OH261867   1.927   4.316  11.502  0.2185  0.7888  0.4579
13459TIP3    H161868   1.935   4.306  11.407 -2.6520 -1.2678  0.2956
13459TIP3    H261869   1.927   4.410  11.517  0.6637  1.1555 -1.5716
13460TIP3   OH261870   2.742   0.553   1.468  0.3011  0.3823  0.0103
13460TIP3    H161871   2.667   0.497   1.446  0.4042 -0.5655  1.8910
13460TIP3    H261872   2.818   0.504   1.437  0.2157  1.3472 -1.9042
13461TIP3   OH261873   0.941   0.308   2.085  0.1222 -0.3466 -0.3758
13461TIP3    H161874   1.015   0.366   2.065 -0.5572  0.5330 -0.4319
13461TIP3    H261875   0.908   0.282   2.000 -0.6534  0.6232 -0.3890
13462TIP3   OH261876   6.372   0.958  12.471  0.0853  0.1093  0.0604
13462TIP3    H161877   6.427   1.017  12.419  2.3074 -1.3017  0.6641
13462TIP3    H261878   6.300   0.933  12.412  1.3613  0.2041 -1.6125
13463TIP3   OH261879   5.744   2.710  13.898 -0.2639  0.5026  0.0552
13463TIP3    H161880   5.809   2.691  13.965  1.8688 -1.0441 -2.2573
13463TIP3    H261881   5.788   2.771  13.839 -1.2846  0.2185 -1.0352
13464TIP3   OH261882   1.782   2.348   4.110 -0.3031  0.3992 -0.2865
13464TIP3    H161883   1.874   2.328   4.124 -0.1926  2.0896  1.9770
13464TIP3    H261884   1.737   2.264   4.122  0.8107 -0.1098  0.4600
13465TIP3   OH261885   4.580   5.094   0.156  1.1483 -0.6210  0.4121
13465TIP3    H161886   4.643   5.166   0.153  0.1429  0.3304  0.9367
13465TIP3    H261887   4.515   5.123   0.220  0.2586 -1.6193 -0.0124
13466TIP3   OH261888   4.743   3.095   4.586  0.2611 -0.0846  0.2944
13466TIP3    H161889   4.832   3.078   4.617  0.8804  0.9360 -0.8450
13466TIP3    H261890   4.727   3.187   4.610 -0.3152 -0.1320  0.1073
13467TIP3   OH261891   3.888   2.594  14.252  0.3396  0.3920  0.3193
13467TIP3    H161892   3.796   2.570  14.266  0.5596 -1.4692 -1.0023
13467TIP3    H261893   3.929   2.513  14.222  2.2447  1.3932  0.0840
13468TIP3   OH261894   1.239   1.409   6.435 -0.0769  0.0923  0.2374
13468TIP3    H161895   1.256   1.470   6.507 -1.3095  0.2236  0.4325
13468TIP3    H261896   1.207   1.330   6.478 -0.3848  0.0105 -0.1425
13469TIP3   OH261897   2.310   1.885   5.143  0.2234  0.2347  0.2286
13469TIP3    H161898   2.346   1.801   5.173 -0.3446  0.0891  0.5404
13469TIP3    H261899   2.375   1.950   5.169 -0.0877  0.0714  1.4934
13470TIP3   OH261900   2.606   1.569  14.222 -0.3945  0.0530  0.0006
13470TIP3    H161901   2.644   1.614  14.296  1.6019  0.8522 -1.4256
13470TIP3    H261902   2.543   1.632  14.185  1.5091  1.3194 -1.2702
13471TIP3   OH261903   3.135   1.412  11.400  0.1714 -0.1394  0.5708
13471TIP3    H161904   3.057   1.452  11.360 -1.1435 -2.5858  0.4700
13471TIP3    H261905   3.208   1.444  11.347 -0.7163  2.2094  0.6462
13472TIP3   OH261906   4.529   5.226   3.817  0.5550 -0.0006 -0.0676
13472TIP3    H161907   4.438   5.198   3.815  0.2501  0.8280  1.1661
13472TIP3    H261908   4.538   5.274   3.899  1.8759  0.6845 -0.5721
13473TIP3   OH261909   3.571   0.024  16.679 -0.1217  0.4723  0.0861
13473TIP3    H161910   3.606   0.096  16.732 -0.4074  0.1976  0.6515
13473TIP3    H261911   3.477   0.024  16.696  0.1729 -1.7097  2.1959
13474TIP3   OH261912   0.825   1.716  13.412  0.3443  0.2657  0.4367
13474TIP3    H161913   0.887   1.774  13.368  1.0723 -0.6618  0.1938
13474TIP3    H261914   0.753   1.707  13.350  0.0266  1.2215  0.6497
13475TIP3   OH261915   2.976   4.713  14.247  0.0593 -0.3259 -0.1862
13475TIP3    H161916   2.974   4.619  14.265 -3.1753 -0.4329 -0.6376
13475TIP3    H261917   3.069   4.731  14.230  0.8451 -3.3338  0.2301
13476TIP3   OH261918   0.695   4.973   4.498 -1.0192 -0.1880 -0.0837
13476TIP3    H161919   0.676   4.898   4.442  0.2792 -0.7426  0.1805
13476TIP3    H261920   0.690   4.938   4.587 -1.4683  0.3028  0.0894
13477TIP3   OH261921   4.010   4.643  12.076  0.0758  0.2254 -0.0297
13477TIP3    H161922   4.096   4.647  12.119 -0.8118 -0.3532  1.9271
13477TIP3    H261923   3.962   4.717  12.112 -0.8147 -0.4860  0.2826
13478TIP3   OH261924   1.689   2.649   2.965  0.2363 -0.9213 -0.6846
13478TIP3    H161925   1.710   2.658   2.872  0.6611 -1.6094 -0.6631
13478TIP3    H261926   1.593   2.651   2.968  0.1760  2.3825 -0.7691
13479TIP3   OH261927   4.025   3.355   6.438 -0.1444  0.0570 -0.3040
13479TIP3    H161928   4.103   3.348   6.493 -0.0985  1.1469 -0.2061
13479TIP3    H261929   4.050   3.419   6.371 -1.1613  0.8939  0.1017
13480TIP3   OH261930   3.896   0.600   5.033 -0.1436 -0.1258  0.1905
13480TIP3    H161931   3.885   0.668   4.966 -1.6138 -0.2971  0.2159
13480TIP3    H261932   3.807   0.567   5.047  0.1603 -0.1854  2.1387
13481TIP3   OH261933   0.008   3.666  11.269  0.1539 -0.7908 -0.6742
13481TIP3    H161934   0.081   3.665  11.206  0.7947 -2.1696  0.0439
13481TIP3    H261935   0.003   3.576  11.301  0.7443  0.1319  2.2575
13482TIP3   OH261936   5.660   0.855   4.764 -0.1621 -0.6722  0.2066
13482TIP3    H161937   5.688   0.874   4.675 -0.7549  1.5760  0.4288
13482TIP3    H261938   5.567   0.878   4.766  0.2070  0.9845  1.7716
13483TIP3   OH261939   6.724   0.824  13.934 -0.3868  0.2337  0.0329
13483TIP3    H161940   6.808   0.836  13.890  1.7465 -0.3617  3.5329
13483TIP3    H261941   6.673   0.902  13.911  2.3050  2.1372  0.0821
13484TIP3   OH261942   4.390   0.341   4.066  0.0037 -0.0879  0.1659
13484TIP3    H161943   4.351   0.428   4.070  1.4356  0.5487  1.3986
13484TIP3    H261944   4.458   0.348   3.999 -0.2523 -0.4234 -0.1323
13485TIP3   OH261945   2.647   4.652   5.022  0.2731 -0.1800 -0.5860
13485TIP3    H161946   2.731   4.609   5.039 -0.4399 -1.2735  0.3882
13485TIP3    H261947   2.618   4.683   5.108  0.2304  1.2599 -1.1043
13486TIP3   OH261948   1.212   1.464  14.064  0.9079  0.3735  0.2364
13486TIP3    H161949   1.223   1.500  13.977  1.6644  0.6043  0.4238
13486TIP3    H261950   1.132   1.411  14.058 -0.4259  2.2997  0.0463
13487TIP3   OH261951   1.218   6.808   6.423 -0.4432  0.0499  0.1775
13487TIP3    H161952   1.181   6.896   6.423 -1.2613 -0.2851  0.7771
13487TIP3    H261953   1.282   6.809   6.494  0.0113  0.3395 -0.2273
13488TIP3   OH261954   6.656   6.339  11.438  0.0603 -0.3147 -0.3373
13488TIP3    H161955   6.660   6.427  11.477  0.1628 -0.4785  0.0290
13488TIP3    H261956   6.735   6.333  11.384  0.2856 -0.3463 -0.0049
13489TIP3   OH261957   0.013   3.950   2.139  0.0674 -0.7154 -0.1699
13489TIP3    H161958  -0.060   4.011   2.130  0.8692  0.2596 -0.2728
13489TIP3    H261959   0.004   3.891   2.064 -0.6819 -0.6875 -0.1091
13490TIP3   OH261960   5.144   1.137   1.369  0.3170 -0.6801  0.3960
13490TIP3    H161961   5.176   1.171   1.286  0.2213  1.0314  1.0199
13490TIP3    H261962   5.176   1.200   1.435 -0.3335 -1.5184  1.5522
13491TIP3   OH261963   6.116   3.417  12.711 -0.0735  0.1033 -0.0176
13491TIP3    H161964   6.182   3.357  12.677 -2.1260 -2.5668  0.3665
13491TIP3    H261965   6.057   3.362  12.763 -0.7388  2.8949  2.5189
13492TIP3   OH261966   3.986   0.104  15.271  0.8384 -0.3048 -0.0379
13492TIP3    H161967   4.017   0.041  15.206  0.1592 -0.2557 -0.4271
13492TIP3    H261968   3.990   0.189  15.226 -1.5402 -0.5031 -0.7785
13493TIP3   OH261969   0.595   2.672   2.614 -0.0626 -0.4834  0.2703
13493TIP3    H161970   0.688   2.674   2.636  1.0508  0.1877 -3.7701
13493TIP3    H261971   0.572   2.763   2.595 -1.2213 -0.8074  0.0359
13494TIP3   OH261972   6.083   5.359  11.353 -0.0467 -0.5548 -0.3334
13494TIP3    H161973   6.074   5.317  11.438 -0.1512 -0.5291 -0.3303
13494TIP3    H261974   6.103   5.450  11.373 -0.3958 -0.4767 -0.3310
13495TIP3   OH261975   2.437   0.787   1.339 -0.0795  0.4575 -0.3448
13495TIP3    H161976   2.369   0.845   1.305  1.5988  1.2897 -2.5075
13495TIP3    H261977   2.466   0.830   1.420 -1.0087  0.9225 -0.2387
13496TIP3   OH261978   0.276   5.568   3.900 -0.2416  0.0591 -0.0076
13496TIP3    H161979   0.248   5.570   3.809  1.7240 -0.1168 -0.6659
13496TIP3    H261980   0.226   5.637   3.943 -0.2340  1.0545 -1.5317
13497TIP3   OH261981   6.632   2.097   4.219 -0.1281 -0.5505  0.2839
13497TIP3    H161982   6.696   2.027   4.225  0.7333  0.0447 -1.3988
13497TIP3    H261983   6.553   2.054   4.186  0.3676 -0.7700 -0.6519
13498TIP3   OH261984   6.300   2.236   5.891 -0.2148  0.3248  0.0423
13498TIP3    H161985   6.386   2.274   5.873 -0.6818  0.6859 -1.6255
13498TIP3    H261986   6.299   2.223   5.986  1.9668 -0.4362  0.0217
13499TIP3   OH261987   5.145   2.620  12.656 -0.2529  0.6413 -0.3210
13499TIP3    H161988   5.205   2.638  12.583  0.7448  0.4155  0.4268
13499TIP3    H261989   5.075   2.685  12.645 -1.3482 -0.7997 -2.7724
13500TIP3   OH261990   2.660   4.458   1.233  0.4414  0.2216  0.7507
13500TIP3    H161991   2.678   4.364   1.239 -2.0982 -0.5325 -1.4758
13500TIP3    H261992   2.674   4.479   1.141 -0.9621  1.5547  0.8048
13501TIP3   OH261993   3.080   4.774  12.574 -0.0659 -0.3892 -0.0826
13501TIP3    H161994   3.109   4.762  12.665  1.2977  0.0534 -0.4318
13501TIP3    H261995   3.158   4.804  12.528 -0.9372  0.1665 -1.2478
13502TIP3   OH261996   2.664   0.814  14.679  0.4485  0.6225  0.1185
13502TIP3    H161997   2.700   0.784  14.762  1.7728  0.8331 -0.3495
13502TIP3    H261998   2.741   0.830  14.624 -0.3972 -0.6440 -1.5488
13503TIP3   OH261999   0.110   3.536   3.562  0.2028 -0.0215 -0.1193
13503TIP3    H162000   0.061   3.589   3.500  1.4257 -0.2054 -1.3028
13503TIP3    H262001   0.181   3.593   3.591  1.4589 -0.8909 -1.3126
13504TIP3   OH262002   1.932   6.154  15.682  0.1874 -0.0747  0.1432
13504TIP3    H162003   1.885   6.076  15.653  0.2659 -0.8583  1.9475
13504TIP3    H262004   1.881   6.227  15.649 -1.2464 -0.9030  0.4418
13505TIP3   OH262005   0.676   2.207  16.318 -0.3132  0.7717 -0.6853
13505TIP3    H162006   0.693   2.274  16.252  0.4996  1.3284  0.0635
13505TIP3    H262007   0.729   2.233  16.393  1.7040 -1.7821 -1.0427
13506TIP3   OH262008   1.727   3.606   5.221 -0.2054  0.0200  0.1691
13506TIP3    H162009   1.633   3.587   5.214  0.0951 -1.5616  0.2043
13506TIP3    H262010   1.770   3.525   5.194  1.1406  0.2921  1.3884
13507TIP3   OH262011   1.814   0.249   1.441  0.0742 -0.4429 -0.1533
13507TIP3    H162012   1.784   0.288   1.523  0.1937 -0.9696  0.1435
13507TIP3    H262013   1.837   0.159   1.463  1.2511 -0.2537 -0.5169
13508TIP3   OH262014   6.257   1.883   6.352 -0.3696  0.1263  0.2411
13508TIP3    H162015   6.202   1.835   6.413  0.2850 -2.2539 -0.9183
13508TIP3    H262016   6.199   1.907   6.281 -0.6412  0.8285  0.6926
13509TIP3   OH262017   5.215   4.374   2.248 -0.0341 -0.1902 -0.4574
13509TIP3    H162018   5.267   4.321   2.309 -2.9380 -3.1062 -0.2587
13509TIP3    H262019   5.209   4.320   2.169 -2.8193 -0.1258 -0.3848
13510TIP3   OH262020   3.555   5.829   0.377  0.1452 -0.0805  0.7883
13510TIP3    H162021   3.490   5.798   0.441  0.4746 -1.4022  0.5078
13510TIP3    H262022   3.638   5.823   0.423  0.2708 -0.0317  0.5674
13511TIP3   OH262023   3.320   1.072  10.648  0.3780  0.3668  0.0385
13511TIP3    H162024   3.294   1.118  10.728  0.4082 -0.1090  0.3253
13511TIP3    H262025   3.386   1.009  10.677 -2.5244 -2.8450  0.4808
13512TIP3   OH262026   0.910   3.630   0.662  0.5165 -0.0337 -0.1667
13512TIP3    H162027   0.823   3.632   0.701  1.0653  0.0117  1.1068
13512TIP3    H262028   0.907   3.696   0.593 -0.1595  0.6708  0.5184
13513TIP3   OH262029   5.695   5.457   6.526  0.1424  0.2369  0.3872
13513TIP3    H162030   5.635   5.440   6.454  0.1041  3.3516 -0.4589
13513TIP3    H262031   5.782   5.453   6.486  0.1400  1.6006  0.2113
13514TIP3   OH262032   5.871   2.398  11.052  0.3498 -0.1277 -0.2579
13514TIP3    H162033   5.904   2.460  10.987  1.4487 -1.1598 -0.7176
13514TIP3    H262034   5.918   2.419  11.132  0.8676 -0.4981 -0.4652
13515TIP3   OH262035   4.514   6.431   1.850  0.0661 -0.2385  0.4838
13515TIP3    H162036   4.575   6.434   1.923  0.2620 -1.7551  0.4024
13515TIP3    H262037   4.431   6.404   1.889 -0.0490 -0.1826  0.2805
13516TIP3   OH262038   1.938   0.770   4.293 -0.1831  0.2695  0.2360
13516TIP3    H162039   1.971   0.817   4.369  3.1002 -1.6604  0.2008
13516TIP3    H262040   2.012   0.767   4.233 -1.8118 -0.6779 -1.8639
13517TIP3   OH262041   3.860   2.353  15.852 -0.1342  0.2914 -0.0225
13517TIP3    H162042   3.850   2.317  15.940 -0.1684 -0.9130 -0.5014
13517TIP3    H262043   3.776   2.395  15.835 -0.7305 -0.8743 -0.0795
13518TIP3   OH262044   2.846   1.466  15.507  0.0930  0.0484 -0.6916
13518TIP3    H162045   2.847   1.400  15.438  0.0273 -0.4083 -0.2712
13518TIP3    H262046   2.938   1.484  15.525  0.1093  0.2298 -0.9522
13519TIP3   OH262047   0.333   1.525  11.493  0.1481 -0.1122 -0.1011
13519TIP3    H162048   0.358   1.592  11.556  1.6419  0.9359 -1.7001
13519TIP3    H262049   0.389   1.542  11.417 -0.0470 -2.6416 -0.9055
13520TIP3   OH262050   5.781   6.327  16.585  0.0375  1.0212  0.2727
13520TIP3    H162051   5.774   6.335  16.490 -1.1319  0.0911  0.2599
13520TIP3    H262052   5.797   6.234  16.600  0.6241  1.2279  0.9761
13521TIP3   OH262053   4.035   2.326  14.076 -0.1701 -0.3593 -0.1560
13521TIP3    H162054   4.005   2.399  14.022  0.5886 -0.8921 -1.3537
13521TIP3    H262055   4.066   2.261  14.013 -0.3161 -1.4935  0.9017
13522TIP3   OH262056   5.211   4.083   2.173 -0.0615 -0.5531 -0.7424
13522TIP3    H162057   5.219   4.052   2.083 -2.2760 -1.6693 -0.6424
13522TIP3    H262058   5.174   4.009   2.221 -1.5375  0.8716  0.4609
13523TIP3   OH262059   4.683   3.066  17.235  0.0008 -0.0559 -0.1949
13523TIP3    H162060   4.679   3.074  17.140  0.2824 -1.2775 -0.3174
13523TIP3    H262061   4.646   2.980  17.254 -0.7415  0.4816  0.8646
13524TIP3   OH262062   3.662   6.559   3.352  0.4181  0.2627  0.6375
13524TIP3    H162063   3.603   6.535   3.424 -1.0951  0.5243 -0.4530
13524TIP3    H262064   3.661   6.654   3.351  0.9023  0.2706  0.6216
13525TIP3   OH262065   2.396   3.966  12.920 -0.3410 -0.8612  0.4389
13525TIP3    H162066   2.431   3.904  12.985 -0.1684 -1.5079 -0.2553
13525TIP3    H262067   2.306   3.938  12.907 -0.2727 -0.9477  0.1507
13526TIP3   OH262068   4.751   2.612  12.162 -0.3885 -0.3655  0.2810
13526TIP3    H162069   4.677   2.670  12.143 -0.6817 -0.6802  0.4588
13526TIP3    H262070   4.764   2.619  12.256  2.1773  2.5392 -0.1419
13527TIP3   OH262071   1.936   5.079  13.324 -0.3336  0.4038  0.0632
13527TIP3    H162072   1.883   5.092  13.245  0.6770 -1.7823 -1.0790
13527TIP3    H262073   1.891   5.009  13.371  0.7972 -0.5901 -0.2841
13528TIP3   OH262074   1.804   1.344  10.943  0.4258 -0.0456 -0.1393
13528TIP3    H162075   1.806   1.406  11.016  1.3909  0.8686 -0.9214
13528TIP3    H262076   1.860   1.383  10.876  1.5317 -1.9928 -0.4529
13529TIP3   OH262077   1.960   2.665  16.832 -0.4339  0.0178  1.1211
13529TIP3    H162078   2.027   2.647  16.897 -0.0108 -2.5871  0.1073
13529TIP3    H262079   2.009   2.677  16.750 -1.1028 -1.0509  0.5358
13530TIP3   OH262080   5.865   0.102   2.755 -0.6217  0.4338  0.2910
13530TIP3    H162081   5.866   0.189   2.716 -0.9333  1.6556  2.7972
13530TIP3    H262082   5.807   0.110   2.831 -1.8096 -2.3583 -0.1884
13531TIP3   OH262083   4.498   4.557   4.057  0.0218 -0.2876 -0.1489
13531TIP3    H162084   4.553   4.496   4.006  1.8622 -0.1241  1.4925
13531TIP3    H262085   4.459   4.615   3.991  1.0992 -0.9976 -1.4772
13532TIP3   OH262086   3.568   6.646  11.450 -0.0042  0.0518  1.1349
13532TIP3    H162087   3.518   6.661  11.530  0.3990  0.2574  1.3503
13532TIP3    H262088   3.571   6.550  11.441 -1.9407  0.0427  0.1620
13533TIP3   OH262089   0.195   2.955  16.994  0.3956 -0.0959  0.6107
13533TIP3    H162090   0.110   2.912  16.987 -0.0377  0.6878  0.9325
13533TIP3    H262091   0.232   2.951  16.905 -1.2291  2.0595 -0.2582
13534TIP3   OH262092   2.515   3.913  12.203  0.3938 -0.4404 -0.1381
13534TIP3    H162093   2.452   3.983  12.184  1.1545  0.2878 -0.0677
13534TIP3    H262094   2.568   3.948  12.275  0.9733 -0.9780 -0.2967
13535TIP3   OH262095   4.953   4.434   6.354 -0.2737 -0.1716  0.0589
13535TIP3    H162096   4.958   4.422   6.449 -1.2522 -1.5602 -0.0376
13535TIP3    H262097   4.967   4.528   6.342 -1.4793  0.2681  1.6869
13536TIP3   OH262098   6.520   4.442  16.408 -0.0644 -0.4708  0.2096
13536TIP3    H162099   6.613   4.451  16.430 -0.0877 -0.6888  0.3986
13536TIP3    H262100   6.519   4.378  16.337  0.0289  0.3916 -0.5784
13537TIP3   OH262101   1.616   5.885   2.900 -0.3734 -0.0208 -0.1568
13537TIP3    H162102   1.690   5.947   2.903 -0.2580  0.0673 -2.4877
13537TIP3    H262103   1.635   5.830   2.824 -2.6989 -0.0246 -0.7917
13538TIP3   OH262104   3.085   2.425   0.587  0.8469 -0.4158 -0.5810
13538TIP3    H162105   3.129   2.346   0.619  2.0950  0.8167  0.9301
13538TIP3    H262106   2.992   2.409   0.603  1.1560 -1.2098  0.5492
13539TIP3   OH262107   5.757   5.634   1.754  0.0450  0.3490 -0.5933
13539TIP3    H162108   5.717   5.566   1.701 -1.4323  0.8174 -0.1162
13539TIP3    H262109   5.758   5.599   1.843  3.4390 -0.8554 -0.9581
13540TIP3   OH262110   2.937   6.006  17.262  0.8933  0.3021 -0.0626
13540TIP3    H162111   2.971   5.937  17.205 -0.3366 -0.9490  0.6522
13540TIP3    H262112   2.953   5.974  17.351  0.2855  0.9287  0.2790
13541TIP3   OH262113   5.351   1.024   0.842 -0.0776 -0.2018 -0.8243
13541TIP3    H162114   5.326   0.943   0.796 -1.2425 -0.2834 -0.0858
13541TIP3    H262115   5.303   1.020   0.924 -1.3831  1.9681 -1.4075
13542TIP3   OH262116   1.693   6.534  13.886  0.8114  0.9428  0.1399
13542TIP3    H162117   1.599   6.526  13.873  1.0985 -1.2537 -1.0540
13542TIP3    H262118   1.704   6.545  13.980 -0.5712 -0.9602  0.5820
13543TIP3   OH262119   2.965   0.369  11.979  0.1023 -0.4195  0.4103
13543TIP3    H162120   3.030   0.355  11.910 -1.1252  0.4518 -0.9961
13543TIP3    H262121   3.015   0.403  12.053  1.5037 -1.6743  0.0869
13544TIP3   OH262122   1.857   6.217  12.439  0.0624  0.2010  0.4362
13544TIP3    H162123   1.770   6.257  12.436  0.7179  1.6812  0.6784
13544TIP3    H262124   1.875   6.194  12.348 -1.3252 -1.8672  0.6035
13545TIP3   OH262125   5.719   5.046  16.306  0.0815 -0.2396  0.0391
13545TIP3    H162126   5.763   5.065  16.389  0.9972  0.4290 -0.5770
13545TIP3    H262127   5.682   5.130  16.280 -0.4530 -0.5147 -0.0881
13546TIP3   OH262128   5.121   4.302   4.001 -0.0228  0.0750  0.0108
13546TIP3    H162129   5.053   4.236   3.989  0.8902 -1.4664  2.4821
13546TIP3    H262130   5.073   4.379   4.034 -1.0856  0.7438 -2.8282
13547TIP3   OH262131   0.119   2.078  11.963 -0.2802 -1.1154 -1.1040
13547TIP3    H162132   0.093   1.986  11.959 -0.8489 -1.0750  0.8084
13547TIP3    H262133   0.207   2.079  11.924  0.2465 -2.7021 -0.0706
13548TIP3   OH262134   3.598   2.480  15.020  0.8279 -0.1548  0.2243
13548TIP3    H162135   3.679   2.450  14.977  0.1558 -1.1307 -0.4053
13548TIP3    H262136   3.548   2.400  15.036 -0.2156  0.4724  0.1887
13549TIP3   OH262137   2.286   5.622   2.211  0.0033 -0.3331  0.0763
13549TIP3    H162138   2.350   5.683   2.248 -0.4031  0.7115 -0.8784
13549TIP3    H262139   2.219   5.615   2.279  0.0317  0.3432  0.1873
13550TIP3   OH262140   5.253   0.584   3.523 -0.0783  0.1767 -0.4230
13550TIP3    H162141   5.234   0.667   3.568 -1.6008  0.1621 -0.9827
13550TIP3    H262142   5.348   0.584   3.512 -0.0199  1.7130 -0.1504
13551TIP3   OH262143   5.591   0.403   3.113 -0.3065 -0.7677 -0.2105
13551TIP3    H162144   5.506   0.440   3.088 -0.0252  1.6585  1.9479
13551TIP3    H262145   5.580   0.378   3.204  1.1347 -0.9974 -0.0851
13552TIP3   OH262146   5.355   3.201  10.904  0.2298  0.0896  0.8792
13552TIP3    H162147   5.308   3.142  10.963 -1.6332  1.2907  0.6511
13552TIP3    H262148   5.333   3.170  10.816  0.0891  0.4940  0.7713
13553TIP3   OH262149   5.957   1.497   0.249  0.5648 -0.3280 -0.1120
13553TIP3    H162150   5.978   1.444   0.325  3.6336  1.4959  0.5037
13553TIP3    H262151   5.890   1.447   0.202  2.0162 -3.8684  1.2386
13554TIP3   OH262152   6.670   2.723  14.072  0.3507 -0.0746  0.2428
13554TIP3    H162153   6.685   2.808  14.112  0.1788  0.0421  0.0647
13554TIP3    H262154   6.719   2.726  13.989 -0.3616  0.1847 -0.1819
13555TIP3   OH262155   3.946   2.288  16.420  0.2729  0.3111  0.0581
13555TIP3    H162156   3.987   2.375  16.421  2.8252 -0.7919 -0.7530
13555TIP3    H262157   4.019   2.227  16.423 -1.4737 -1.8608  1.0602
13556TIP3   OH262158   2.789   6.241  15.475 -0.0516  0.1364  0.1462
13556TIP3    H162159   2.884   6.228  15.486 -0.0728 -0.1888 -0.0587
13556TIP3    H262160   2.751   6.154  15.487 -0.4545  0.4861  1.5483
13557TIP3   OH262161   2.153   4.549  14.483  0.3419 -0.1791  0.3549
13557TIP3    H162162   2.238   4.546  14.528  1.1913  0.7168 -1.0946
13557TIP3    H262163   2.174   4.584  14.396 -1.5172 -0.0042 -0.0540
13558TIP3   OH262164   0.304   3.234   1.455  0.4096 -0.3076 -0.4441
13558TIP3    H162165   0.210   3.233   1.434 -0.0954 -0.0598  1.6541
13558TIP3    H262166   0.331   3.324   1.438 -0.3863  0.3314  1.5138
13559TIP3   OH262167   4.448   1.436  13.807 -0.2132 -0.8766  0.0233
13559TIP3    H162168   4.460   1.359  13.751  0.4493 -1.7798  1.3383
13559TIP3    H262169   4.536   1.460  13.834 -0.4253  0.3135 -0.2890
13560TIP3   OH262170   5.720   1.881  10.629 -0.1861  0.5269 -0.5061
13560TIP3    H162171   5.661   1.956  10.616 -1.5485 -0.3761  0.1791
13560TIP3    H262172   5.666   1.805  10.606 -0.1419 -0.5273  2.4885
13561TIP3   OH262173   4.007   5.282  16.472 -0.4858  0.0040 -0.1739
13561TIP3    H162174   4.041   5.365  16.504  1.2723 -0.3128 -1.0806
13561TIP3    H262175   3.963   5.304  16.390 -1.9190  0.3047  0.6347
13562TIP3   OH262176   4.087   2.353  10.191 -0.3351  0.2288  0.2498
13562TIP3    H162177   4.085   2.267  10.149  0.1507 -0.7894  2.1670
13562TIP3    H262178   4.035   2.341  10.271  1.1451  1.1869  1.4137
13563TIP3   OH262179   6.367   4.053   1.067 -0.9027 -0.2451 -0.2232
13563TIP3    H162180   6.314   3.992   1.016 -2.0667  0.1080  0.5213
13563TIP3    H262181   6.432   3.998   1.110 -0.7475 -0.7107 -1.0403
13564TIP3   OH262182   5.835   6.200   4.228  0.0008  0.3614  0.0025
13564TIP3    H162183   5.773   6.156   4.285  0.0882  0.8494  0.4795
13564TIP3    H262184   5.792   6.283   4.204  1.3040  1.7310  2.0935
13565TIP3   OH262185   4.070   1.216   3.811  0.1178 -0.3263  0.4413
13565TIP3    H162186   4.143   1.208   3.749  0.0853 -1.5891  0.5436
13565TIP3    H262187   4.004   1.267   3.765  0.7702  0.1960  0.0745
13566TIP3   OH262188   4.241   0.805  12.195  0.6731  0.3823  0.0501
13566TIP3    H162189   4.287   0.808  12.279  0.5823 -0.6463  0.1488
13566TIP3    H262190   4.196   0.889  12.190 -1.8332 -0.6403  2.4988
13567TIP3   OH262191   5.618   0.106   4.257  0.0200  0.0223  0.2503
13567TIP3    H162192   5.657   0.177   4.308 -0.6860  1.0179 -0.5424
13567TIP3    H262193   5.602   0.036   4.320  0.3579  0.7307  1.1353
13568TIP3   OH262194   6.155   4.098  13.341 -0.8221  0.3889  0.2578
13568TIP3    H162195   6.103   4.090  13.421 -0.4618 -0.1871  0.4342
13568TIP3    H262196   6.089   4.115  13.272 -1.2591 -0.4200  0.4647
13569TIP3   OH262197   6.521   2.480   1.234 -0.4839 -0.2016  0.2497
13569TIP3    H162198   6.457   2.454   1.300 -1.0556  1.1271  0.2563
13569TIP3    H262199   6.581   2.406   1.228 -1.1037 -0.8258  1.3968
13570TIP3   OH262200   1.685   4.104  17.110 -0.3805  0.1012  0.1798
13570TIP3    H162201   1.617   4.168  17.129 -0.5565  1.1810 -3.3089
13570TIP3    H262202   1.767   4.153  17.112 -0.1103 -0.3628  0.8089
13571TIP3   OH262203   2.199   0.894  12.409 -0.1415  0.8960 -0.6060
13571TIP3    H162204   2.164   0.879  12.321 -2.9290  0.2813  0.4791
13571TIP3    H262205   2.197   0.989  12.420 -2.0825  0.8802 -0.4428
13572TIP3   OH262206   5.950   3.017   4.598  0.4507 -0.1478  0.3895
13572TIP3    H162207   5.929   3.063   4.679  0.9625 -0.7107  0.8557
13572TIP3    H262208   6.017   2.953   4.623  2.4935  1.3277 -0.9413
13573TIP3   OH262209   4.386   2.652   3.791  0.6949  0.2175 -0.6905
13573TIP3    H162210   4.300   2.612   3.781  1.0105 -0.2695 -1.5725
13573TIP3    H262211   4.428   2.600   3.860  0.7353 -0.3449 -1.1310
13574TIP3   OH262212   3.210   0.710   3.034 -0.2795  0.0936  0.2872
13574TIP3    H162213   3.247   0.622   3.036  1.1651  0.6814  1.3682
13574TIP3    H262214   3.184   0.727   3.124 -0.3590  0.8497  0.1277
13575TIP3   OH262215   4.635   0.309   3.009 -0.1849 -0.2037 -0.0806
13575TIP3    H162216   4.721   0.307   3.049 -0.2463  0.6996  0.1290
13575TIP3    H262217   4.575   0.324   3.082 -0.6286 -1.7361 -0.0936
13576TIP3   OH262218   4.535   2.072  15.977 -0.2915 -0.2996 -0.0992
13576TIP3    H162219   4.556   2.055  16.069 -1.5468 -1.7595 -0.0542
13576TIP3    H262220   4.619   2.063  15.932  0.1682 -0.5278  0.7691
13577TIP3   OH262221   4.993   6.737  14.105  0.1718  0.6236  0.2065
13577TIP3    H162222   4.932   6.768  14.037 -3.1272 -1.2790  2.0426
13577TIP3    H262223   5.005   6.812  14.163 -0.8312  0.9043  0.0656
13578TIP3   OH262224   2.562   0.706  16.106  0.1241 -0.1602 -0.3455
13578TIP3    H162225   2.564   0.794  16.070 -0.4196  1.4289  3.0822
13578TIP3    H262226   2.469   0.686  16.118  0.2582 -0.0110  1.2715
13579TIP3   OH262227   2.683   5.284  11.379 -0.2765 -0.0323 -0.0766
13579TIP3    H162228   2.748   5.263  11.313  0.5182 -2.2634  1.3006
13579TIP3    H262229   2.702   5.374  11.404 -1.1734  1.2161 -3.3984
13580TIP3   OH262230   0.756   1.236  13.802 -0.1872 -0.0473 -0.0283
13580TIP3    H162231   0.770   1.146  13.832  0.6907  0.4121  0.9977
13580TIP3    H262232   0.842   1.263  13.770  0.6816  1.7621  3.4154
13581TIP3   OH262233   6.118   4.699  13.080 -0.5832  0.0082  0.3570
13581TIP3    H162234   6.154   4.643  13.011 -1.9718  0.9281 -1.1904
13581TIP3    H262235   6.194   4.746  13.114  0.2922 -1.2526  0.2462
13582TIP3   OH262236   5.765   2.620   4.660  0.1058  0.4276 -0.0237
13582TIP3    H162237   5.756   2.621   4.756  0.0905  0.7803 -0.0290
13582TIP3    H262238   5.755   2.711   4.634 -0.2381  0.2836 -0.3992
13583TIP3   OH262239   3.394   3.859  17.277  0.5123 -0.3848 -0.1734
13583TIP3    H162240   3.463   3.846  17.342 -1.0719 -1.0671  1.4473
13583TIP3    H262241   3.317   3.884  17.329 -0.6505 -0.3528 -1.8500
13584TIP3   OH262242   1.079   0.944   1.288 -0.1495 -0.2458 -0.0663
13584TIP3    H162243   1.035   0.892   1.355 -0.4625 -0.8540 -0.7454
13584TIP3    H262244   1.153   0.984   1.334 -1.3649  0.7787  1.0943
13585TIP3   OH262245   5.889   0.304  16.214  0.2765  0.2464  0.0013
13585TIP3    H162246   5.821   0.350  16.165  1.0510  0.5611 -0.7948
13585TIP3    H262247   5.926   0.370  16.272 -1.6158 -0.4524  2.1513
13586TIP3   OH262248   5.063   5.179  11.561  0.3718 -0.1905 -0.0963
13586TIP3    H162249   4.973   5.160  11.586  0.4382  0.5228  0.7380
13586TIP3    H262250   5.093   5.100  11.516 -0.4733 -0.6601  0.1485
13587TIP3   OH262251   4.655   4.706  13.831  0.0968  0.1198  0.4075
13587TIP3    H162252   4.631   4.650  13.906 -1.3843  0.2821  0.1000
13587TIP3    H262253   4.744   4.734  13.850  0.2604 -0.9601  1.4254
13588TIP3   OH262254   0.111   1.769   5.608 -0.4441  0.1381  0.2329
13588TIP3    H162255   0.060   1.789   5.530 -0.1540  1.2670  0.3087
13588TIP3    H262256   0.185   1.717   5.576 -1.0582 -0.5703 -0.0345
13589TIP3   OH262257   2.111   0.176  15.145  0.3254  0.0119 -0.0971
13589TIP3    H162258   2.022   0.198  15.117  0.2667  0.5750  0.5015
13589TIP3    H262259   2.163   0.252  15.118  0.2604  0.5868  1.3074
13590TIP3   OH262260   2.082   6.617   2.063  0.1373 -0.7387 -0.7161
13590TIP3    H162261   2.106   6.678   1.993  0.7156 -0.3939 -0.2302
13590TIP3    H262262   1.998   6.649   2.096  1.0781  0.6524  0.4613
13591TIP3   OH262263   1.127   4.786  12.932 -0.4266 -0.2281 -0.6791
13591TIP3    H162264   1.182   4.732  12.875 -0.9375 -0.4401 -0.9749
13591TIP3    H262265   1.094   4.725  12.998  2.3675  0.4950  1.5673
13592TIP3   OH262266   6.293   3.115  15.275 -0.7050  0.0226  0.6799
13592TIP3    H162267   6.323   3.041  15.222  0.1032 -0.9108  2.3626
13592TIP3    H262268   6.271   3.183  15.211 -2.1836 -1.8939 -0.9640
13593TIP3   OH262269   1.064   5.391   1.847 -0.4080  0.2744 -0.0621
13593TIP3    H162270   1.131   5.328   1.873 -1.1824 -0.4962  0.1109
13593TIP3    H262271   1.050   5.375   1.754 -1.1040 -0.3001  0.1343
13594TIP3   OH262272   3.250   4.076  10.690 -0.3258  0.0304  0.2438
13594TIP3    H162273   3.169   4.073  10.639  0.2506  1.7991 -0.8614
13594TIP3    H262274   3.313   4.027  10.637 -0.4278 -0.5799  0.6741
13595TIP3   OH262275   6.350   5.325  14.264  0.5300  0.1856  0.4828
13595TIP3    H162276   6.378   5.403  14.313 -1.4083  0.4863  1.2050
13595TIP3    H262277   6.421   5.309  14.202  0.7526  2.8979 -0.0877
13596TIP3   OH262278   4.227   4.765  14.023 -0.2798  0.3074 -0.0203
13596TIP3    H162279   4.182   4.813  14.092 -0.7082  1.0524 -0.7976
13596TIP3    H262280   4.191   4.800  13.941  1.1576  0.3929 -0.6520
13597TIP3   OH262281   1.591   3.321  12.200 -0.2157 -0.2452  0.5910
13597TIP3    H162282   1.582   3.373  12.120  3.0503  1.3656  1.0665
13597TIP3    H262283   1.649   3.249  12.176  0.8544  0.2900  1.4273
13598TIP3   OH262284   1.997   3.445   3.768  0.7856 -0.5202  0.3140
13598TIP3    H162285   1.930   3.464   3.833  0.8065  0.2915  0.1189
13598TIP3    H262286   2.068   3.506   3.789  0.2255  0.7762 -1.2995
13599TIP3   OH262287   1.764   0.693  16.224  0.2510 -0.3310 -0.5535
13599TIP3    H162288   1.749   0.766  16.285 -0.6720  0.1636 -1.3383
13599TIP3    H262289   1.806   0.734  16.148  2.1591 -1.0766  0.0325
13600TIP3   OH262290   2.727   0.342   6.443 -0.3871  0.6689 -0.0408
13600TIP3    H162291   2.819   0.335   6.467 -1.0475  0.3291  2.6263
13600TIP3    H262292   2.710   0.436   6.436  0.1567  0.7283 -0.5778
13601TIP3   OH262293   4.291   6.702  13.437 -0.1004  0.2468 -0.1051
13601TIP3    H162294   4.263   6.647  13.510 -0.0003 -2.3258 -1.8515
13601TIP3    H262295   4.230   6.776  13.437 -0.8847 -0.3530  1.7863
13602TIP3   OH262296   3.408   1.799   0.590 -0.5498  0.2571 -0.5425
13602TIP3    H162297   3.328   1.767   0.550 -2.4827  2.3898  1.3835
13602TIP3    H262298   3.392   1.796   0.684  1.9091  0.1250 -0.0374
13603TIP3   OH262299   1.062   2.729  15.399  0.0417 -0.0274  0.5451
13603TIP3    H162300   1.156   2.732  15.418  0.0577 -0.5426  0.5756
13603TIP3    H262301   1.057   2.688  15.313 -0.1259  0.6043  0.2515
13604TIP3   OH262302   3.316   5.653   3.487 -0.6774 -0.5525 -0.5227
13604TIP3    H162303   3.355   5.714   3.425 -0.5754  0.0692  0.1442
13604TIP3    H262304   3.260   5.708   3.543  0.0979 -0.9192  0.6453
13605TIP3   OH262305   4.116   5.093   1.939 -0.4059  0.1607  0.0830
13605TIP3    H162306   4.109   5.027   2.008 -1.1651  0.0964 -0.0557
13605TIP3    H262307   4.029   5.132   1.933 -0.4957 -0.1876 -1.1920
13606TIP3   OH262308   5.780   2.228   2.046 -0.0128 -0.0031 -0.5170
13606TIP3    H162309   5.797   2.254   2.136 -2.2358 -0.2201  0.0221
13606TIP3    H262310   5.799   2.307   1.994 -0.1967  0.6013  0.3177
13607TIP3   OH262311   5.752   3.315  13.433 -0.6234 -0.1099 -0.5009
13607TIP3    H162312   5.819   3.269  13.483  0.6247 -0.2458 -2.2099
13607TIP3    H262313   5.741   3.261  13.354 -0.4189  1.5651 -1.7200
13608TIP3   OH262314   5.126   5.971  12.849 -0.0970 -0.2037  0.1842
13608TIP3    H162315   5.104   5.985  12.941  0.1886 -0.5403  0.3101
13608TIP3    H262316   5.106   5.879  12.833  1.5985 -0.6625  0.4393
13609TIP3   OH262317   5.114   6.586  15.738 -0.6131  0.6240 -0.3820
13609TIP3    H162318   5.163   6.593  15.655 -1.2065  0.5991 -0.7401
13609TIP3    H262319   5.160   6.645  15.798  0.6417 -0.3789 -0.3184
13610TIP3   OH262320   6.441   1.065   0.340  0.6984 -0.1807  0.8128
13610TIP3    H162321   6.530   1.058   0.373  0.8665  1.1756  0.7075
13610TIP3    H262322   6.407   1.146   0.377 -0.0900 -0.0812 -0.0650
13611TIP3   OH262323   4.160   5.371   0.622  0.2343 -0.0391  0.0822
13611TIP3    H162324   4.097   5.435   0.657  0.6113  0.0209  0.6607
13611TIP3    H262325   4.140   5.291   0.670  0.7250  0.0290  0.3962
13612TIP3   OH262326   1.159   3.197   6.639  0.0308 -0.1012 -0.3822
13612TIP3    H162327   1.226   3.190   6.707 -0.6900  0.6252  0.4280
13612TIP3    H262328   1.166   3.115   6.590  1.6894  0.0823 -0.5073
13613TIP3   OH262329   3.422   2.129  16.714  0.0219 -0.4743  0.2206
13613TIP3    H162330   3.428   2.037  16.686  0.7096 -0.6910  1.0681
13613TIP3    H262331   3.347   2.163  16.664 -0.3630 -1.5380  0.0321
13614TIP3   OH262332   5.281   0.187  13.392  0.3547  0.0581 -0.0751
13614TIP3    H162333   5.230   0.245  13.449 -0.1589 -0.6510  0.1921
13614TIP3    H262334   5.242   0.197  13.305 -1.5883 -1.9628  0.4743
13615TIP3   OH262335   5.313   1.264  12.604 -0.1715 -0.3554 -0.2347
13615TIP3    H162336   5.280   1.354  12.608  0.4198 -0.1754  0.6882
13615TIP3    H262337   5.312   1.233  12.694  0.4735 -0.9711 -0.4277
13616TIP3   OH262338   6.337   0.308  16.142  0.0341 -0.2287  0.0395
13616TIP3    H162339   6.326   0.254  16.220  0.7065 -0.5950 -0.1115
13616TIP3    H262340   6.396   0.257  16.085 -0.2790  0.1251 -0.6164
13617TIP3   OH262341   5.280   1.320  15.547 -0.2513 -0.5748  0.3942
13617TIP3    H162342   5.240   1.344  15.631  1.9294  0.2472  1.2669
13617TIP3    H262343   5.372   1.302  15.569  0.1151 -1.4122 -1.6621
13618TIP3   OH262344   5.377   2.158   5.488  0.6035 -0.3205 -0.8860
13618TIP3    H162345   5.329   2.236   5.518  1.9175  0.9341 -1.9095
13618TIP3    H262346   5.312   2.108   5.438 -0.6223 -0.6188  0.8954
13619TIP3   OH262347   1.357   0.024   0.114 -0.2996  0.0972  0.5770
13619TIP3    H162348   1.413   0.102   0.115 -0.6856  0.3851  0.2491
13619TIP3    H262349   1.320   0.022   0.026  2.5045 -2.5169 -0.7412
13620TIP3   OH262350   1.873   6.540  16.673 -0.2237  0.8557 -0.4092
13620TIP3    H162351   1.848   6.538  16.766 -0.5041 -1.3234 -0.4857
13620TIP3    H262352   1.964   6.512  16.672 -1.0623 -2.2170 -0.9457
13621TIP3   OH262353   0.373   6.664   4.786  0.3588 -0.5551  0.7639
13621TIP3    H162354   0.304   6.667   4.720 -1.5050 -1.2610  2.5545
13621TIP3    H262355   0.431   6.594   4.758 -0.2182 -0.6237 -0.2790
13622TIP3   OH262356   4.546   0.532  15.500  0.4426 -0.4664  0.3246
13622TIP3    H162357   4.623   0.587  15.513  0.3389 -0.1125 -0.5228
13622TIP3    H262358   4.491   0.549  15.577  0.4662  0.5364  0.1286
13623TIP3   OH262359   2.881   0.009   5.633  0.7183  0.1222 -0.0925
13623TIP3    H162360   2.899  -0.009   5.726 -2.3526  0.6665  0.7242
13623TIP3    H262361   2.939  -0.050   5.586 -0.2015 -2.9362  2.2619
13624TIP3   OH262362   2.755   3.403  15.784  0.3883  0.0308 -0.1736
13624TIP3    H162363   2.725   3.489  15.755  2.8480  0.5122 -1.5459
13624TIP3    H262364   2.834   3.420  15.835  0.0919 -1.3472  0.8112
13625TIP3   OH262365   2.208   5.755  13.243  0.5188  0.1535 -0.3306
13625TIP3    H162366   2.228   5.787  13.330  0.2553  0.7811 -0.4966
13625TIP3    H262367   2.281   5.697  13.221  0.9973  0.6393 -0.0279
13626TIP3   OH262368   6.230   3.824  15.256  0.7495  0.4861 -0.3596
13626TIP3    H162369   6.244   3.820  15.350 -0.7392  0.1730 -0.1215
13626TIP3    H262370   6.275   3.903  15.228  0.6553  0.9390  0.7243
13627TIP3   OH262371   6.043   5.905   4.382  0.0360  0.1016 -0.1294
13627TIP3    H162372   6.059   5.818   4.420  0.0636  0.7263  1.3350
13627TIP3    H262373   5.976   5.889   4.315  0.5305 -1.1491 -0.3714
13628TIP3   OH262374   6.531   6.169   1.948  0.3497 -0.4810  0.2102
13628TIP3    H162375   6.578   6.092   1.914 -1.0339 -0.7120 -1.3091
13628TIP3    H262376   6.443   6.161   1.911  0.0900  1.6802  0.2667
13629TIP3   OH262377   1.112   6.780   3.727  0.4680 -0.0699  0.1365
13629TIP3    H162378   1.133   6.724   3.802 -0.3752 -0.4629  0.0937
13629TIP3    H262379   1.020   6.761   3.709  1.0966 -1.3099 -2.1176
13630TIP3   OH262380   2.833   2.239   1.253  0.0251 -0.2709  0.1227
13630TIP3    H162381   2.839   2.282   1.339  0.3508 -0.4258  0.1813
13630TIP3    H262382   2.899   2.169   1.257 -0.5080 -0.7811  0.0325
13631TIP3   OH262383   5.522   5.755  12.257 -0.4968 -0.2424 -0.3391
13631TIP3    H162384   5.476   5.759  12.174 -0.0850 -0.1161 -0.5649
13631TIP3    H262385   5.530   5.661  12.276 -1.7298 -0.2546  0.2093
13632TIP3   OH262386   3.243   6.300  15.658  0.0190 -0.3638  0.2984
13632TIP3    H162387   3.331   6.332  15.641  0.6084 -1.3844  1.2666
13632TIP3    H262388   3.250   6.254  15.742 -1.5979  0.1640  0.7738
13633TIP3   OH262389   3.830   4.528  10.702  0.5945 -0.9060 -0.1080
13633TIP3    H162390   3.777   4.478  10.641 -0.0164 -0.5892  0.1514
13633TIP3    H262391   3.821   4.481  10.785 -0.8814  0.2011  0.4092
13634TIP3   OH262392   3.480   1.521   3.252  0.0882  0.5275 -0.1812
13634TIP3    H162393   3.536   1.475   3.314 -0.6917  0.4187  0.4606
13634TIP3    H262394   3.487   1.613   3.278 -0.2436  0.4811  0.0754
13635TIP3   OH262395   5.186   2.825   3.057 -0.2752  0.1759  0.2483
13635TIP3    H162396   5.268   2.828   3.008 -0.3363  2.0861  0.2219
13635TIP3    H262397   5.123   2.870   3.001 -1.1223 -0.4175  0.7029
13636TIP3   OH262398   1.442   3.688  14.869 -0.5067 -0.0440  0.5798
13636TIP3    H162399   1.421   3.609  14.919 -0.4607  0.0646  0.7745
13636TIP3    H262400   1.369   3.747  14.886 -1.9845 -1.0392 -1.8030
13637TIP3   OH262401   3.150   3.676  12.474 -0.3370  0.0116 -0.0077
13637TIP3    H162402   3.158   3.716  12.388 -0.5207 -1.7091 -0.8644
13637TIP3    H262403   3.229   3.703  12.521 -0.1373  0.8034 -0.7834
13638TIP3   OH262404   5.599   3.586   2.366  0.5338 -0.3059 -0.2069
13638TIP3    H162405   5.653   3.519   2.325  0.0596 -0.1004 -1.1907
13638TIP3    H262406   5.640   3.669   2.339  0.9900 -0.1838  0.8211
13639TIP3   OH262407   6.167   4.090   5.589  0.1472  0.5332  0.2616
13639TIP3    H162408   6.171   4.186   5.585  0.5662  0.5101  0.1054
13639TIP3    H262409   6.248   4.065   5.632 -1.2701  0.4007  3.0617
13640TIP3   OH262410   6.005   4.112   3.795 -0.1009  0.5445  0.2544
13640TIP3    H162411   6.041   4.067   3.718 -0.5184 -0.0984  0.4269
13640TIP3    H262412   5.911   4.113   3.781 -0.3457 -1.0196  1.4965
13641TIP3   OH262413   5.598   2.256   3.322  0.3253 -0.0267 -0.5103
13641TIP3    H162414   5.580   2.339   3.367  1.9024 -0.1912  0.4836
13641TIP3    H262415   5.524   2.200   3.347 -0.8857  1.1153 -1.3801
13642TIP3   OH262416   3.815   1.009  13.685  0.4948 -0.0816  0.0691
13642TIP3    H162417   3.871   0.970  13.618  0.0957 -1.5477  0.5706
13642TIP3    H262418   3.731   1.023  13.641  0.8265  0.9131 -0.3029
13643TIP3   OH262419   3.620   3.604  10.523 -0.0774  0.1378 -0.0137
13643TIP3    H162420   3.673   3.612  10.443 -1.8610  0.4535 -1.2144
13643TIP3    H262421   3.560   3.532  10.506  0.4852 -0.7798  1.6678
13644TIP3   OH262422   5.587   0.027   2.080 -0.2714 -0.0940  0.0528
13644TIP3    H162423   5.648   0.059   2.013  0.8404 -1.0775  0.5692
13644TIP3    H262424   5.588   0.095   2.147  0.1876 -0.0474  0.0048
13645TIP3   OH262425   0.258   0.662  13.596 -0.3466  0.1963  0.4733
13645TIP3    H162426   0.235   0.600  13.665 -3.0706  1.6286  1.0006
13645TIP3    H262427   0.257   0.611  13.515  0.8528 -1.0760  1.2237
13646TIP3   OH262428   4.236   1.344   1.691 -0.4411 -0.2497 -0.2018
13646TIP3    H162429   4.231   1.422   1.746 -1.4005 -0.0300 -0.5801
13646TIP3    H262430   4.326   1.313   1.702 -0.5075 -0.0103  1.1963
13647TIP3   OH262431   6.498   5.516  12.173  0.3343 -0.2213  0.7094
13647TIP3    H162432   6.496   5.445  12.108 -2.8988  1.5431 -1.4095
13647TIP3    H262433   6.587   5.551  12.167  1.4995 -2.9604  0.6194
13648TIP3   OH262434   3.265   6.642  13.613 -0.4843  0.0563 -0.0180
13648TIP3    H162435   3.311   6.623  13.532  0.5766 -1.4052  0.8791
13648TIP3    H262436   3.210   6.565  13.628 -2.6612  1.4114 -0.6277
13649TIP3   OH262437   0.729   1.332  14.552 -0.6348 -0.5721 -0.2178
13649TIP3    H162438   0.772   1.251  14.580 -0.1808  0.0297  0.8885
13649TIP3    H262439   0.713   1.380  14.633 -2.2271 -0.1932 -0.7221
13650TIP3   OH262440   0.378   2.642   5.646  0.0600 -0.4551  0.5862
13650TIP3    H162441   0.409   2.675   5.731  0.4512  0.3091  0.1528
13650TIP3    H262442   0.372   2.720   5.591 -0.8491 -0.8560  0.1062
13651TIP3   OH262443   0.484   1.217   2.218 -0.6711  0.2070  0.1096
13651TIP3    H162444   0.496   1.148   2.283 -0.5904 -1.2524 -1.4039
13651TIP3    H262445   0.566   1.218   2.168 -0.6375  1.4719  0.1404
13652TIP3   OH262446   4.127   6.719   0.352 -0.3281 -0.2251 -0.1048
13652TIP3    H162447   4.201   6.659   0.359  0.6267  0.9729  0.4578
13652TIP3    H262448   4.121   6.741   0.259 -0.3925 -0.8209 -0.2436
13653TIP3   OH262449   2.548   2.518   6.358 -0.3536 -0.2619 -0.3811
13653TIP3    H162450   2.549   2.468   6.276 -4.3545 -0.7753 -0.3380
13653TIP3    H262451   2.479   2.476   6.410 -0.6430  2.4495  1.6365
13654TIP3   OH262452   2.861   3.547   5.810 -0.4156  0.3283  0.6032
13654TIP3    H162453   2.885   3.627   5.857 -0.9117 -0.1639  1.7322
13654TIP3    H262454   2.945   3.507   5.787 -0.1547  0.4955  1.2434
13655TIP3   OH262455   1.055   0.504   1.370  0.9018 -0.2406  0.2257
13655TIP3    H162456   0.975   0.554   1.359  1.4456  0.8472  1.0369
13655TIP3    H262457   1.026   0.414   1.388 -0.0749 -0.4455 -2.1127
13656TIP3   OH262458   5.177   2.791   1.791 -0.4754  0.1789  1.1211
13656TIP3    H162459   5.202   2.700   1.775 -1.8197 -0.1939  1.0091
13656TIP3    H262460   5.163   2.795   1.886 -0.2988  0.2982  1.1416
13657TIP3   OH262461   0.909   0.010  15.427 -0.1641 -0.1353 -0.4537
13657TIP3    H162462   0.879   0.075  15.363 -0.7459 -0.2103 -0.2653
13657TIP3    H262463   0.998   0.038  15.450 -0.4769  0.7027 -0.2356
13658TIP3   OH262464   6.112   5.991   4.669 -0.5811  0.1687 -0.0291
13658TIP3    H162465   6.072   6.078   4.659  0.6946  0.7092 -0.7686
13658TIP3    H262466   6.081   5.942   4.593  0.2211  0.6236 -0.6641
13659TIP3   OH262467   1.816   3.127  13.700 -0.0416  0.2886  0.1129
13659TIP3    H162468   1.863   3.057  13.746 -0.7384  0.1325  0.6099
13659TIP3    H262469   1.883   3.173  13.650  0.3697 -0.9974 -0.5603
13660TIP3   OH262470   6.367   4.152  16.961 -0.4476 -0.5079 -0.0404
13660TIP3    H162471   6.289   4.207  16.954 -0.2337  0.0613  1.7035
13660TIP3    H262472   6.384   4.146  17.055  2.2574  0.3127 -0.3852
13661TIP3   OH262473   2.670   2.614  13.075  0.1986  0.0113 -0.3570
13661TIP3    H162474   2.654   2.641  13.165 -0.4128  0.3467 -0.5619
13661TIP3    H262475   2.667   2.519  13.078  2.4859 -0.1136  0.3915
13662TIP3   OH262476   5.038   6.060   0.861 -0.2085  0.3072  0.4540
13662TIP3    H162477   4.985   6.135   0.885  0.9779  1.8795 -1.5180
13662TIP3    H262478   5.120   6.098   0.828  1.2311 -1.9238  1.2428
13663TIP3   OH262479   6.498   3.900   2.293 -0.2776  0.3517  0.6118
13663TIP3    H162480   6.570   3.853   2.334 -0.3122  1.0316  1.4900
13663TIP3    H262481   6.453   3.834   2.241  1.4119  0.0685 -0.5863
13664TIP3   OH262482   4.705   0.160   5.210 -0.5864 -0.1379  0.0763
13664TIP3    H162483   4.666   0.229   5.264 -0.8113  0.2028 -0.5104
13664TIP3    H262484   4.778   0.127   5.263 -1.1796 -0.2517  0.8585
13665TIP3   OH262485   3.382   0.575   2.572  0.1279  0.1944  0.3639
13665TIP3    H162486   3.417   0.613   2.653 -0.0924  0.6141  0.2669
13665TIP3    H262487   3.454   0.523   2.536  0.5351  0.7540  0.3539
13666TIP3   OH262488   5.987   1.557   2.107 -0.2861 -0.3286  0.1484
13666TIP3    H162489   6.076   1.556   2.142 -0.4907  1.2314  0.8009
13666TIP3    H262490   5.933   1.583   2.182 -1.0565  0.5472 -0.6892
13667TIP3   OH262491   3.031   5.148  13.200 -0.9430  0.0844  0.0191
13667TIP3    H162492   2.958   5.086  13.196  0.0239 -1.1817  1.0853
13667TIP3    H262493   3.106   5.098  13.168  0.1554  0.1960  2.2886
13668TIP3   OH262494   5.908   1.599   4.930  0.6252  0.2082 -0.3058
13668TIP3    H162495   5.960   1.540   4.985  2.6541  1.3799 -0.8670
13668TIP3    H262496   5.922   1.568   4.841 -1.3892 -0.7264 -0.3453
13669TIP3   OH262497   3.777   5.476  13.628 -0.0626 -0.0771  0.2236
13669TIP3    H162498   3.734   5.518  13.554  2.2470  2.4174  0.1408
13669TIP3    H262499   3.799   5.388  13.596 -1.6743 -0.0815 -0.9787
13670TIP3   OH262500   2.369   6.055   5.454 -0.5928 -0.2861 -0.7283
13670TIP3    H162501   2.447   6.034   5.505 -1.3693  0.7849  0.9972
13670TIP3    H262502   2.393   6.033   5.364  2.1012  1.0736 -0.4488
13671TIP3   OH262503   0.823   2.734   2.882  0.1907 -0.8776  0.0901
13671TIP3    H162504   0.884   2.804   2.859 -0.4504 -0.6921 -1.1664
13671TIP3    H262505   0.814   2.683   2.801 -1.2422 -0.9396  0.2555
13672TIP3   OH262506   6.074   6.216  16.565 -0.6246  0.1020  0.2878
13672TIP3    H162507   6.121   6.208  16.648  0.0040 -0.1705 -0.0801
13672TIP3    H262508   6.004   6.151  16.570  0.5528 -1.2455 -0.1233
13673TIP3   OH262509   6.267   6.026   1.075  0.1002 -0.4254  0.2226
13673TIP3    H162510   6.311   5.970   1.010  2.0561  1.1407  0.0968
13673TIP3    H262511   6.181   6.045   1.036  0.4132 -1.2298 -0.9151
13674TIP3   OH262512   2.413   4.093   5.808 -0.2650 -0.2881  0.3361
13674TIP3    H162513   2.445   4.090   5.898 -1.4021 -1.1924  0.7266
13674TIP3    H262514   2.458   4.168   5.769  1.9099 -1.1719  1.0088
13675TIP3   OH262515   2.119   6.459  16.694 -0.5832 -0.1903 -0.5303
13675TIP3    H162516   2.182   6.487  16.761  0.3151  0.8485 -1.7525
13675TIP3    H262517   2.135   6.366  16.682  0.6751  0.0467 -0.7541
13676TIP3   OH262518   2.279   2.160  14.865 -0.1154  0.2965 -0.2926
13676TIP3    H162519   2.365   2.203  14.862 -0.9267  1.9720 -1.3888
13676TIP3    H262520   2.250   2.160  14.773 -1.3511 -0.0688  0.0886
13677TIP3   OH262521   1.278   0.199   4.055 -0.3592 -0.1664  0.3517
13677TIP3    H162522   1.276   0.105   4.070  1.2499 -0.1693  0.6743
13677TIP3    H262523   1.237   0.210   3.969  0.7892 -1.3287 -0.3761
13678TIP3   OH262524   6.186   2.170   1.697 -0.3911 -0.2084 -0.6154
13678TIP3    H162525   6.095   2.200   1.699 -0.5939 -0.8429  0.3454
13678TIP3    H262526   6.236   2.243   1.733 -0.6860 -0.3696  0.1359
13679TIP3   OH262527   1.703   4.269  14.504  0.1467 -0.1870 -0.0625
13679TIP3    H162528   1.740   4.282  14.591 -0.1840  2.4814 -0.2259
13679TIP3    H262529   1.769   4.304  14.444 -0.4005 -0.3042 -0.7506
13680TIP3   OH262530   1.437   1.725   4.566 -0.4664  0.3407 -0.1307
13680TIP3    H162531   1.395   1.675   4.636  1.4719 -0.3580  0.5968
13680TIP3    H262532   1.408   1.681   4.485 -0.3529 -0.7580  0.4021
13681TIP3   OH262533   5.614   1.689  11.875 -0.4274 -1.0617 -0.5844
13681TIP3    H162534   5.670   1.765  11.862 -0.6965 -0.6094  0.7299
13681TIP3    H262535   5.632   1.632  11.800  0.6768 -0.2590 -0.9468
13682TIP3   OH262536   6.780   0.724  12.859  0.3782  0.0093  0.3388
13682TIP3    H162537   6.873   0.746  12.864  0.4025 -0.1622  0.6450
13682TIP3    H262538   6.755   0.746  12.769  0.8765 -0.5895  0.0461
13683TIP3   OH262539   4.499   3.958   3.240 -0.4412 -0.0564 -0.5339
13683TIP3    H162540   4.589   3.926   3.229 -0.8264 -1.3624 -0.1329
13683TIP3    H262541   4.459   3.946   3.154 -0.1451  0.8697 -0.8127
13684TIP3   OH262542   6.051   5.964   0.280  0.2973 -0.3491  0.1725
13684TIP3    H162543   6.094   5.897   0.227  2.3543  1.1095 -0.1322
13684TIP3    H262544   6.089   5.953   0.367  0.1752  0.0217  0.2734
13685TIP3   OH262545   0.730   1.528  16.101  0.6468 -0.2255  0.2380
13685TIP3    H162546   0.778   1.524  16.183  0.0857 -1.2528  0.5282
13685TIP3    H262547   0.765   1.456  16.048  1.5868  0.9167 -0.7790
13686TIP3   OH262548   0.681   0.707  11.599  0.4269  0.4848  0.3251
13686TIP3    H162549   0.716   0.645  11.535  0.5782  0.2799  0.6010
13686TIP3    H262550   0.618   0.760  11.550  0.9176  0.6764 -0.1161
13687TIP3   OH262551   0.721   1.713   2.046 -0.3658 -0.3411  0.1219
13687TIP3    H162552   0.707   1.806   2.025 -1.9557 -0.8929 -1.4829
13687TIP3    H262553   0.651   1.691   2.107  0.8769 -0.1631  1.6608
13688TIP3   OH262554   0.816   2.952  15.740  0.0296  0.0786  0.1666
13688TIP3    H162555   0.802   2.864  15.776  1.9576 -0.1397  0.4762
13688TIP3    H262556   0.732   2.996  15.752 -0.0015 -0.5981  3.1738
13689TIP3   OH262557   6.410   4.650   0.393  0.1203 -0.1826  0.0455
13689TIP3    H162558   6.368   4.698   0.322 -0.4840  0.9639  1.1278
13689TIP3    H262559   6.392   4.703   0.471  1.4318 -0.9796  0.9326
13690TIP3   OH262560   6.188   0.409   0.649 -0.1759  0.4622  0.2631
13690TIP3    H162561   6.113   0.400   0.709 -0.6502  1.9134 -0.0480
13690TIP3    H262562   6.182   0.500   0.619  1.7213  0.5925  0.2111
13691TIP3   OH262563   4.896   4.152  17.142 -0.1668 -0.3543 -0.2402
13691TIP3    H162564   4.836   4.179  17.211 -1.2296 -1.0912 -0.8379
13691TIP3    H262565   4.959   4.224  17.135 -0.3585 -0.0215  1.1010
13692TIP3   OH262566   2.783   1.575   4.115 -0.2571  1.0211  0.2401
13692TIP3    H162567   2.727   1.650   4.137 -2.3275 -0.6117  0.8610
13692TIP3    H262568   2.858   1.583   4.174  0.7066  3.7252 -1.1659
13693TIP3   OH262569   2.283   0.825   0.722  0.5506  0.5834  0.1062
13693TIP3    H162570   2.307   0.914   0.695 -0.1797  0.8197  0.2266
13693TIP3    H262571   2.198   0.809   0.682  0.7958 -0.1735 -0.1368
13694TIP3   OH262572   4.039   4.181   0.033 -0.5804  0.3909  0.3384
13694TIP3    H162573   4.047   4.092   0.001 -1.2274 -0.5861  2.6523
13694TIP3    H262574   3.949   4.189   0.064  0.1041  0.9758  2.3887
13695TIP3   OH262575   1.579   5.919  11.031 -0.3679 -0.0763  0.2952
13695TIP3    H162576   1.515   5.849  11.013 -1.4148  0.9693 -0.2031
13695TIP3    H262577   1.555   5.989  10.970  0.7800  0.6496  0.6568
13696TIP3   OH262578   3.501   2.714  13.564 -0.1555 -0.2251  0.1749
13696TIP3    H162579   3.512   2.670  13.649  0.4729 -0.1594  0.1293
13696TIP3    H262580   3.524   2.647  13.500  2.1171  0.5285  0.1376
13697TIP3   OH262581   2.501   3.622  12.496  0.3221 -0.6363  0.1990
13697TIP3    H162582   2.568   3.621  12.428 -0.0102 -2.3016 -0.1378
13697TIP3    H262583   2.425   3.663  12.454  0.1400 -1.5970 -0.4467
13698TIP3   OH262584   0.726   1.212  17.276  0.0394  0.3696  0.0761
13698TIP3    H162585   0.692   1.163  17.350 -1.4972 -0.3330 -1.0276
13698TIP3    H262586   0.820   1.193  17.274  0.0927  0.3612  1.7681
13699TIP3   OH262587   4.436   1.729   0.833 -0.3902 -0.0149 -0.1683
13699TIP3    H162588   4.429   1.798   0.766 -0.0813  0.4477  0.2719
13699TIP3    H262589   4.524   1.693   0.821 -0.7770 -0.7792 -0.8169
13700TIP3   OH262590   3.886   1.987  11.837 -0.2921 -0.2189  0.4016
13700TIP3    H162591   3.960   1.994  11.897 -0.6209  0.1197  0.7666
13700TIP3    H262592   3.869   2.077  11.809  0.3295 -0.4477 -0.7777
13701TIP3   OH262593   2.194   6.516   4.036  0.2353  1.0221  0.4483
13701TIP3    H162594   2.139   6.581   4.079 -0.0213  0.3383  1.1927
13701TIP3    H262595   2.132   6.461   3.988  0.3585  0.7965  0.5464
13702TIP3   OH262596   5.529   1.718   1.171 -0.3838 -0.7475  0.2529
13702TIP3    H162597   5.613   1.726   1.216 -0.7059 -0.6429  0.8565
13702TIP3    H262598   5.550   1.682   1.085  0.9117  3.9119 -1.6545
13703TIP3   OH262599   0.996   5.118  16.660  0.4492 -0.1591  0.2462
13703TIP3    H162600   1.077   5.109  16.609  1.5821 -1.4678  2.1173
13703TIP3    H262601   0.978   5.030  16.692 -1.3023  0.2681  0.5310
13704TIP3   OH262602   6.160   6.359   4.113 -0.2688 -0.1004 -0.1149
13704TIP3    H162603   6.157   6.291   4.180  2.9809 -0.2259  0.0746
13704TIP3    H262604   6.166   6.312   4.030  1.9449 -0.1860  0.0143
13705TIP3   OH262605   6.045   6.558  12.819 -0.0005 -0.1326 -0.4363
13705TIP3    H162606   6.097   6.633  12.848 -1.8618  1.0992 -0.1523
13705TIP3    H262607   5.961   6.568  12.863 -0.3792 -2.2985 -0.5625
13706TIP3   OH262608   0.290   3.031  15.446  0.0691  0.2030 -0.1617
13706TIP3    H162609   0.249   3.116  15.432 -1.0678  0.1431  2.1863
13706TIP3    H262610   0.216   2.971  15.459  0.8574 -0.6032  0.8038
13707TIP3   OH262611   1.789   5.176  16.860  0.2206  0.1621 -0.2893
13707TIP3    H162612   1.802   5.120  16.784  0.5607  0.2213 -0.2768
13707TIP3    H262613   1.759   5.259  16.824  3.6484  1.4029 -0.7292
13708TIP3   OH262614   4.643   2.004  16.900  0.4836 -0.0401  0.0463
13708TIP3    H162615   4.625   1.940  16.830  0.8866  1.6920 -1.7269
13708TIP3    H262616   4.578   1.984  16.968 -0.5033 -1.2538 -1.1901
13709TIP3   OH262617   4.032   2.325   4.800 -0.1764 -0.1839  0.0398
13709TIP3    H162618   3.976   2.253   4.828 -0.9968  0.6156  0.4735
13709TIP3    H262619   4.117   2.283   4.785 -0.3556 -1.0819  1.2845
13710TIP3   OH262620   1.224   0.635  10.419  0.2732 -0.2735  0.2039
13710TIP3    H162621   1.178   0.551  10.409  1.3071 -0.7697 -0.5850
13710TIP3    H262622   1.253   0.657  10.330  1.1514  0.2558  0.6066
13711TIP3   OH262623   4.152   5.702  11.799 -0.3376 -0.5074 -0.1695
13711TIP3    H162624   4.086   5.769  11.816 -0.1930 -0.3340 -0.2849
13711TIP3    H262625   4.125   5.628  11.853 -1.8788 -1.2746 -1.8904
13712TIP3   OH262626   4.459   0.425  12.978 -0.2101  0.1551  0.5935
13712TIP3    H162627   4.390   0.377  12.931 -0.2420 -0.1797  0.9743
13712TIP3    H262628   4.512   0.357  13.019  0.0145  0.4332  0.7708
13713TIP3   OH262629   3.304   6.729   2.425 -0.4888  0.3064  0.2582
13713TIP3    H162630   3.286   6.726   2.331 -1.2626 -0.9590  0.4373
13713TIP3    H262631   3.399   6.718   2.431 -0.5589 -0.7108 -0.3320
13714TIP3   OH262632   3.991   1.859   0.169  0.3469 -0.0946  0.2080
13714TIP3    H162633   3.905   1.874   0.130  0.8649  2.5842 -0.1088
13714TIP3    H262634   3.972   1.826   0.257 -0.9385 -0.8543 -0.3236
13715TIP3   OH262635   5.522   2.393   2.720 -0.5949  0.1453 -0.2578
13715TIP3    H162636   5.438   2.438   2.725 -1.2809 -1.0835 -0.4181
13715TIP3    H262637   5.557   2.397   2.809 -1.1703  0.0299 -0.0220
13716TIP3   OH262638   6.074   5.858   4.904 -0.3379  0.2243  0.2943
13716TIP3    H162639   6.006   5.804   4.864  0.5301 -0.2024 -0.6376
13716TIP3    H262640   6.099   5.920   4.836  0.0195  0.5630  0.7234
13717TIP3   OH262641   0.258   2.793  16.482 -0.3198  0.3902  0.4029
13717TIP3    H162642   0.332   2.826  16.431  1.1484 -3.7344 -0.5491
13717TIP3    H262643   0.183   2.800  16.423  0.2046  0.7729 -0.2316
13718TIP3   OH262644   5.458   6.638   2.752 -0.3056  0.2606 -0.2297
13718TIP3    H162645   5.552   6.652   2.764 -0.0983 -1.8651  1.0539
13718TIP3    H262646   5.450   6.595   2.667  0.4985 -3.9295  1.5906
13719TIP3   OH262647   4.973   2.880  14.060 -0.3923 -0.9926  0.0976
13719TIP3    H162648   4.892   2.855  14.105 -0.5653  0.8559  0.9215
13719TIP3    H262649   4.957   2.859  13.968 -2.4280  0.6441  0.0016
13720TIP3   OH262650   2.713   0.933  15.739 -0.3988 -0.4219 -0.5172
13720TIP3    H162651   2.671   0.868  15.683 -0.0798  0.0477 -1.3265
13720TIP3    H262652   2.792   0.959  15.691  0.0376 -0.2170  0.2921
13721TIP3   OH262653   4.242   1.528   0.804  0.5511 -0.0980  0.3540
13721TIP3    H162654   4.257   1.508   0.896  0.4092 -0.1264  0.3718
13721TIP3    H262655   4.305   1.598   0.784  0.9522 -0.4644  0.3271
13722TIP3   OH262656   4.148   1.468  13.821  0.2720 -0.3491  0.2644
13722TIP3    H162657   4.138   1.540  13.883  0.1684  1.4314 -1.7295
13722TIP3    H262658   4.240   1.473  13.793 -0.1609  0.1377 -1.1513
13723TIP3   OH262659   6.673   3.190  13.232 -0.3360  0.3191  0.2094
13723TIP3    H162660   6.763   3.189  13.266  0.4693 -0.6758 -1.7807
13723TIP3    H262661   6.653   3.097  13.218 -1.1401  0.6218 -0.6939
13724TIP3   OH262662   2.586   1.099   5.683 -0.2205  0.3275  0.5753
13724TIP3    H162663   2.568   1.086   5.776 -1.4161  1.5755  0.5584
13724TIP3    H262664   2.681   1.100   5.676 -0.1094 -0.6557  1.6314
13725TIP3   OH262665   0.515   0.704  17.133 -0.2872 -0.3627 -0.1038
13725TIP3    H162666   0.587   0.713  17.071  0.8366  0.2645  1.2229
13725TIP3    H262667   0.552   0.733  17.217 -2.1373  0.1423  0.5891
13726TIP3   OH262668   1.201   2.459  11.354 -0.1437 -0.1492 -0.3836
13726TIP3    H162669   1.179   2.439  11.264  1.9142  0.8090 -1.1775
13726TIP3    H262670   1.292   2.429  11.364 -1.3199 -3.4987  2.4783
13727TIP3   OH262671   0.097   2.868  13.466  0.0815  0.2496 -0.5262
13727TIP3    H162672   0.163   2.897  13.529  0.1897  1.2833 -1.0811
13727TIP3    H262673   0.014   2.902  13.502  0.1903  1.1780 -1.1038
13728TIP3   OH262674   5.262   0.355   1.272  0.3480  0.1720  0.1999
13728TIP3    H162675   5.257   0.260   1.281 -1.0040  0.0506 -1.3723
13728TIP3    H262676   5.303   0.369   1.187  0.9065  1.0147  0.5935
13729TIP3   OH262677   6.070   2.761  17.146 -0.3221 -0.3008  0.3686
13729TIP3    H162678   6.024   2.677  17.137 -1.6229  0.3929  0.4716
13729TIP3    H262679   6.033   2.816  17.077  0.9690  0.0097 -0.0999
13730TIP3   OH262680   1.419   6.211   1.918  0.1130  0.4348 -0.0535
13730TIP3    H162681   1.365   6.159   1.978  0.9009  0.0897  0.3795
13730TIP3    H262682   1.451   6.284   1.972  3.1040 -1.3411  0.8605
13731TIP3   OH262683   5.830   2.322   5.121  0.4102 -0.0508 -0.1322
13731TIP3    H162684   5.895   2.252   5.113 -1.2079 -1.9717  2.1196
13731TIP3    H262685   5.825   2.340   5.215 -1.8690  0.4510 -0.2876
13732TIP3   OH262686   3.382   3.314   2.483  0.1772 -0.1530 -0.5229
13732TIP3    H162687   3.396   3.271   2.568 -0.0289  2.1119  0.7522
13732TIP3    H262688   3.455   3.285   2.429  1.7908  0.2934  1.2892
13733TIP3   OH262689   4.164   1.964  17.275  0.1075  0.5856 -0.1613
13733TIP3    H162690   4.107   1.929  17.342  1.6678 -0.2629  0.7856
13733TIP3    H262691   4.228   2.017  17.322  0.4733  1.0265 -1.1166
13734TIP3   OH262692   3.067   0.437  16.925 -0.0175 -0.0937 -0.2045
13734TIP3    H162693   3.016   0.430  16.844  0.3519  2.0405 -0.6984
13734TIP3    H262694   3.007   0.479  16.986  0.4865  0.5833 -0.1650
13735TIP3   OH262695   4.037   5.758   5.125 -0.3105  0.5030  0.2572
13735TIP3    H162696   4.063   5.667   5.137  0.0470  0.7403  1.3538
13735TIP3    H262697   4.029   5.768   5.030  1.3693 -0.1923  0.0063
13736TIP3   OH262698   1.135   2.217   4.305  0.1600 -0.5535 -0.0601
13736TIP3    H162699   1.191   2.210   4.382  0.6662 -0.4474 -0.4179
13736TIP3    H262700   1.161   2.299   4.263 -0.7774 -0.1161  0.1713
13737TIP3   OH262701   2.147   4.107  15.796 -0.3352  0.3128 -0.3115
13737TIP3    H162702   2.138   4.013  15.814 -0.5121  0.5981  1.1879
13737TIP3    H262703   2.141   4.114  15.700 -0.4793 -1.1785 -0.4297
13738TIP3   OH262704   2.847   6.006  11.792 -0.5090  0.7366 -0.5803
13738TIP3    H162705   2.845   5.971  11.881  1.7359  0.6684 -0.5120
13738TIP3    H262706   2.848   5.929  11.736 -0.0842  0.7524 -0.5953
13739TIP3   OH262707   5.384   5.503   5.947  0.5763  0.1173  0.7008
13739TIP3    H162708   5.300   5.509   5.901  0.2817  0.0036  1.2198
13739TIP3    H262709   5.361   5.498   6.040  1.0137 -2.5049  0.7528
13740TIP3   OH262710   6.707   5.988   3.111 -0.6490  0.1320  0.5878
13740TIP3    H162711   6.661   6.064   3.076 -1.5672 -0.0262  1.4313
13740TIP3    H262712   6.646   5.915   3.100  0.2736 -0.5371 -0.3512
13741TIP3   OH262713   4.282   1.012  11.642 -0.7714 -0.4828 -0.1673
13741TIP3    H162714   4.264   1.041  11.553  0.5878 -1.7605 -0.8999
13741TIP3    H262715   4.327   0.928  11.632 -0.5167 -0.6279  1.7198
13742TIP3   OH262716   2.710   4.698  16.413  0.2029  0.2193  0.0467
13742TIP3    H162717   2.707   4.646  16.333 -0.6190  1.8219 -0.9991
13742TIP3    H262718   2.803   4.699  16.438  0.5408  0.1314 -1.1628
13743TIP3   OH262719   4.129   5.599  13.598 -0.1893  0.6348 -0.3010
13743TIP3    H162720   4.074   5.569  13.671  0.5266  0.3756  0.1394
13743TIP3    H262721   4.095   5.686  13.577  1.3289  1.9387  2.1878
13744TIP3   OH262722   0.963   2.052  12.228  0.0233 -0.3204  0.1516
13744TIP3    H162723   1.017   2.025  12.153  1.4454  1.2277  0.5579
13744TIP3    H262724   0.906   1.977  12.244  1.6537 -1.8272 -0.6794
13745TIP3   OH262725   5.998   3.914   5.722 -0.3069  0.3748  0.0131
13745TIP3    H162726   5.957   4.001   5.716  2.4596  1.8387  0.5564
13745TIP3    H262727   6.085   3.927   5.685  1.1894 -1.4393  2.6303
13746TIP3   OH262728   4.973   2.162  16.561  0.0891 -0.0808 -0.4990
13746TIP3    H162729   5.056   2.143  16.519 -0.0886 -0.8214 -0.5311
13746TIP3    H262730   4.956   2.085  16.615  0.0847  0.6473  0.5615
13747TIP3   OH262731   6.530   6.485   0.486  0.0326 -0.3967 -0.9998
13747TIP3    H162732   6.625   6.483   0.496  0.1482  0.8922 -1.5379
13747TIP3    H262733   6.503   6.566   0.531 -0.7262 -0.4300 -1.3751
13748TIP3   OH262734   3.968   2.669  14.894 -0.2415  0.0073  0.1902
13748TIP3    H162735   3.943   2.670  14.802 -1.0516 -1.3174  0.3700
13748TIP3    H262736   4.049   2.720  14.897 -0.9610  1.3055 -1.0070
13749TIP3   OH262737   1.743   5.225   5.284 -0.3112  0.6761 -0.2394
13749TIP3    H162738   1.672   5.209   5.346  0.9804  0.3916  1.2323
13749TIP3    H262739   1.800   5.148   5.292  1.5823  2.0872  0.6766
13750TIP3   OH262740   6.323   0.502  13.303 -0.5331 -0.0755 -0.1423
13750TIP3    H162741   6.313   0.475  13.395  2.0118  0.9078  0.5301
13750TIP3    H262742   6.301   0.595  13.303 -1.9015 -0.3754 -0.8718
13751TIP3   OH262743   3.655   0.542  16.750 -0.0828  0.5228  0.0104
13751TIP3    H162744   3.560   0.527  16.750 -0.0986  0.5467 -1.1234
13751TIP3    H262745   3.664   0.637  16.761 -0.2018  0.5621 -0.2216
13752TIP3   OH262746   0.957   3.678  15.174  0.4137 -0.0740  0.6210
13752TIP3    H162747   0.968   3.647  15.264  0.0938 -0.2684  0.5948
13752TIP3    H262748   1.034   3.645  15.128  0.5463 -0.0304  0.8064
13753TIP3   OH262749   5.304   0.459   0.748  0.7747  0.3223  0.3690
13753TIP3    H162750   5.381   0.508   0.780 -0.2138  2.3574 -0.2240
13753TIP3    H262751   5.243   0.460   0.822  1.1674 -1.0750  0.7507
13754TIP3   OH262752   4.728   1.966   3.940 -0.0863 -0.1082 -0.1121
13754TIP3    H162753   4.714   1.954   3.846  3.7603  1.0205 -1.0159
13754TIP3    H262754   4.742   2.061   3.950  0.5658 -0.3297  1.4263
13755TIP3   OH262755   3.353   1.233  16.636  0.2408 -0.0003 -0.4615
13755TIP3    H162756   3.385   1.297  16.699  0.4233 -0.9137  0.4042
13755TIP3    H262757   3.355   1.150  16.684 -0.5896 -0.5471 -1.3510
13756TIP3   OH262758   5.681   3.759   4.403 -0.1958 -0.0338 -0.0497
13756TIP3    H162759   5.736   3.694   4.359 -0.7618 -1.6373  1.4687
13756TIP3    H262760   5.727   3.842   4.392  0.6536 -0.7155 -1.8899
13757TIP3   OH262761   5.360   5.468  13.260  0.1158  0.4702  0.6743
13757TIP3    H162762   5.319   5.554  13.268 -0.5917  0.3362 -1.1163
13757TIP3    H262763   5.452   5.483  13.279 -0.0776  1.5401  0.8183
13758TIP3   OH262764   2.694   5.353   5.452 -0.0251  0.4398  0.4381
13758TIP3    H162765   2.694   5.397   5.367 -1.1981 -0.7746 -0.2277
13758TIP3    H262766   2.680   5.261   5.431  0.5579 -0.0056  1.9095
13759TIP3   OH262767   6.432   1.200  13.379 -0.5172 -0.3383 -0.8682
13759TIP3    H162768   6.405   1.290  13.363  0.1711  0.1448  0.4788
13759TIP3    H262769   6.527   1.200  13.368 -0.5951 -1.0888 -1.6370
13760TIP3   OH262770   3.230   0.117   4.243  0.0818  0.1403 -0.1127
13760TIP3    H162771   3.174   0.084   4.313  0.3116  2.3018  1.1757
13760TIP3    H262772   3.187   0.197   4.213  2.3498  1.8622  0.8944
13761TIP3   OH262773   3.049   5.689  12.772  0.5216  0.0599 -0.2621
13761TIP3    H162774   3.104   5.766  12.788  0.4837 -0.0833  0.6446
13761TIP3    H262775   3.030   5.655  12.860  0.0617 -0.6484 -0.6259
13762TIP3   OH262776   6.147   4.680  16.070  0.5482 -0.0915  0.0901
13762TIP3    H162777   6.067   4.629  16.082  0.9701 -0.5747  0.8777
13762TIP3    H262778   6.178   4.657  15.982  1.0245 -1.6168  0.6392
13763TIP3   OH262779   4.227   2.848  13.954 -0.2748  0.6202 -0.9143
13763TIP3    H162780   4.297   2.842  14.019  0.2016 -3.8719 -1.5387
13763TIP3    H262781   4.267   2.895  13.880  1.2315  0.4141 -0.2758
13764TIP3   OH262782   0.228   2.097  15.814 -0.1552 -0.1162 -0.5069
13764TIP3    H162783   0.253   2.153  15.887 -2.3920 -0.1238  0.3675
13764TIP3    H262784   0.134   2.113  15.803 -0.1454 -1.0944 -2.5445
13765TIP3   OH262785   6.522   0.206  10.428 -0.0006 -0.4967  0.1882
13765TIP3    H162786   6.479   0.191  10.512 -0.0832  1.7289  0.5974
13765TIP3    H262787   6.533   0.301  10.423  0.7217 -0.6394 -1.9738
13766TIP3   OH262788   1.076   5.127  12.795  0.1856  0.0852 -0.1275
13766TIP3    H162789   1.098   5.204  12.743  1.5545 -0.1706  0.0325
13766TIP3    H262790   1.160   5.096  12.830 -0.5174 -0.5868  1.0672
13767TIP3   OH262791   1.854   2.699   1.692 -0.4691  0.6169 -0.0667
13767TIP3    H162792   1.942   2.682   1.726 -0.1476 -0.5155 -1.4073
13767TIP3    H262793   1.797   2.640   1.741 -0.3490  0.6550  0.1208
13768TIP3   OH262794   1.728   1.597  10.406  0.4124 -0.7748  0.1978
13768TIP3    H162795   1.643   1.589  10.363  1.9463 -2.6569 -2.9051
13768TIP3    H262796   1.742   1.512  10.448  0.1344  0.1026  2.1923
13769TIP3   OH262797   3.136   4.064   2.313  0.4755 -0.6427 -0.6588
13769TIP3    H162798   3.157   4.132   2.377  0.5919 -1.4048  0.1270
13769TIP3    H262799   3.212   4.007   2.312  0.0196 -1.2571 -0.6582
13770TIP3   OH262800   6.124   2.534   6.398  0.2188  0.0655 -0.1941
13770TIP3    H162801   6.050   2.530   6.459  0.3532  2.5323  0.2250
13770TIP3    H262802   6.143   2.627   6.389  1.3052 -0.3034 -2.7248
13771TIP3   OH262803   0.571   0.652   0.841 -0.3662  0.0170  0.5678
13771TIP3    H162804   0.642   0.714   0.824  0.1537 -1.0287 -1.3590
13771TIP3    H262805   0.612   0.579   0.887 -0.6482  0.3330  1.3449
13772TIP3   OH262806   0.299   6.460   4.453 -0.1775  0.1333 -0.3547
13772TIP3    H162807   0.254   6.537   4.486 -0.0399 -0.2139  0.6655
13772TIP3    H262808   0.389   6.489   4.438 -0.5879  0.6986 -1.9385
13773TIP3   OH262809   1.726   3.295  14.684  0.3709  0.1479 -0.2168
13773TIP3    H162810   1.721   3.229  14.753  1.2190  0.2744 -0.0247
13773TIP3    H262811   1.686   3.373  14.723 -2.0795 -0.6367 -0.9703
13774TIP3   OH262812   4.632   5.646  11.487 -0.2903  0.9173 -0.2144
13774TIP3    H162813   4.626   5.741  11.496 -1.5572  1.1462 -2.6599
13774TIP3    H262814   4.549   5.613  11.521  0.0451  0.7050  0.4009
13775TIP3   OH262815   3.097   3.392   5.161 -0.1520  0.9766  0.2652
13775TIP3    H162816   3.111   3.335   5.086  0.6929 -2.0513  2.5258
13775TIP3    H262817   3.185   3.420   5.187 -0.1934 -0.0317  1.5462
13776TIP3   OH262818   5.560   3.864  15.923  0.7393 -0.1525  0.2924
13776TIP3    H162819   5.478   3.872  15.875 -0.0952  2.3799  1.9406
13776TIP3    H262820   5.627   3.888  15.859 -0.0568  0.2435 -0.4151
13777TIP3   OH262821   2.207   6.642  15.505 -0.1374 -0.1161  0.2101
13777TIP3    H162822   2.184   6.690  15.426  0.6541 -1.1957 -0.6947
13777TIP3    H262823   2.237   6.710  15.566 -1.0633  0.7570 -0.2740
13778TIP3   OH262824   2.236   0.892  11.747  0.0109  0.3304  0.7389
13778TIP3    H162825   2.154   0.911  11.702  0.8885  0.7900 -0.7288
13778TIP3    H262826   2.213   0.825  11.812 -1.7150  1.1961  1.0824
13779TIP3   OH262827   3.860   3.921  14.225 -0.4015  0.4635 -0.0370
13779TIP3    H162828   3.841   3.827  14.220 -1.3561  0.7045 -1.2349
13779TIP3    H262829   3.921   3.929  14.298 -0.2586 -1.1007  0.0442
13780TIP3   OH262830   2.302   0.131   5.623 -0.1867  0.4775 -0.2523
13780TIP3    H162831   2.297   0.080   5.543  0.3428  1.6903 -1.0903
13780TIP3    H262832   2.337   0.070   5.688 -2.5684 -1.1184 -0.3584
13781TIP3   OH262833   2.263   1.915   3.917 -0.4289 -0.2186  0.2884
13781TIP3    H162834   2.251   1.820   3.919  0.8291 -0.4457 -0.9961
13781TIP3    H262835   2.228   1.942   3.832 -0.8931  0.4920  0.6960
13782TIP3   OH262836   1.046   1.528  14.834  0.0638  0.5219  0.0262
13782TIP3    H162837   1.035   1.491  14.921 -1.4425 -1.7588 -1.0431
13782TIP3    H262838   1.127   1.489  14.800  0.5604  1.2803  0.3008
13783TIP3   OH262839   5.305   2.621  14.730 -0.0708  0.2801 -0.0653
13783TIP3    H162840   5.316   2.709  14.766  2.6759  0.0148 -0.0250
13783TIP3    H262841   5.344   2.563  14.795 -1.6922 -0.9829 -0.1657
13784TIP3   OH262842   5.072   6.017  14.555  0.0228  0.2729 -0.2365
13784TIP3    H162843   5.080   5.922  14.544 -1.3296  0.2210 -0.9152
13784TIP3    H262844   5.083   6.053  14.467  1.1128  0.8214  0.0971
13785TIP3   OH262845   1.342   6.501  15.044 -0.8960 -0.4180  0.5154
13785TIP3    H162846   1.317   6.495  15.136  0.4619 -1.2039  0.8654
13785TIP3    H262847   1.288   6.571  15.008 -2.7134 -1.2767  1.4697
13786TIP3   OH262848   3.114   1.194  10.394 -0.1063 -0.8119 -0.0410
13786TIP3    H162849   3.187   1.164  10.340  0.1619 -1.4264  0.6490
13786TIP3    H262850   3.070   1.260  10.341  2.3836  1.4193  0.4492
13787TIP3   OH262851   4.306   1.593  12.642  0.3218 -0.7375  0.5019
13787TIP3    H162852   4.218   1.622  12.667  0.8011  1.6139 -0.2807
13787TIP3    H262853   4.342   1.556  12.723  0.2080  2.4671  2.1781
13788TIP3   OH262854   0.276   1.156   3.465 -0.1978 -0.3486  0.2784
13788TIP3    H162855   0.318   1.103   3.398 -1.2992  0.9834 -1.5623
13788TIP3    H262856   0.308   1.245   3.449 -0.2731 -0.0414  1.7189
13789TIP3   OH262857   0.813   6.786   3.165  0.0764 -0.2340  0.5257
13789TIP3    H162858   0.819   6.747   3.078  1.9014  0.6192  0.2146
13789TIP3    H262859   0.854   6.872   3.156 -0.9494  0.4448  1.9200
13790TIP3   OH262860   1.971   4.272   4.022  0.5738 -0.2885  0.0986
13790TIP3    H162861   2.021   4.221   4.085  0.1917  0.5034  1.0581
13790TIP3    H262862   1.917   4.207   3.977 -0.4395 -0.6897  1.7973
13791TIP3   OH262863   3.324   2.030  12.360 -0.4160  0.0075  0.1792
13791TIP3    H162864   3.391   2.096  12.341 -0.3922 -0.0547  0.0433
13791TIP3    H262865   3.348   1.996  12.446  0.3492 -0.7670 -0.3208
13792TIP3   OH262866   6.229   2.631  14.214 -0.2959  0.0860  0.0264
13792TIP3    H162867   6.159   2.572  14.243  1.1372 -1.0986  1.2766
13792TIP3    H262868   6.204   2.717  14.248 -0.6408 -0.5223  1.3585
13793TIP3   OH262869   4.633   6.145  12.206 -0.1324  0.1808  0.0427
13793TIP3    H162870   4.573   6.074  12.184  0.4305 -0.5200  0.7183
13793TIP3    H262871   4.578   6.210  12.249 -0.0506 -1.6758  3.3117
13794TIP3   OH262872   1.268   4.220   5.068  0.1108  0.1612  0.2800
13794TIP3    H162873   1.268   4.285   4.998  2.6202  0.1846  0.1973
13794TIP3    H262874   1.272   4.271   5.149  0.9736  0.1512  0.2567
13795TIP3   OH262875   0.293   3.256  15.711 -0.2001  0.1737 -0.2006
13795TIP3    H162876   0.333   3.217  15.634  0.4568  0.3441  0.0471
13795TIP3    H262877   0.319   3.198  15.783  0.6840  0.9769  0.1536
13796TIP3   OH262878   3.481   4.719  13.895  0.1784  0.1310  0.2912
13796TIP3    H162879   3.434   4.643  13.928 -0.7433  0.4188 -0.3079
13796TIP3    H262880   3.418   4.791  13.900  0.4789  0.4886 -0.7078
13797TIP3   OH262881   4.750   3.052  14.726  1.3048 -0.6071  0.4718
13797TIP3    H162882   4.662   3.090  14.730  2.2527  1.7108  1.1061
13797TIP3    H262883   4.737   2.964  14.691 -1.0810  0.2164 -0.9384
13798TIP3   OH262884   5.375   0.783  16.729  0.2138 -0.0444  0.2164
13798TIP3    H162885   5.397   0.841  16.802  1.7130  1.0457 -1.0376
13798TIP3    H262886   5.434   0.810  16.658 -3.2273  1.1181 -2.5091
13799TIP3   OH262887   4.547   3.663  11.713 -0.0513  0.4083  0.1803
13799TIP3    H162888   4.578   3.742  11.757  1.4883  0.0553 -0.2009
13799TIP3    H262889   4.533   3.689  11.622  1.2415  0.1001 -0.1358
13800TIP3   OH262890   2.645   2.607  12.046 -0.2176  0.0684  0.5948
13800TIP3    H162891   2.690   2.541  12.099  2.0259  0.3616 -0.8283
13800TIP3    H262892   2.689   2.606  11.962 -1.2421  2.2038 -0.0608
13801TIP3   OH262893   5.073   3.867   0.442 -0.7059  0.2271 -0.3735
13801TIP3    H162894   4.984   3.839   0.422 -1.3030  2.3728 -0.9714
13801TIP3    H262895   5.097   3.816   0.520 -2.1331 -0.9477 -0.6582
13802TIP3   OH262896   6.112   1.692  12.852  0.0018  0.2147  0.0700
13802TIP3    H162897   6.156   1.653  12.776 -0.9022 -0.1727 -0.2808
13802TIP3    H262898   6.182   1.725  12.907  0.6722  1.3316 -1.3716
13803TIP3   OH262899   5.475   6.214  12.071 -0.1735 -0.0770  0.4686
13803TIP3    H162900   5.430   6.263  12.141 -0.8436 -1.6284  1.1662
13803TIP3    H262901   5.406   6.199  12.006 -0.2036 -0.8335  0.6690
13804TIP3   OH262902   1.664   0.882   1.640 -0.7485  0.1552 -0.1325
13804TIP3    H162903   1.648   0.940   1.715 -0.2511 -0.4947  0.4880
13804TIP3    H262904   1.755   0.854   1.650 -1.0727 -0.9999 -0.2215
13805TIP3   OH262905   0.984   4.838   3.361 -0.3688 -0.2560  0.5926
13805TIP3    H162906   1.038   4.864   3.436 -0.5007  0.2560  0.5137
13805TIP3    H262907   1.013   4.894   3.289 -1.2547  0.2910  0.6488
13806TIP3   OH262908   0.474   5.983  15.165  0.3544 -0.2964  0.2679
13806TIP3    H162909   0.390   5.944  15.142  0.7490 -0.2132 -1.5076
13806TIP3    H262910   0.527   5.909  15.196  0.7490 -1.0791 -2.0667
13807TIP3   OH262911   4.968   2.225  15.470  0.0279  0.2939 -0.1207
13807TIP3    H162912   4.932   2.167  15.403 -1.0716  0.5184  0.2569
13807TIP3    H262913   5.026   2.169  15.521  0.6032  0.0369 -1.0383
13808TIP3   OH262914   6.721   4.721  14.759  0.4357 -0.3175 -0.2373
13808TIP3    H162915   6.720   4.790  14.826 -0.5511 -0.2481 -0.3058
13808TIP3    H262916   6.756   4.644  14.805 -0.1335 -0.2445  0.3391
13809TIP3   OH262917   6.334   1.945  17.191  0.3812 -0.2072  0.0358
13809TIP3    H162918   6.291   1.966  17.274 -0.1236 -2.0613  0.2788
13809TIP3    H262919   6.400   2.013  17.181 -1.4103  1.7133  0.5268
13810TIP3   OH262920   3.018   1.649  15.732 -0.1245 -0.5763 -0.0743
13810TIP3    H162921   2.932   1.608  15.734  0.3577 -1.8898 -2.6823
13810TIP3    H262922   3.077   1.585  15.771  0.1855 -1.1789 -1.5009
13811TIP3   OH262923   3.107   1.746   2.583  0.0835 -0.1061 -0.1428
13811TIP3    H162924   3.058   1.815   2.627  0.2552  0.4520 -0.8160
13811TIP3    H262925   3.161   1.792   2.519  1.9306 -0.6353  0.9575
13812TIP3   OH262926   3.325   3.605  12.883  0.5079  0.2029 -0.3722
13812TIP3    H162927   3.408   3.594  12.930  0.0287 -0.5191  0.3242
13812TIP3    H262928   3.282   3.520  12.890  0.4454  0.0616 -2.1913
13813TIP3   OH262929   4.970   4.859  16.965  0.1621 -0.2935 -0.3426
13813TIP3    H162930   5.005   4.804  17.035  2.0155 -0.5064 -1.3499
13813TIP3    H262931   4.989   4.948  16.993  0.6295 -0.3647 -0.4175
13814TIP3   OH262932   2.574   1.752   4.216  0.0539 -0.0589 -0.0698
13814TIP3    H162933   2.550   1.830   4.165 -0.5456 -0.0483  0.2115
13814TIP3    H262934   2.579   1.784   4.306 -0.1855 -0.3408  0.0465
13815TIP3   OH262935   4.323   6.418  11.886  0.3379  0.2018  0.6677
13815TIP3    H162936   4.303   6.326  11.899  3.8687 -0.9984 -1.0565
13815TIP3    H262937   4.287   6.438  11.799  1.8957 -0.4379 -0.1651
13816TIP3   OH262938   2.273   2.704   6.300 -0.5927 -0.4050  0.2331
13816TIP3    H162939   2.242   2.707   6.391  2.1859 -1.3941  1.3102
13816TIP3    H262940   2.232   2.625   6.264 -0.4361 -0.9316  1.1659
13817TIP3   OH262941   5.169   5.180   0.982  0.0050  0.1325  0.3296
13817TIP3    H162942   5.076   5.157   0.985  0.6772 -2.9693  1.3979
13817TIP3    H262943   5.186   5.201   0.890 -1.4967 -0.5164 -0.1277
13818TIP3   OH262944   3.675   1.318   2.403 -0.3440 -0.1454 -0.2681
13818TIP3    H162945   3.580   1.323   2.387 -0.4756  2.2513  0.9444
13818TIP3    H262946   3.713   1.377   2.339  0.7082 -2.9931 -2.5234
13819TIP3   OH262947   1.389   5.145  14.404  0.1024  0.3910 -0.2252
13819TIP3    H162948   1.424   5.228  14.436  0.0236 -0.0816  1.1336
13819TIP3    H262949   1.423   5.079  14.464 -1.3734 -0.3378 -0.1428
13820TIP3   OH262950   5.641   5.205   3.730 -0.4967 -0.1506  0.1255
13820TIP3    H162951   5.585   5.130   3.715 -0.4953 -0.0014 -0.6804
13820TIP3    H262952   5.718   5.170   3.776 -0.5780 -0.6050 -0.0877
13821TIP3   OH262953   6.537   1.432  13.188 -0.3215  0.0318  0.3217
13821TIP3    H162954   6.530   1.433  13.283  0.0863  0.5916  0.3555
13821TIP3    H262955   6.553   1.524  13.165 -0.8850 -0.0230 -0.3225
13822TIP3   OH262956   3.928   1.633  14.925  0.0342 -0.0826  0.0626
13822TIP3    H162957   3.956   1.549  14.962 -2.0843 -0.4372  0.9824
13822TIP3    H262958   3.996   1.695  14.951  0.9389 -1.2463  0.5437
13823TIP3   OH262959   5.810   3.989   4.020  0.2168 -0.0246  0.1594
13823TIP3    H162960   5.807   4.084   4.007  2.6861  0.1141  0.1313
13823TIP3    H262961   5.749   3.954   3.956  1.1392  1.4358 -1.6042
13824TIP3   OH262962   4.102   2.267   2.939  0.1109  0.0368  0.2397
13824TIP3    H162963   4.146   2.324   2.876  0.9439  0.1127  0.8697
13824TIP3    H262964   4.022   2.315   2.963 -0.2342 -0.0194 -0.7813
13825TIP3   OH262965   2.271   3.137  10.631 -0.5005 -0.5030  0.7743
13825TIP3    H162966   2.209   3.066  10.649  1.4488 -2.5855 -0.1146
13825TIP3    H262967   2.357   3.096  10.644  0.7237  1.9375  0.8969
13826TIP3   OH262968   1.087   6.048   5.047  0.4003 -0.5247  0.2359
13826TIP3    H162969   1.088   6.049   4.952 -0.4024  0.1054  0.2231
13826TIP3    H262970   1.172   6.085   5.072  0.3596 -0.0942 -0.2413
13827TIP3   OH262971   1.952   2.284  12.161  0.2783  0.3402  0.4375
13827TIP3    H162972   1.993   2.239  12.088  0.8789  0.7835  0.4806
13827TIP3    H262973   1.950   2.376  12.134 -2.3086  0.1326 -0.2782
13828TIP3   OH262974   5.683   1.745  13.999 -0.0184  0.5732  0.3121
13828TIP3    H162975   5.592   1.722  14.017  0.0933  1.0531  1.6060
13828TIP3    H262976   5.696   1.721  13.907 -1.3528  0.2145  0.1924
13829TIP3   OH262977   3.949   5.864  12.041  0.2137  0.4703  0.6860
13829TIP3    H162978   3.897   5.890  11.965  0.6002 -2.6873 -0.7944
13829TIP3    H262979   3.890   5.810  12.093  1.2074 -1.0082  0.3186
13830TIP3   OH262980   0.603   6.540  12.671 -0.0202 -0.4164  0.0012
13830TIP3    H162981   0.597   6.608  12.605 -1.1129  0.1312  0.6552
13830TIP3    H262982   0.668   6.573  12.734 -0.8817  0.2404  0.5588
13831TIP3   OH262983   2.256   4.810  16.048 -0.0879  0.3788  0.3646
13831TIP3    H162984   2.330   4.751  16.066 -0.2549  0.7946  2.7422
13831TIP3    H262985   2.240   4.800  15.954  2.6948 -0.0441 -0.1479
13832TIP3   OH262986   6.184   3.420  13.688 -0.2245  0.0289 -0.5859
13832TIP3    H162987   6.105   3.474  13.679 -0.2279 -0.0951 -1.4000
13832TIP3    H262988   6.176   3.356  13.617  0.7473  0.1826 -0.8358
13833TIP3   OH262989   1.278   3.216   1.410  0.1398  0.0602  0.0500
13833TIP3    H162990   1.337   3.157   1.456  1.3999  2.8177  2.2623
13833TIP3    H262991   1.194   3.171   1.410  0.7000 -1.1712  2.8363
13834TIP3   OH262992   2.312   0.375  15.075  0.0858 -0.3291  0.1914
13834TIP3    H162993   2.313   0.450  15.135  1.6236 -0.2024  0.0513
13834TIP3    H262994   2.316   0.414  14.988  1.6630 -0.5597  0.1393
13835TIP3   OH262995   4.471   1.325   6.161 -0.1072  0.4135  0.0908
13835TIP3    H162996   4.391   1.312   6.110  0.9531  0.3863 -1.6214
13835TIP3    H262997   4.500   1.237   6.184 -0.0842  0.3753 -0.0812
13836TIP3   OH262998   1.676   6.792   6.740 -0.6867 -0.3770 -0.2510
13836TIP3    H162999   1.625   6.837   6.807  1.1851  0.7850  0.4665
13836TIP3    H263000   1.683   6.702   6.771  0.9461  0.3556  1.6542
13837TIP3   OH263001   3.608   4.061  16.523  0.0800  0.2739 -0.4708
13837TIP3    H163002   3.593   3.976  16.564  0.2739  0.5923  0.2685
13837TIP3    H263003   3.668   4.042  16.451 -1.2555 -0.4819 -1.4236
13838TIP3   OH263004   0.627   1.325   2.480  0.1040  0.0578 -0.1453
13838TIP3    H163005   0.714   1.289   2.465 -0.4055 -1.2946  0.0445
13838TIP3    H263006   0.617   1.393   2.412  0.9854 -0.3288 -0.6764
13839TIP3   OH263007   3.460   0.571   1.996  0.4052 -0.3327 -0.2680
13839TIP3    H163008   3.448   0.487   2.042 -0.6146  0.6085  1.2570
13839TIP3    H263009   3.525   0.551   1.929 -0.6449 -2.6477 -0.7284
13840TIP3   OH263010   5.424   1.255   4.687 -0.9943 -0.7500  0.3193
13840TIP3    H163011   5.418   1.340   4.731 -0.0681 -1.9495  2.9932
13840TIP3    H263012   5.333   1.223   4.684 -1.4000  0.4399 -1.0685
13841TIP3   OH263013   1.521   6.133   3.220  0.3520 -0.1203 -0.2919
13841TIP3    H163014   1.596   6.171   3.266  0.1169  0.3792 -0.3137
13841TIP3    H263015   1.483   6.207   3.172 -0.2708 -0.3295 -0.1200
13842TIP3   OH263016   5.745   1.289   2.758  0.1351 -0.1741  0.1904
13842TIP3    H163017   5.681   1.224   2.786  1.0488 -0.8121  0.8458
13842TIP3    H263018   5.708   1.326   2.678  0.1091 -2.3107 -0.8446
13843TIP3   OH263019   0.473   1.763   2.263 -0.2697 -0.6298  0.4789
13843TIP3    H163020   0.537   1.796   2.326  0.0826 -0.5942  0.1029
13843TIP3    H263021   0.456   1.673   2.291  0.1990 -0.7504  0.3810
13844TIP3   OH263022   4.969   2.489   4.056  0.4833 -0.4196 -0.0558
13844TIP3    H163023   5.051   2.445   4.075  1.3389  1.0125 -0.2348
13844TIP3    H263024   4.957   2.549   4.129  0.3865  0.4338 -0.7489
13845TIP3   OH263025   3.765   6.642  13.885 -0.4181 -0.2345  0.3599
13845TIP3    H163026   3.677   6.645  13.847 -0.6110  1.3944  0.8648
13845TIP3    H263027   3.796   6.733  13.880  1.6158 -0.9267 -0.6410
13846TIP3   OH263028   5.575   0.526   0.059  0.7434  0.0495  0.7751
13846TIP3    H163029   5.585   0.441   0.103 -2.1328 -0.5488  0.4574
13846TIP3    H263030   5.503   0.569   0.106  1.4917  1.9183  0.2904
13847TIP3   OH263031   4.267   4.173  13.079  0.4248 -0.0196  0.2454
13847TIP3    H163032   4.188   4.131  13.045  0.3677 -0.8615  1.3681
13847TIP3    H263033   4.312   4.104  13.127  2.3667  0.1676 -1.2030
13848TIP3   OH263034   0.661   2.611   4.628  0.2971 -0.0175  0.7206
13848TIP3    H163035   0.588   2.581   4.574  0.4892 -3.0609  1.9361
13848TIP3    H263036   0.726   2.642   4.566 -0.6620 -0.5075 -0.5815
13849TIP3   OH263037   4.265   5.672  14.114  0.3275 -0.0226  0.3253
13849TIP3    H163038   4.254   5.630  14.029 -1.0963 -1.3404  1.0966
13849TIP3    H263039   4.309   5.755  14.095 -2.1447  0.9120 -2.0232
13850TIP3   OH263040   6.659   5.931  12.787  0.0529  0.0916 -0.2151
13850TIP3    H163041   6.586   5.927  12.849 -0.3726  2.0060 -0.5344
13850TIP3    H263042   6.716   5.858  12.812 -0.0537  0.8162  2.4703
13851TIP3   OH263043   3.600   2.246   2.426 -0.1408 -0.4576  0.3060
13851TIP3    H163044   3.571   2.336   2.444  1.0678 -0.0600  0.3858
13851TIP3    H263045   3.585   2.200   2.509  1.3893  0.2817  1.0386
13852TIP3   OH263046   0.906   1.338   3.818 -0.5809  0.2668  0.2426
13852TIP3    H163047   0.876   1.314   3.730 -0.3735 -1.1022  0.5167
13852TIP3    H263048   0.846   1.407   3.846 -1.8759 -0.6312 -0.2245
13853TIP3   OH263049   6.807   6.566   0.405 -0.1059 -0.4076 -0.2274
13853TIP3    H163050   6.735   6.628   0.411 -1.0049 -1.5386  1.4963
13853TIP3    H263051   6.876   6.614   0.360 -2.5895  0.0349 -4.0012
13854TIP3   OH263052   1.056   3.825  14.673  0.1799 -0.1261  0.0077
13854TIP3    H163053   0.972   3.804  14.632 -0.0333  0.0799  0.3382
13854TIP3    H263054   1.120   3.774  14.623 -0.3707 -1.9982  1.1488
13855TIP3   OH263055   1.996   0.163  12.151 -0.0756  0.4846 -0.1130
13855TIP3    H163056   1.976   0.115  12.071  0.6529  1.5626 -0.9814
13855TIP3    H263057   1.942   0.242  12.146 -1.2205 -0.1786  1.2630
13856TIP3   OH263058   4.836   0.017   4.809 -0.8543 -0.0791 -0.1701
13856TIP3    H163059   4.912   0.066   4.840 -0.0635 -2.0232  1.1710
13856TIP3    H263060   4.761   0.056   4.856 -0.2566 -0.0847  0.8202
13857TIP3   OH263061   6.454   4.445   2.801  0.0735  0.1280  0.4063
13857TIP3    H163062   6.377   4.402   2.763  1.1797 -2.9850  1.4652
13857TIP3    H263063   6.449   4.535   2.767 -1.8430 -1.0012 -2.7719
13858TIP3   OH263064   3.281   3.188   6.572  0.4722  0.2565  0.2936
13858TIP3    H163065   3.288   3.173   6.477  2.2307  0.5660  0.3548
13858TIP3    H263066   3.333   3.118   6.611 -1.0291 -0.4466  1.1107
13859TIP3   OH263067   3.022   1.443   5.130 -0.0043  0.0566 -0.3321
13859TIP3    H163068   3.054   1.522   5.087 -1.1252 -0.1415 -1.6031
13859TIP3    H263069   3.049   1.453   5.222 -0.6280  2.1828 -0.3293
13860TIP3   OH263070   2.416   2.425   1.484  0.8386 -0.0967 -0.1251
13860TIP3    H163071   2.334   2.476   1.490  0.7839 -0.2361  0.3743
13860TIP3    H263072   2.472   2.464   1.551  1.3800  0.3479 -0.8283
13861TIP3   OH263073   1.271   1.410  14.335 -0.4990 -0.2020 -0.0791
13861TIP3    H163074   1.249   1.317  14.347 -1.1190 -0.0345  0.0992
13861TIP3    H263075   1.271   1.423  14.240 -0.7112 -0.3092 -0.0941
13862TIP3   OH263076   2.619   1.359   4.202  0.6710  0.1526  0.0323
13862TIP3    H163077   2.648   1.281   4.156  0.4153  1.0935 -1.8050
13862TIP3    H263078   2.681   1.427   4.175  1.0578  0.5676  1.8100
13863TIP3   OH263079   1.024   5.571  12.670  0.0064 -1.1811  0.0809
13863TIP3    H163080   1.009   5.653  12.623 -2.6063  0.4833  3.4495
13863TIP3    H263081   0.940   5.526  12.668  0.1418 -1.5967  2.0608
13864TIP3   OH263082   2.838   5.318   3.733  0.3089  0.9998 -0.1213
13864TIP3    H163083   2.926   5.349   3.755  1.4142 -2.0287  0.2275
13864TIP3    H263084   2.804   5.283   3.816 -0.4605  0.4830 -0.6452
13865TIP3   OH263085   2.989   5.694   5.206  0.4724 -0.3417 -0.0486
13865TIP3    H163086   3.013   5.622   5.264 -0.0312 -1.4041 -1.1103
13865TIP3    H263087   2.945   5.651   5.132  0.4176  1.0355 -0.8426
13866TIP3   OH263088   1.729   6.555   0.344  0.4565  0.5500  0.1325
13866TIP3    H163089   1.743   6.636   0.294 -1.5113  0.3041 -0.9150
13866TIP3    H263090   1.635   6.539   0.338  0.4344 -0.5818  2.3106
13867TIP3   OH263091   4.568   1.048  15.228  0.2532  0.2620 -0.8087
13867TIP3    H163092   4.625   1.105  15.279 -1.1161  0.3140  0.7205
13867TIP3    H263093   4.559   0.969  15.280  0.6818 -0.6653 -2.0768
13868TIP3   OH263094   0.997   3.565  13.543 -0.5336 -0.2280 -0.7062
13868TIP3    H163095   1.028   3.625  13.475  0.7975 -1.2330 -1.0163
13868TIP3    H263096   1.068   3.501  13.553 -2.5470 -2.7416 -1.5450
13869TIP3   OH263097   6.329   5.063   2.314  0.0833 -0.0309  0.4794
13869TIP3    H163098   6.417   5.045   2.281 -0.3475 -0.4526 -0.4712
13869TIP3    H263099   6.302   5.144   2.270 -0.3246 -0.3635  0.0965
13870TIP3   OH263100   0.989   4.112   3.233 -0.0777  0.4837 -0.4177
13870TIP3    H163101   1.054   4.042   3.224  0.7318  1.3097 -1.0846
13870TIP3    H263102   0.907   4.066   3.251  0.5711 -0.6037 -0.1557
13871TIP3   OH263103   1.272   0.429   2.543 -0.1666 -0.8261 -0.4292
13871TIP3    H163104   1.292   0.522   2.544 -0.1178 -0.8326 -0.8931
13871TIP3    H263105   1.231   0.413   2.458 -0.8984 -1.0782 -0.0397
13872TIP3   OH263106   0.925   1.359   5.737 -0.4105  0.1518 -0.1072
13872TIP3    H163107   0.867   1.435   5.726  0.3165  0.7449  0.0976
13872TIP3    H263108   0.945   1.331   5.648  1.2916  1.7387 -0.2912
13873TIP3   OH263109   1.072   4.344   6.393  0.1046 -0.3661  0.4365
13873TIP3    H163110   1.099   4.252   6.401 -1.0066 -0.7626 -0.2171
13873TIP3    H263111   1.124   4.389   6.460  1.7122 -1.2285 -0.1559
13874TIP3   OH263112   1.266   4.400  16.490 -0.0714 -0.2887  0.3507
13874TIP3    H163113   1.262   4.357  16.405  2.5762 -0.3209  0.1698
13874TIP3    H263114   1.289   4.330  16.551  0.6522  0.1952  0.6454
13875TIP3   OH263115   1.844   1.387  15.542 -0.3316 -0.6204  0.2768
13875TIP3    H163116   1.860   1.371  15.635 -0.5190 -0.4374  0.3425
13875TIP3    H263117   1.860   1.481  15.532 -1.8984 -0.3115  0.4669
13876TIP3   OH263118   5.925   0.590   1.894 -0.4619  0.2702  0.2472
13876TIP3    H163119   5.970   0.559   1.972 -0.4806  0.3811  0.3017
13876TIP3    H263120   5.954   0.531   1.824 -0.7040 -0.0386  0.4044
13877TIP3   OH263121   2.463   4.648  16.731 -0.0134  0.5119 -0.4451
13877TIP3    H163122   2.453   4.702  16.652  2.1489 -0.6224 -1.5833
13877TIP3    H263123   2.487   4.710  16.800 -0.6147  1.3681 -0.9833
13878TIP3   OH263124   0.426   5.452  13.716 -0.2278  0.1615  0.4423
13878TIP3    H163125   0.418   5.547  13.723 -0.8892  0.2029 -0.7506
13878TIP3    H263126   0.481   5.438  13.639 -2.3181 -0.4489 -1.0137
13879TIP3   OH263127   4.110   4.057  14.639  0.7825 -0.2206  0.3791
13879TIP3    H163128   4.097   4.001  14.563  0.9136  0.6007 -0.2546
13879TIP3    H263129   4.049   4.023  14.704 -1.8295  1.1193 -1.2056
13880TIP3   OH263130   4.789   3.440  16.044 -0.3660  0.0960 -0.1906
13880TIP3    H163131   4.820   3.363  15.997 -0.1992  0.7527 -1.1942
13880TIP3    H263132   4.849   3.510  16.018 -2.6600  1.4430 -2.2778
13881TIP3   OH263133   0.998   4.544   3.268 -0.1673 -0.3982 -0.3217
13881TIP3    H163134   0.933   4.614   3.265 -0.0832 -0.3551 -1.4185
13881TIP3    H263135   0.967   4.480   3.204  1.1479 -0.1182 -1.2757
13882TIP3   OH263136   5.536   0.033   4.771  0.3967  0.7529  0.1258
13882TIP3    H163137   5.502   0.105   4.824  1.2133  0.8709  0.5058
13882TIP3    H263138   5.478  -0.040   4.789 -0.2585  1.2250 -0.0261
13883TIP3   OH263139   2.604   5.993   5.556  0.1278 -0.5677  0.1304
13883TIP3    H163140   2.659   5.921   5.523  1.1428 -0.1597  0.8535
13883TIP3    H263141   2.649   6.072   5.527  1.5941 -0.1547  3.0851
13884TIP3   OH263142   4.563   0.862   1.643  0.2679  0.2359 -0.1699
13884TIP3    H163143   4.470   0.880   1.638  0.1876 -0.3161 -0.7599
13884TIP3    H263144   4.605   0.936   1.599 -0.0501 -0.8937 -2.5187
13885TIP3   OH263145   0.606   2.229  17.299 -0.0980 -0.4586  0.2605
13885TIP3    H163146   0.692   2.195  17.273 -0.4554  0.0072 -1.6434
13885TIP3    H263147   0.545   2.158  17.281 -0.3256 -0.2309  0.1251
13886TIP3   OH263148   5.963   6.782  11.349  0.2331  0.4228  0.2601
13886TIP3    H163149   6.007   6.865  11.367 -1.1437  1.6591 -1.6147
13886TIP3    H263150   5.997   6.755  11.264 -1.2468  0.4723 -0.3765
13887TIP3   OH263151   6.521   2.270  13.708  0.3581  0.6358 -0.1465
13887TIP3    H163152   6.487   2.355  13.682 -0.4072 -0.2757 -2.3760
13887TIP3    H263153   6.444   2.213  13.710  0.9409 -0.1497  0.6714
13888TIP3   OH263154   6.743   1.402   0.730 -0.3778  0.4819  0.5421
13888TIP3    H163155   6.837   1.386   0.716 -0.5270 -0.3317  0.4260
13888TIP3    H263156   6.701   1.319   0.705 -1.1964  1.0888 -0.1276
13889TIP3   OH263157   1.055   2.497  13.577  0.1903 -0.2549 -0.5019
13889TIP3    H163158   1.095   2.414  13.551 -0.7020 -0.1767 -2.2758
13889TIP3    H263159   0.989   2.473  13.642  0.1136 -0.8963 -0.8163
13890TIP3   OH263160   0.386   2.378  12.128  0.3410 -0.1659 -0.0219
13890TIP3    H163161   0.416   2.468  12.139  0.3337 -0.4096  2.7546
13890TIP3    H263162   0.295   2.387  12.098  0.3912  0.7622  0.0626
13891TIP3   OH263163   1.363   0.997   5.108  0.1854 -0.0695  0.4416
13891TIP3    H163164   1.436   0.957   5.061 -0.5106 -1.2797  0.3563
13891TIP3    H263165   1.382   1.091   5.106  0.8133 -0.1972 -1.1575
13892TIP3   OH263166   3.047   3.156   6.325 -0.7146  0.1112 -0.2142
13892TIP3    H163167   3.132   3.172   6.283  0.0869 -2.2608  0.3494
13892TIP3    H263168   3.017   3.243   6.353  1.3346  1.0490 -0.7491
13893TIP3   OH263169   5.742   4.072  12.375  0.3956  0.2498  0.0709
13893TIP3    H163170   5.774   4.159  12.398  0.4163  0.5265 -0.9698
13893TIP3    H263171   5.817   4.014  12.389  0.4206  0.4134  0.6384
13894TIP3   OH263172   5.507   1.552  12.392  0.0841 -0.1823  0.1511
13894TIP3    H163173   5.481   1.466  12.359 -1.5871  0.7381 -1.0971
13894TIP3    H263174   5.549   1.594  12.317 -0.8620  0.7778  0.1432
13895TIP3   OH263175   4.306   5.255  12.853  0.3137  0.4912  0.1313
13895TIP3    H163176   4.337   5.251  12.943  1.4875  0.2735 -0.2670
13895TIP3    H263177   4.384   5.241  12.800 -0.1599  1.6987 -0.9420
13896TIP3   OH263178   1.489   4.535   6.535  0.2724  0.0538 -0.0635
13896TIP3    H163179   1.439   4.475   6.591 -0.8151  1.7340  0.8371
13896TIP3    H263180   1.554   4.574   6.594  0.5333  0.2520 -0.4811
13897TIP3   OH263181   0.274   5.478  16.756  0.1950  0.1966  0.3634
13897TIP3    H163182   0.359   5.489  16.799  0.9846 -1.9874 -0.4625
13897TIP3    H263183   0.295   5.472  16.663 -1.3083  3.0982 -0.2655
13898TIP3   OH263184   1.510   1.008  15.450  0.5577 -0.1776 -0.3249
13898TIP3    H163185   1.439   1.072  15.442  0.7152  0.0009 -0.2873
13898TIP3    H263186   1.520   0.995  15.544  2.0001  1.3970 -0.2060
13899TIP3   OH263187   3.523   0.394  12.168 -0.5434  0.0436 -0.3810
13899TIP3    H163188   3.616   0.384  12.149 -0.6093  1.7116 -1.8070
13899TIP3    H263189   3.487   0.306  12.158  0.7599 -0.5059 -0.4508
13900TIP3   OH263190   3.776   0.657   4.197  0.6063 -0.0808  0.1709
13900TIP3    H163191   3.785   0.663   4.102 -1.8634  2.4846 -0.0406
13900TIP3    H263192   3.824   0.733   4.230  2.3067 -1.5060  1.1297
13901TIP3   OH263193   3.555   0.238  11.338 -0.3674 -0.6838  0.0366
13901TIP3    H163194   3.628   0.296  11.316  0.8835 -1.7419  1.1777
13901TIP3    H263195   3.591   0.150  11.330 -1.8095 -1.2779 -0.2632
13902TIP3   OH263196   4.991   2.598   0.971 -0.3157  0.1393 -0.0628
13902TIP3    H163197   4.984   2.534   1.042 -0.2314 -0.1834 -0.3469
13902TIP3    H263198   4.901   2.612   0.942 -0.3523  0.2849  0.1189
13903TIP3   OH263199   6.094   4.083  15.568 -0.0511  0.3338 -0.7541
13903TIP3    H163200   6.169   4.138  15.587 -1.6285  1.9754  1.2471
13903TIP3    H263201   6.024   4.118  15.623 -2.2012 -1.3273 -2.2419
13904TIP3   OH263202   1.027   4.611  13.131 -0.1946  0.2026 -0.2429
13904TIP3    H163203   0.953   4.627  13.190  1.3486  1.1794  1.5223
13904TIP3    H263204   1.097   4.578  13.188  1.6718  2.0906 -1.3123
13905TIP3   OH263205   4.221   5.443   5.624 -0.0885  0.5414  0.3238
13905TIP3    H163206   4.151   5.456   5.688  0.2005  2.0509  0.3629
13905TIP3    H263207   4.246   5.351   5.634 -3.5058 -0.7384 -1.1965
13906TIP3   OH263208   3.785   1.895  16.214 -0.4794  0.5658 -0.1848
13906TIP3    H163209   3.808   1.876  16.123 -2.8446 -0.0118 -0.7154
13906TIP3    H263210   3.816   1.819  16.263  0.0358  0.4836 -0.6286
13907TIP3   OH263211   2.432   3.966  15.270  0.0128  0.5707 -0.0732
13907TIP3    H163212   2.342   3.978  15.241 -0.2876  1.3831  1.1221
13907TIP3    H263213   2.477   3.929  15.194 -1.3411  0.0443 -0.6446
13908TIP3   OH263214   6.598   2.484  16.532  0.1268 -0.1073  0.1436
13908TIP3    H163215   6.530   2.545  16.505  1.2632  0.7577 -0.9344
13908TIP3    H263216   6.580   2.405  16.482 -0.4439 -0.0981  0.3334
13909TIP3   OH263217   2.168   1.456  15.679  0.5457 -0.0153 -0.0798
13909TIP3    H163218   2.154   1.446  15.584  1.3514 -0.0283 -0.2040
13909TIP3    H263219   2.135   1.374  15.716  0.9324 -0.3322 -0.4266
13910TIP3   OH263220   5.014   1.057   4.496 -0.3064 -1.0509 -0.4504
13910TIP3    H163221   5.080   0.994   4.466  0.4533 -0.9355  0.8834
13910TIP3    H263222   4.941   1.004   4.526 -0.5097 -1.2066 -1.1927
13911TIP3   OH263223   4.876   5.550   5.157 -0.8421 -0.5658 -0.3072
13911TIP3    H163224   4.817   5.620   5.186  0.4218  1.5295 -2.3942
13911TIP3    H263225   4.935   5.537   5.231  0.6795  2.7556 -0.7402
13912TIP3   OH263226   4.949   4.314   3.127  0.2687  0.4374 -0.0705
13912TIP3    H163227   4.900   4.235   3.102 -2.0856  2.0790 -1.0399
13912TIP3    H263228   5.025   4.314   3.070  0.4276 -1.2049  0.0835
13913TIP3   OH263229   3.731   6.224  12.665  0.1238 -0.0301 -0.0433
13913TIP3    H163230   3.684   6.302  12.694  0.3564  0.4896 -1.0439
13913TIP3    H263231   3.799   6.212  12.731 -0.4306  0.1102  0.5726
13914TIP3   OH263232   5.911   2.325   3.025  0.5045 -0.1437  0.2955
13914TIP3    H163233   5.896   2.243   3.071 -0.3404  1.2650  2.7157
13914TIP3    H263234   5.955   2.381   3.089  1.3800  1.2127 -1.3923
13915TIP3   OH263235   1.785   3.821  12.832  0.2924 -0.0182  0.0771
13915TIP3    H163236   1.696   3.841  12.804  0.0619  0.3812  1.0766
13915TIP3    H263237   1.789   3.725  12.832  0.1985 -0.0386 -0.9587
13916TIP3   OH263238   2.271   5.835   3.133  0.4792  0.8007 -0.2683
13916TIP3    H163239   2.239   5.920   3.163 -0.3424  0.2003  0.6189
13916TIP3    H263240   2.192   5.782   3.123  1.0054  0.0379 -0.4790
13917TIP3   OH263241   3.863   4.117  12.249 -0.2863  0.7061 -0.0208
13917TIP3    H163242   3.891   4.150  12.335  0.5416  0.7030 -0.2765
13917TIP3    H263243   3.935   4.061  12.220 -1.4973 -1.0541  0.2198
13918TIP3   OH263244   3.216   5.450  16.307  0.7004 -0.0618 -0.0977
13918TIP3    H163245   3.150   5.511  16.337 -1.0004 -1.8216 -0.0860
13918TIP3    H263246   3.281   5.505  16.263 -0.2527  1.8185  0.7272
13919TIP3   OH263247   3.204   6.387   4.474 -0.0714  0.1739 -0.4678
13919TIP3    H163248   3.215   6.374   4.379  0.7412 -1.8852 -0.1554
13919TIP3    H263249   3.268   6.455   4.497  0.1110  0.3003 -1.3162
13920TIP3   OH263250   0.551   4.310   1.939  0.0583 -0.2311 -0.2499
13920TIP3    H163251   0.543   4.380   1.874  0.3739  0.1712  0.1370
13920TIP3    H263252   0.631   4.263   1.915 -0.1449 -0.4520 -0.5000
13921TIP3   OH263253   0.976   4.707  15.281  0.1083 -0.7814 -0.2939
13921TIP3    H163254   1.066   4.675  15.276  1.2541  2.2214 -1.1052
13921TIP3    H263255   0.944   4.700  15.191  0.8119  1.2514 -0.7654
13922TIP3   OH263256   4.399   3.440   0.336 -0.2495  0.5339 -0.0603
13922TIP3    H163257   4.449   3.471   0.261  0.5247  0.5772  0.4583
13922TIP3    H263258   4.339   3.374   0.300 -0.8923  1.5671 -0.9366
13923TIP3   OH263259   1.626   2.548   3.889  0.5009 -0.0722  0.1346
13923TIP3    H163260   1.576   2.467   3.878  0.8582 -0.2669 -0.1135
13923TIP3    H263261   1.560   2.616   3.900  0.1687 -0.2722 -0.5340
13924TIP3   OH263262   2.451   3.744   1.778 -0.1342 -0.0367  0.1367
13924TIP3    H163263   2.491   3.826   1.750 -0.0312  0.0160  0.4346
13924TIP3    H263264   2.520   3.678   1.771 -0.5151 -0.3305 -1.1757
13925TIP3   OH263265   4.586   3.158  15.025 -0.0786  0.1545  0.4726
13925TIP3    H163266   4.559   3.115  14.944  1.2537  1.8051 -0.9218
13925TIP3    H263267   4.504   3.181  15.069 -0.8697  0.8168 -1.2938
13926TIP3   OH263268   2.430   1.703   1.923 -0.1798 -0.1672 -0.1856
13926TIP3    H163269   2.498   1.765   1.948 -0.3789 -0.5925  1.5093
13926TIP3    H263270   2.401   1.732   1.836  0.0989  1.7687  0.3403
13927TIP3   OH263271   3.409   0.968  11.651 -0.7362 -0.8560 -0.3349
13927TIP3    H163272   3.393   0.937  11.562 -0.5022  0.3512 -0.8108
13927TIP3    H263273   3.328   0.945  11.699 -1.9773  0.8384 -1.5236
13928TIP3   OH263274   4.158   1.044  13.058  0.1475 -0.7638 -0.2521
13928TIP3    H163275   4.185   1.094  13.135  0.4488 -0.4998 -0.5263
13928TIP3    H263276   4.077   1.001  13.085 -1.3524  1.5952 -0.6877
13929TIP3   OH263277   0.104   1.595  14.446 -0.5680  0.0150  0.2658
13929TIP3    H163278   0.047   1.550  14.509  0.3972 -0.8726  0.5507
13929TIP3    H263279   0.093   1.546  14.365 -0.4461  0.0284  0.2408
13930TIP3   OH263280   4.256   6.152   4.349  0.2423 -0.0247  0.3597
13930TIP3    H163281   4.332   6.153   4.407 -1.0518 -1.8560  2.1794
13930TIP3    H263282   4.289   6.112   4.268  1.2961 -0.5028  1.0009
13931TIP3   OH263283   2.755   2.361  13.278 -0.3029  0.2607 -0.0940
13931TIP3    H163284   2.796   2.276  13.259 -1.2453  0.3139 -2.8329
13931TIP3    H263285   2.820   2.425  13.250 -0.8739  0.3638 -1.2633
13932TIP3   OH263286   4.154   0.550  12.381 -0.5137 -0.6603  0.2699
13932TIP3    H163287   4.235   0.498  12.379 -0.0253 -0.0448  2.0790
13932TIP3    H263288   4.178   0.629  12.429 -1.4573  0.9011 -1.6868
13933TIP3   OH263289   4.195   4.849  12.898 -0.2734  0.0904  0.2336
13933TIP3    H163290   4.278   4.860  12.851 -0.9885  0.0830 -1.0469
13933TIP3    H263291   4.173   4.756  12.886  0.4973 -0.4282  2.2577
13934TIP3   OH263292   2.451   5.652  13.504 -0.2941  0.2430  0.3050
13934TIP3    H163293   2.395   5.728  13.486 -0.6237 -0.3065 -1.1244
13934TIP3    H263294   2.411   5.611  13.581 -0.7725  0.8669  0.4023
13935TIP3   OH263295   6.085   1.937  12.048 -0.6966  0.5241  0.2075
13935TIP3    H163296   6.048   1.893  12.124  1.2249 -1.7832 -0.0548
13935TIP3    H263297   6.120   2.019  12.082 -2.2842  0.8137  1.2259
13936TIP3   OH263298   1.653   4.220   4.224  0.1748  0.5108  0.2827
13936TIP3    H163299   1.584   4.256   4.281  0.4666  1.3973  0.0887
13936TIP3    H263300   1.634   4.126   4.221 -0.6264  0.6411  0.7788
13937TIP3   OH263301   1.993   0.457  17.249 -0.5075  0.3742 -0.5430
13937TIP3    H163302   2.013   0.366  17.228 -0.0911  0.6075 -1.1974
13937TIP3    H263303   1.918   0.452  17.309  0.7485 -0.4676  1.0152
13938TIP3   OH263304   3.668   3.381   0.482  0.3227  0.1672  0.4958
13938TIP3    H163305   3.656   3.333   0.564  0.2694 -1.4422 -0.4209
13938TIP3    H263306   3.758   3.413   0.486  0.5072 -0.3834  0.9375
13939TIP3   OH263307   0.632   3.473  14.523  1.1241 -0.3902 -0.2138
13939TIP3    H163308   0.642   3.567  14.535  0.8547 -0.3641 -0.1789
13939TIP3    H263309   0.720   3.441  14.504  1.1640 -0.0880 -0.5321
13940TIP3   OH263310   3.438   4.139  17.170  0.2792  0.4309  0.2612
13940TIP3    H163311   3.408   4.106  17.086 -1.0400  0.8042  0.5647
13940TIP3    H263312   3.430   4.064  17.229 -1.5253  0.8833  0.6662
13941TIP3   OH263313   4.889   1.136  15.675 -0.3457  0.3139 -0.5420
13941TIP3    H163314   4.977   1.105  15.656 -0.2356  1.5096 -2.2141
13941TIP3    H263315   4.902   1.208  15.737 -0.3006 -0.4753  0.3909
13942TIP3   OH263316   6.106   1.515   2.716 -0.1016  0.3505  0.3491
13942TIP3    H163317   6.156   1.531   2.636 -2.5351 -2.1730 -1.8776
13942TIP3    H263318   6.113   1.420   2.730 -3.8292 -0.1374  0.0080
13943TIP3   OH263319   2.192   2.041   3.671 -0.0711  0.3327  0.3127
13943TIP3    H163320   2.131   2.018   3.601 -0.0128  0.4314  0.2288
13943TIP3    H263321   2.276   2.052   3.626 -0.0258  0.3571  0.4038
13944TIP3   OH263322   5.728   3.473   1.223  0.4147 -0.0350 -1.0421
13944TIP3    H163323   5.732   3.418   1.145  1.9317 -0.4041 -0.7433
13944TIP3    H263324   5.648   3.446   1.268 -1.8882  1.9141 -3.6551
13945TIP3   OH263325   2.035   2.360  13.583  0.0279 -0.4568  0.1239
13945TIP3    H163326   2.025   2.339  13.490  2.5651  0.3300 -0.3969
13945TIP3    H263327   2.000   2.449  13.591  0.0052 -0.4409 -0.1185
13946TIP3   OH263328   5.269   5.930  15.982  0.7893 -1.2259 -0.2279
13946TIP3    H163329   5.256   5.939  16.076 -0.9808 -0.4538 -0.4910
13946TIP3    H263330   5.187   5.891  15.950 -0.4177  2.2407 -1.8903
13947TIP3   OH263331   3.983   2.358   4.486  0.0769  0.3496 -0.0132
13947TIP3    H163332   4.035   2.383   4.562  0.9514 -0.8307 -0.1984
13947TIP3    H263333   3.915   2.300   4.521  0.5249 -0.2537 -0.1329
13948TIP3   OH263334   5.548   1.083  14.723  0.4797  0.3607  0.7215
13948TIP3    H163335   5.480   1.064  14.788  0.4773 -2.0578  0.0943
13948TIP3    H263336   5.627   1.045  14.760  0.5125 -0.8778 -0.5619
13949TIP3   OH263337   3.011   4.630   5.514 -0.0063 -0.2411 -0.2708
13949TIP3    H163338   2.944   4.611   5.580 -1.4335 -0.9156 -1.8521
13949TIP3    H263339   2.993   4.720   5.488 -1.4299 -0.9484 -1.8891
13950TIP3   OH263340   5.616   2.684  11.904 -0.4383 -0.2617  0.7316
13950TIP3    H163341   5.535   2.647  11.869 -0.0031 -1.0773  0.5826
13950TIP3    H263342   5.592   2.714  11.992 -1.9769  3.2630 -0.6992
13951TIP3   OH263343   2.891   4.455  10.553  0.0234 -0.3774  0.1054
13951TIP3    H163344   2.887   4.482  10.645 -1.1529 -0.6302  0.1421
13951TIP3    H263345   2.894   4.359  10.557  2.2646 -0.3789 -0.0806
13952TIP3   OH263346   4.421   1.946  13.203 -0.0649 -0.6166  0.0645
13952TIP3    H163347   4.454   1.899  13.280 -0.7385 -0.9076  0.1800
13952TIP3    H263348   4.475   2.025  13.198 -1.8309  0.8796  2.5118
13953TIP3   OH263349   1.709   4.423   0.723  0.1269 -0.4569 -0.2737
13953TIP3    H163350   1.700   4.481   0.798  1.9742 -0.8317  0.2946
13953TIP3    H263351   1.639   4.358   0.734  0.4989 -0.6387  1.2774
13954TIP3   OH263352   2.689   3.897  16.543  0.0753  0.1849  0.2197
13954TIP3    H163353   2.624   3.846  16.494  0.8629 -0.3818 -0.2555
13954TIP3    H263354   2.697   3.979  16.495 -0.5843  0.4295  0.5157
13955TIP3   OH263355   0.618   0.101   0.952  0.1866 -0.0333  0.0664
13955TIP3    H163356   0.655   0.094   1.040  0.6518  1.1481 -0.0099
13955TIP3    H263357   0.545   0.040   0.952  1.0882 -1.1601  0.7809
13956TIP3   OH263358   5.798   1.821   6.408 -0.3719 -0.2464 -0.2162
13956TIP3    H163359   5.845   1.739   6.391 -0.6083 -0.0888 -1.7830
13956TIP3    H263360   5.847   1.887   6.360 -1.3128  0.1835 -0.6014
13957TIP3   OH263361   4.707   2.833  13.537  0.4420  1.0440  0.1999
13957TIP3    H163362   4.638   2.810  13.599 -1.2691  1.4324 -1.4513
13957TIP3    H263363   4.776   2.770  13.554 -1.6586 -1.5681 -0.2179
13958TIP3   OH263364   5.374   3.670   2.891  0.0976  0.4221  0.7732
13958TIP3    H163365   5.285   3.695   2.914 -0.0891  0.6189 -0.1365
13958TIP3    H263366   5.419   3.660   2.975 -1.2967 -1.6849  1.3191
13959TIP3   OH263367   3.361   0.628  12.221 -1.1019  0.1265  0.7946
13959TIP3    H163368   3.387   0.547  12.178 -3.1514 -0.7068  1.0376
13959TIP3    H263369   3.314   0.677  12.153 -3.0341 -0.5306  1.6004
13960TIP3   OH263370   4.008   6.144  15.579 -0.8282 -0.4427 -0.0865
13960TIP3    H163371   4.072   6.100  15.635 -3.5283 -4.5472  0.2115
13960TIP3    H263372   3.935   6.164  15.637 -0.5472  2.8032 -0.6978
13961TIP3   OH263373   4.452   3.831  15.714  0.0855  0.2540 -0.0264
13961TIP3    H163374   4.393   3.838  15.788  0.5589  2.7609  0.2269
13961TIP3    H263375   4.395   3.818  15.638 -0.8476  2.4028  0.2381
13962TIP3   OH263376   1.202   1.727   1.583  0.2143  0.1337  0.3285
13962TIP3    H163377   1.149   1.672   1.642  0.4951 -0.5553 -0.0487
13962TIP3    H263378   1.287   1.684   1.581  0.7416  1.1169  0.7590
13963TIP3   OH263379   6.444   6.516   2.013 -0.1182  0.7228 -0.0813
13963TIP3    H163380   6.536   6.525   2.037 -0.0202  1.5503 -0.7492
13963TIP3    H263381   6.445   6.467   1.931 -0.1457  2.2662 -1.0433
13964TIP3   OH263382   0.900   6.438  15.607 -0.3937  0.2417  0.0161
13964TIP3    H163383   0.835   6.495  15.566 -0.1998  0.4387 -0.0204
13964TIP3    H263384   0.983   6.463  15.565 -0.4970 -1.0006 -1.0042
13965TIP3   OH263385   3.916   1.637   4.541 -0.1803  0.4670  0.2041
13965TIP3    H163386   3.891   1.627   4.449  0.2186  2.3511 -0.1641
13965TIP3    H263387   3.839   1.608   4.590 -1.3029  1.6202 -0.7927
13966TIP3   OH263388   4.080   4.810  17.276  0.3697 -0.3397 -0.1726
13966TIP3    H163389   4.033   4.760  17.209  0.5311 -0.5953 -0.0942
13966TIP3    H263390   4.167   4.824  17.240 -0.0211  0.8873 -0.6907
13967TIP3   OH263391   5.222   5.366   5.706 -0.5918  0.6778  0.4786
13967TIP3    H163392   5.163   5.291   5.699  1.0729 -0.5434 -4.2605
13967TIP3    H263393   5.165   5.442   5.714 -2.4940 -0.7420  1.2289
13968TIP3   OH263394   3.268   5.815   3.034  0.3356 -0.4587 -0.6335
13968TIP3    H163395   3.227   5.888   2.988 -0.4223 -1.6570 -1.9492
13968TIP3    H263396   3.247   5.738   2.981  2.1886 -1.4813 -0.0006
13969TIP3   OH263397   3.664   4.413  13.468 -0.0560 -0.4260  0.1840
13969TIP3    H163398   3.701   4.400  13.381 -0.9717  3.3348 -0.9700
13969TIP3    H263399   3.740   4.414  13.527  0.9973  0.4410 -1.1287
13970TIP3   OH263400   4.674   6.275  15.651  0.9903  0.9296 -0.5382
13970TIP3    H163401   4.733   6.323  15.709  1.3226  0.2145 -0.2728
13970TIP3    H263402   4.701   6.184  15.659 -0.1051  0.5971 -0.4830
13971TIP3   OH263403   5.833   0.909  13.974  0.5190 -0.0797  0.0760
13971TIP3    H163404   5.773   0.880  13.906  0.2429  1.3420 -0.3224
13971TIP3    H263405   5.851   1.001  13.952  1.3851  0.0443  1.2302
13972TIP3   OH263406   5.624   4.407   4.468  0.1240 -0.2104  0.1635
13972TIP3    H163407   5.576   4.398   4.386 -1.0336  1.3148  0.6168
13972TIP3    H263408   5.664   4.493   4.463  0.0493 -0.1053  1.1783
13973TIP3   OH263409   0.002   0.921   0.828 -0.2131 -0.2263  0.0715
13973TIP3    H163410   0.044   0.961   0.752 -0.7162 -0.7323 -0.4867
13973TIP3    H263411   0.069   0.920   0.896  0.7827 -1.2598 -0.8814
13974TIP3   OH263412   2.278   4.432   0.198  0.5070 -0.4832  0.0753
13974TIP3    H163413   2.198   4.405   0.242  0.1972  0.3882  0.0483
13974TIP3    H263414   2.339   4.451   0.269  0.3727 -0.1755  0.1058
13975TIP3   OH263415   3.775   4.203  12.820  0.5200  0.5032  0.0210
13975TIP3    H163416   3.719   4.271  12.783  3.1602  2.0279 -1.4274
13975TIP3    H263417   3.824   4.247  12.889  0.6528 -0.5538  0.6342
13976TIP3   OH263418   1.095   0.752  11.466 -0.4927 -0.6598 -0.8455
13976TIP3    H163419   1.012   0.771  11.422 -1.2422  0.0117  0.7734
13976TIP3    H263420   1.100   0.817  11.536  2.1006  0.2432 -1.7349
13977TIP3   OH263421   2.216   4.957  11.682  0.2768 -0.3355  0.6373
13977TIP3    H163422   2.278   5.030  11.693  0.7107 -0.3971 -1.1084
13977TIP3    H263423   2.257   4.884  11.729  1.0304 -0.0830  0.4005
13978TIP3   OH263424   3.887   2.142  17.226  0.5346 -0.0335  0.0956
13978TIP3    H163425   3.840   2.065  17.257 -0.0336  0.3741  0.2583
13978TIP3    H263426   3.902   2.126  17.133 -0.4961  0.1124 -0.1099
13979TIP3   OH263427   6.749   3.516  17.070 -0.1242 -0.1101 -0.1457
13979TIP3    H163428   6.676   3.460  17.043  0.1119  0.1417 -1.3701
13979TIP3    H263429   6.804   3.460  17.125 -1.3530 -0.2301  1.0123
13980TIP3   OH263430   3.596   5.166  16.251 -0.3559  0.3809 -0.5118
13980TIP3    H163431   3.591   5.214  16.334  2.7185  0.6231 -0.3820
13980TIP3    H263432   3.521   5.106  16.254 -0.3635  0.4040  2.4253
13981TIP3   OH263433   0.913   2.303   0.031  0.3947 -0.0399 -0.3832
13981TIP3    H163434   0.875   2.271  -0.052 -3.3455  0.1011  1.0659
13981TIP3    H263435   0.905   2.399   0.025  3.1740  0.2200 -1.0733
13982TIP3   OH263436   2.811   6.798   1.226 -0.2477  0.5599  0.0425
13982TIP3    H163437   2.730   6.803   1.176 -0.7178  0.4113  0.7642
13982TIP3    H263438   2.858   6.879   1.206  0.7163 -0.5277 -2.4896
13983TIP3   OH263439   5.025   5.869  16.504 -0.1851  0.2046 -0.3685
13983TIP3    H163440   5.026   5.793  16.447 -2.2454 -0.4489  0.3988
13983TIP3    H263441   4.971   5.933  16.458 -1.0134  0.0485  0.3620
13984TIP3   OH263442   5.302   1.257  15.843 -0.2209 -0.3557 -0.4265
13984TIP3    H163443   5.346   1.190  15.791 -2.3269 -2.3270  0.1942
13984TIP3    H263444   5.304   1.224  15.932 -1.2770  0.4104 -0.0964
13985TIP3   OH263445   1.098   2.948   0.829  0.2663  0.2251  0.6326
13985TIP3    H163446   1.088   2.900   0.911 -1.0235  2.8108  2.1266
13985TIP3    H263447   1.176   3.002   0.842  1.4377 -1.0219 -0.8329
13986TIP3   OH263448   6.136   1.089   5.108  0.3880 -0.2474  0.0742
13986TIP3    H163449   6.188   1.070   5.030 -0.7784 -1.9630 -0.3343
13986TIP3    H263450   6.135   1.007   5.157 -1.3706 -0.0896  0.3746
13987TIP3   OH263451   3.294   6.175  15.125 -0.1110  0.2488 -0.6776
13987TIP3    H163452   3.274   6.248  15.183  0.9943 -0.4723  0.7002
13987TIP3    H263453   3.265   6.204  15.039 -1.1040  1.6804  0.0911
13988TIP3   OH263454   2.491   3.596  16.584  0.3664  0.8037  0.5299
13988TIP3    H163455   2.526   3.521  16.632 -0.3102 -0.3168 -0.6510
13988TIP3    H263456   2.441   3.646  16.648 -0.3559 -0.5390  1.0383
13989TIP3   OH263457   1.473   6.720  10.517  0.2431 -0.0555 -0.1912
13989TIP3    H163458   1.465   6.646  10.578  0.1210  1.6259  1.9531
13989TIP3    H263459   1.567   6.730  10.504  0.6294  2.0151  3.0821
13990TIP3   OH263460   1.825   2.048   1.781  0.8516  0.2660 -0.3084
13990TIP3    H163461   1.861   2.116   1.724  1.0972 -0.6081 -1.2379
13990TIP3    H263462   1.818   1.971   1.724  1.6169 -0.7945  0.9644
13991TIP3   OH263463   0.019   1.840   2.026  0.3728 -0.3664  0.0721
13991TIP3    H163464  -0.039   1.773   2.062  3.7274 -3.0310  1.0265
13991TIP3    H263465  -0.019   1.923   2.056 -2.8795 -1.8734  0.5525
13992TIP3   OH263466   4.637   0.548   0.405  0.3989  0.6446  0.1921
13992TIP3    H163467   4.584   0.625   0.425 -1.6465 -1.0708  2.0745
13992TIP3    H263468   4.591   0.476   0.450  1.2590 -1.9630 -2.7227
13993TIP3   OH263469   2.597   0.391  17.013  0.9179  0.2274 -0.7401
13993TIP3    H163470   2.649   0.467  16.984  0.5064  0.9710  0.4088
13993TIP3    H263471   2.515   0.429  17.045  0.1722 -0.8307 -1.3460
13994TIP3   OH263472   6.597   6.081   1.353 -0.3217 -0.2009  0.3300
13994TIP3    H163473   6.563   6.118   1.272 -1.1334 -0.9773  0.3039
13994TIP3    H263474   6.568   5.989   1.352  0.2053 -0.3908  1.1877
13995TIP3   OH263475   3.269   4.290  13.119 -0.4188  0.0321 -0.4469
13995TIP3    H163476   3.279   4.340  13.200  0.0764 -0.0220 -0.4721
13995TIP3    H263477   3.192   4.328  13.076  0.0590  0.8935 -0.5538
13996TIP3   OH263478   4.720   0.305  11.204  0.2933 -0.5406 -0.1589
13996TIP3    H163479   4.816   0.297  11.208  0.3603  0.1292 -0.2870
13996TIP3    H263480   4.691   0.280  11.292  0.7792  1.4920  0.6456
13997TIP3   OH263481   4.017   1.149  11.234  0.4124  0.5341  0.1645
13997TIP3    H163482   4.092   1.169  11.177  0.0155  0.8561 -0.2584
13997TIP3    H263483   3.948   1.209  11.204  0.2517  0.8523  1.1159
13998TIP3   OH263484   2.609   2.476  11.589 -0.4026  0.2503 -0.5853
13998TIP3    H163485   2.527   2.482  11.540 -1.6357  0.6701  1.4447
13998TIP3    H263486   2.647   2.392  11.561 -2.2436 -0.6594 -0.4867
13999TIP3   OH263487   4.622   3.989   1.268  0.7634  0.0647  0.5077
13999TIP3    H163488   4.649   3.918   1.209  2.2737  0.7466  0.3168
13999TIP3    H263489   4.630   4.068   1.214  1.5681  0.6291  1.4234
14000TIP3   OH263490   6.598   0.421   4.457 -0.0821  0.1969  0.2560
14000TIP3    H163491   6.516   0.468   4.448  0.5218  1.9244  2.9045
14000TIP3    H263492   6.579   0.349   4.516  0.2348  0.4260  0.6421
14001TIP3   OH263493   0.994   2.182  14.248  0.0412 -0.3951 -0.0268
14001TIP3    H163494   0.922   2.242  14.229  0.9909  1.0784  0.8463
14001TIP3    H263495   1.017   2.144  14.163 -1.1693 -0.2337 -0.4460
14002TIP3   OH263496   3.854   0.065  15.656 -0.0999 -0.1218  0.4312
14002TIP3    H163497   3.762   0.090  15.672 -0.6296 -1.2887 -0.5839
14002TIP3    H263498   3.894   0.062  15.742 -1.3401 -0.7767  1.0042
14003TIP3   OH263499   2.027   4.284  14.943 -0.6511  0.2091  0.0417
14003TIP3    H163500   1.959   4.346  14.968  0.1548  1.4851 -0.7986
14003TIP3    H263501   1.998   4.250  14.858 -0.0594  1.0844 -0.5284
14004TIP3   OH263502   3.998   5.801  11.234 -0.0425 -0.4287  0.0780
14004TIP3    H163503   3.929   5.867  11.241 -0.3321 -0.7372  0.1717
14004TIP3    H263504   4.056   5.834  11.165 -0.1620 -0.0577  0.1547
14005TIP3   OH263505   4.518   1.234   1.026  0.2515 -0.1219 -0.2346
14005TIP3    H163506   4.459   1.258   1.098 -0.2465 -1.2073 -0.2641
14005TIP3    H263507   4.597   1.204   1.071 -1.1517 -3.8037  0.0718
14006TIP3   OH263508   3.899   0.016   4.157  0.5983  0.4264 -0.0923
14006TIP3    H163509   3.979   0.057   4.188  0.2024 -0.1225  1.8043
14006TIP3    H263510   3.922  -0.076   4.144  0.3224  0.2811  0.3913
14007TIP3   OH263511   5.217   3.092  15.167 -0.5011  0.1465  0.3217
14007TIP3    H163512   5.171   3.175  15.154 -0.4104  0.1900  0.2770
14007TIP3    H263513   5.168   3.029  15.115 -0.3158  0.2590  0.0089
14008TIP3   OH263514   3.718   0.658   1.336 -0.2144  0.2510  0.3372
14008TIP3    H163515   3.657   0.697   1.399  0.2421 -0.5971  1.3185
14008TIP3    H263516   3.717   0.719   1.262  0.0551  1.8293  1.5862
14009TIP3   OH263517   2.756   4.444   5.327 -0.1097 -0.3696 -0.0706
14009TIP3    H163518   2.788   4.430   5.238 -0.2827  0.4672 -0.2684
14009TIP3    H263519   2.693   4.515   5.319  2.1200  1.9032  1.1596
14010TIP3   OH263520   6.591   5.720  10.579  0.5710  0.2026 -0.7254
14010TIP3    H163521   6.506   5.763  10.583  0.3120 -0.1870 -1.7000
14010TIP3    H263522   6.573   5.629  10.605  0.5531 -0.0464 -1.5740
14011TIP3   OH263523   4.070   6.780  15.060 -0.6190 -0.2745 -0.7319
14011TIP3    H163524   4.143   6.811  15.007 -0.7786  0.0754 -0.7506
14011TIP3    H263525   3.992   6.798  15.008 -0.8566  0.9261 -0.0195
14012TIP3   OH263526   3.326   6.033  11.950 -0.0959  0.2044  0.3696
14012TIP3    H163527   3.243   6.070  11.979 -0.3717 -0.9701  1.1404
14012TIP3    H263528   3.379   6.109  11.927 -1.7521  0.9587 -1.2962
14013TIP3   OH263529   5.639   1.546   5.023  0.2109 -0.1224  0.0520
14013TIP3    H163530   5.724   1.571   4.985  0.5135  0.0279  0.8100
14013TIP3    H263531   5.661   1.505   5.106 -0.4412 -0.5608  0.0141
14014TIP3   OH263532   4.488   6.511  11.434  0.0729  0.0249  0.0271
14014TIP3    H163533   4.458   6.601  11.443 -0.9912 -0.2816 -0.2412
14014TIP3    H263534   4.424   6.471  11.374  0.5843 -0.8732  0.0709
14015TIP3   OH263535   1.822   1.028  12.753 -0.6509 -0.5913 -0.1328
14015TIP3    H163536   1.855   0.954  12.702  1.4067  0.3106 -0.2114
14015TIP3    H263537   1.729   1.007  12.769 -0.4537 -2.5411 -1.2354
14016TIP3   OH263538   5.666   2.071   0.787  0.2534 -0.0341  0.2029
14016TIP3    H163539   5.702   1.984   0.808  1.0236  0.3531  0.5243
14016TIP3    H263540   5.643   2.108   0.872  0.5107  0.3246  0.1152
14017TIP3   OH263541   3.530   5.529  13.217  0.3664 -0.3117 -0.4013
14017TIP3    H163542   3.443   5.566  13.236  0.2840 -0.0663 -1.2313
14017TIP3    H263543   3.511   5.441  13.184  0.4512 -0.3668 -0.3012
14018TIP3   OH263544   2.299   2.202   4.278 -0.1953 -0.7113 -0.0799
14018TIP3    H163545   2.372   2.142   4.294 -0.2084 -0.4552  1.0023
14018TIP3    H263546   2.224   2.144   4.266  0.3477 -1.0508 -2.5382
14019TIP3   OH263547   2.504   4.151   2.494 -0.0998  0.0393 -0.1210
14019TIP3    H163548   2.558   4.177   2.569 -0.6756  0.3208  0.2041
14019TIP3    H263549   2.552   4.079   2.453  0.1929 -0.1635  0.5628
14020TIP3   OH263550   4.346   2.101   2.669  0.1254  0.0606 -0.9969
14020TIP3    H163551   4.403   2.164   2.713  0.6591 -0.8670 -0.3181
14020TIP3    H263552   4.400   2.066   2.597 -0.2145  0.4668 -1.4545
14021TIP3   OH263553   1.000   5.697   2.584 -0.2471  0.5684  0.4239
14021TIP3    H163554   0.975   5.655   2.501 -0.1408 -0.8120  1.0673
14021TIP3    H263555   1.084   5.658   2.607 -1.1273 -0.4386  2.0890
14022TIP3   OH263556   2.704   0.373   4.640  0.0651  0.0656 -0.0365
14022TIP3    H163557   2.721   0.282   4.615 -1.2818 -0.5915  1.2851
14022TIP3    H263558   2.624   0.397   4.593 -0.4172  0.0580  0.7728
14023TIP3   OH263559   6.316   3.404   3.167  0.5952  0.2796 -0.3180
14023TIP3    H163560   6.370   3.470   3.210 -2.2192  1.2748  1.9765
14023TIP3    H263561   6.318   3.329   3.227 -1.9146  1.0064  0.7680
14024TIP3   OH263562   3.492   1.007   5.566  0.6561  0.1194  0.4210
14024TIP3    H163563   3.546   0.949   5.620  0.5710  0.3560  0.7628
14024TIP3    H263564   3.529   0.998   5.477 -0.3154 -1.6441  0.1467
14025TIP3   OH263565   6.543   3.194   4.260 -0.5821  0.2899  0.4409
14025TIP3    H163566   6.575   3.140   4.187  1.6572  1.3299  0.5884
14025TIP3    H263567   6.554   3.139   4.337  0.1311  0.3560  0.3899
14026TIP3   OH263568   0.409   5.963   0.405  0.1862  0.2296 -0.1207
14026TIP3    H163569   0.371   5.993   0.488 -2.0312 -2.2538 -0.0669
14026TIP3    H263570   0.496   6.002   0.403 -0.0784  1.2832  2.8476
14027TIP3   OH263571   1.815   3.458   6.029  0.0802  0.2330  0.1684
14027TIP3    H163572   1.792   3.524   5.963 -0.1403  0.8181  0.8235
14027TIP3    H263573   1.798   3.501   6.113  2.2484  0.2176  0.6767
14028TIP3   OH263574   2.517   6.531   2.424 -0.5364 -0.1102  1.1874
14028TIP3    H163575   2.436   6.537   2.476 -1.6802 -1.8232 -0.2501
14028TIP3    H263576   2.538   6.438   2.425  0.0019 -0.0299 -0.5129
14029TIP3   OH263577   4.003   2.807   2.487 -0.1325  0.5879 -0.5915
14029TIP3    H163578   4.023   2.777   2.576 -1.2142 -0.9650 -0.8398
14029TIP3    H263579   4.046   2.893   2.481 -0.1807  0.8138  1.4835
14030TIP3   OH263580   3.841   5.895   1.892  0.1353  0.3737  0.1153
14030TIP3    H163581   3.859   5.902   1.985 -1.7316 -1.2345  0.6531
14030TIP3    H263582   3.879   5.811   1.867 -0.6619  0.1088 -0.2277
14031TIP3   OH263583   2.700   6.226   1.008  0.3070 -0.2163  0.4616
14031TIP3    H163584   2.753   6.306   1.010 -1.7015  1.3427 -1.7310
14031TIP3    H263585   2.738   6.174   0.937 -0.7572  0.7874 -0.9365
14032TIP3   OH263586   1.138   0.660  11.754 -0.2427  0.1747 -0.3302
14032TIP3    H163587   1.189   0.660  11.674  0.4019 -0.8614  0.0687
14032TIP3    H263588   1.064   0.601  11.736 -1.5208  1.8932 -1.0098
14033TIP3   OH263589   3.821   4.952   4.535  0.2573 -0.1071  0.0397
14033TIP3    H163590   3.811   5.034   4.583  0.4991 -0.4187  0.6392
14033TIP3    H263591   3.915   4.941   4.525  0.2247  1.3004 -2.9133
14034TIP3   OH263592   1.775   0.356  12.767 -0.0205  0.2790 -0.4194
14034TIP3    H163593   1.695   0.393  12.729 -0.0001  1.1706  0.3712
14034TIP3    H263594   1.819   0.315  12.693 -1.6796 -1.1240 -0.6947
14035TIP3   OH263595   2.822   0.002   2.789 -0.1255 -0.5262  0.1129
14035TIP3    H163596   2.810   0.062   2.863  1.4864 -0.7802  0.6016
14035TIP3    H263597   2.750  -0.061   2.798 -0.7517  0.2423  0.6497
14036TIP3   OH263598   6.707   0.635   4.247  0.2259 -0.5463 -0.2305
14036TIP3    H163599   6.695   0.543   4.268  0.0106 -0.5627 -0.4181
14036TIP3    H263600   6.625   0.677   4.273  0.7681 -0.1919  1.0133
14037TIP3   OH263601   3.128   0.427  12.276 -0.4646  0.7508  0.3893
14037TIP3    H163602   3.146   0.424  12.371  3.8410  0.5983 -0.2256
14037TIP3    H263603   3.156   0.515  12.250  1.3729 -0.2031 -1.0863
14038TIP3   OH263604   2.371   3.800   0.632 -0.0278 -0.2989  0.2449
14038TIP3    H163605   2.339   3.712   0.650 -1.7046  0.2879  0.3798
14038TIP3    H263606   2.438   3.789   0.564 -1.4499 -1.5302 -1.0341
14039TIP3   OH263607   1.719   3.173  15.439  0.3384  0.4310  0.4812
14039TIP3    H163608   1.737   3.205  15.527 -0.4795  0.6196  0.5965
14039TIP3    H263609   1.667   3.094  15.452 -0.5892  0.9664  0.1853
14040TIP3   OH263610   0.797   5.198  14.888 -0.1111  0.2766 -0.0257
14040TIP3    H163611   0.749   5.123  14.924  0.5355  0.5488  1.4825
14040TIP3    H263612   0.746   5.275  14.916  1.1995  0.5750  1.6898
14041TIP3   OH263613   6.160   1.023  12.657  0.0602  0.0173  0.5181
14041TIP3    H163614   6.248   0.993  12.634  1.2271  2.7179  1.1665
14041TIP3    H263615   6.170   1.069  12.740 -1.9680  0.4001  0.6106
14042TIP3   OH263616   2.718   3.466   5.581 -0.0739  0.3649 -0.2254
14042TIP3    H163617   2.778   3.505   5.645  0.4091  3.0697 -2.1063
14042TIP3    H263618   2.720   3.373   5.599  3.3405  0.5325  0.9807
14043TIP3   OH263619   4.137   5.045  15.302  0.2625  0.1876  0.0612
14043TIP3    H163620   4.110   5.038  15.210 -0.4227 -0.2746  0.2912
14043TIP3    H263621   4.092   5.123  15.335  0.5894  0.4125 -0.0186
14044TIP3   OH263622   3.213   4.377   2.101  0.3578  0.4901  0.1602
14044TIP3    H163623   3.301   4.375   2.064  0.6935 -1.7136  0.9594
14044TIP3    H263624   3.226   4.401   2.192  0.3383 -1.3477  0.6786
14045TIP3   OH263625   5.174   6.563   2.979 -0.4440 -0.1555  0.0798
14045TIP3    H163626   5.218   6.613   2.911 -0.9812 -0.1826 -0.2948
14045TIP3    H263627   5.244   6.512   3.021  0.2664  1.5422  1.0564
14046TIP3   OH263628   6.814   4.517   0.032  0.1745 -0.4264 -0.4299
14046TIP3    H163629   6.829   4.448   0.097  3.0898 -1.5982 -2.1483
14046TIP3    H263630   6.872   4.588   0.058  0.4331 -0.4082 -1.0319
14047TIP3   OH263631   1.202   2.565  16.941 -0.3523  0.1466  0.1905
14047TIP3    H163632   1.125   2.510  16.932  2.0341 -3.5934  0.7261
14047TIP3    H263633   1.215   2.603  16.854 -0.4235 -2.7032 -1.1709
14048TIP3   OH263634   2.930   2.164   5.029  0.3344  0.3228  0.1367
14048TIP3    H163635   3.022   2.150   5.004  0.5228  2.4052 -0.5250
14048TIP3    H263636   2.935   2.215   5.110 -0.2094  1.3022 -0.4301
14049TIP3   OH263637   5.654   0.499   2.776 -0.1536  0.2515  0.1328
14049TIP3    H163638   5.575   0.481   2.828 -0.8753 -0.6177 -1.1985
14049TIP3    H263639   5.621   0.531   2.692  0.9684  1.1924  0.0227
14050TIP3   OH263640   2.187   1.314   1.629  0.2464  0.2028 -0.0100
14050TIP3    H163641   2.135   1.376   1.680  0.2345  0.0269  0.1936
14050TIP3    H263642   2.274   1.316   1.669  0.3527  0.3743 -0.2472
14051TIP3   OH263643   6.481   6.123  11.517  0.3632  0.3271 -0.3846
14051TIP3    H163644   6.443   6.190  11.573 -1.8534 -0.2129 -1.1715
14051TIP3    H263645   6.564   6.161  11.487 -0.2062  2.1393  0.2338
14052TIP3   OH263646   2.075   1.200  15.727 -0.4163  0.7780 -0.2195
14052TIP3    H163647   2.169   1.182  15.728 -0.6182 -0.3537 -0.3203
14052TIP3    H263648   2.043   1.152  15.650 -1.3497 -0.3595  0.8428
14053TIP3   OH263649   1.412   5.719   3.419 -0.2183  0.0409 -0.3608
14053TIP3    H163650   1.508   5.723   3.425 -0.0959 -1.3151 -1.0788
14053TIP3    H263651   1.389   5.788   3.357  0.4143 -0.4270 -1.1320
14054TIP3   OH263652   2.671   1.933  14.576 -0.1097  0.4163 -0.1108
14054TIP3    H163653   2.744   1.995  14.564 -1.5650  2.0747 -0.8838
14054TIP3    H263654   2.594   1.983  14.551 -1.3313 -1.9139 -1.2885
14055TIP3   OH263655   1.661   1.341  14.323  0.4867  0.0222  0.0406
14055TIP3    H163656   1.708   1.422  14.305  0.6070 -0.3634 -1.5272
14055TIP3    H263657   1.573   1.355  14.287  0.5544 -0.5795 -0.3851
14056TIP3   OH263658   1.602   5.958   4.460  0.0175 -0.3558 -0.3567
14056TIP3    H163659   1.512   5.927   4.460  0.0978 -0.5988 -0.7541
14056TIP3    H263660   1.620   5.980   4.552  0.1986 -2.2089  0.0873
14057TIP3   OH263661   0.127   1.559  12.080 -0.5605  0.1694  0.5844
14057TIP3    H163662   0.126   1.644  12.036 -1.6213  0.6821  1.5278
14057TIP3    H263663   0.217   1.529  12.074 -0.1598  1.3881  0.2855
14058TIP3   OH263664   1.033   3.132  14.723 -0.4089 -0.2408  0.0419
14058TIP3    H163665   0.945   3.131  14.760 -0.7525 -1.6493 -0.7493
14058TIP3    H263666   1.019   3.121  14.629  0.5819  0.3196 -0.1858
14059TIP3   OH263667   3.929   0.179  11.824 -0.0345 -0.1508  0.3320
14059TIP3    H163668   3.985   0.256  11.833  1.2644 -1.1124  0.7228
14059TIP3    H263669   3.858   0.194  11.887 -0.8468  1.5703 -0.9170
14060TIP3   OH263670   5.921   2.493  14.640  0.0927 -0.0498 -0.3739
14060TIP3    H163671   5.871   2.486  14.722  0.5384 -0.7412 -0.1522
14060TIP3    H263672   5.974   2.413  14.638  1.8501  1.0776 -0.1728
14061TIP3   OH263673   1.764   0.594   6.205  0.1918 -0.4336 -0.3646
14061TIP3    H163674   1.810   0.673   6.231  0.9555 -1.2956  1.0216
14061TIP3    H263675   1.730   0.557   6.287  0.3773 -1.8526 -0.8956
14062TIP3   OH263676   3.322   5.907  17.226 -0.2085 -0.6919  0.3676
14062TIP3    H163677   3.343   5.857  17.147  2.5219  0.3521  0.3216
14062TIP3    H263678   3.330   5.843  17.297  1.6300 -0.7361  0.1594
14063TIP3   OH263679   4.796   2.267   5.778 -0.1177  0.3534 -0.0389
14063TIP3    H163680   4.840   2.191   5.817 -1.2274  0.2564  1.1310
14063TIP3    H263681   4.841   2.282   5.695  2.2392  0.4172  1.1717
14064TIP3   OH263682   3.845   2.056  15.027 -0.0035  0.1044  0.1759
14064TIP3    H163683   3.919   1.999  15.011  0.0778  0.2206  0.1375
14064TIP3    H263684   3.878   2.122  15.088  0.2143  0.7431 -0.6107
14065TIP3   OH263685   3.230   5.041  12.241  0.5217  0.2836 -0.6836
14065TIP3    H163686   3.262   5.077  12.324 -2.8543 -0.1043  0.9519
14065TIP3    H263687   3.194   5.117  12.195  0.1675  0.1230 -0.6702
14066TIP3   OH263688   6.036   1.469   5.167 -0.7013  0.6740 -0.0088
14066TIP3    H163689   6.016   1.464   5.261 -1.2122 -0.0989 -0.1546
14066TIP3    H263690   5.982   1.401   5.127 -2.0621  2.3212 -1.1244
14067TIP3   OH263691   6.436   5.108  12.535 -0.3274 -0.0988 -0.2739
14067TIP3    H163692   6.423   5.013  12.531  1.2948 -0.3627 -0.2468
14067TIP3    H263693   6.434   5.136  12.443  2.2479 -0.6985 -0.6068
14068TIP3   OH263694   1.798   2.751   6.262  0.1100 -0.3749 -0.7119
14068TIP3    H163695   1.752   2.833   6.280  1.6599 -0.0329  2.3467
14068TIP3    H263696   1.886   2.777   6.237 -0.1284 -1.1168 -2.4903
14069TIP3   OH263697   5.630   4.912  13.778 -0.4247 -0.4154  0.1341
14069TIP3    H163698   5.671   4.978  13.721 -1.3111  0.4160  0.4378
14069TIP3    H263699   5.554   4.956  13.815 -0.3698 -1.2395  1.2674
14070TIP3   OH263700   4.515   2.519   1.315 -0.4325 -0.1967  0.3011
14070TIP3    H163701   4.572   2.530   1.390 -0.1469  0.8759 -0.0454
14070TIP3    H263702   4.563   2.460   1.256 -0.7257 -1.1557  1.0090
14071TIP3   OH263703   6.276   1.107  16.509  0.6071  0.3022 -0.0785
14071TIP3    H163704   6.284   1.044  16.438 -1.0198  0.2546 -0.2361
14071TIP3    H263705   6.280   1.193  16.466 -0.8723  0.2730 -0.3177
14072TIP3   OH263706   0.812   6.699   5.426  0.1346  0.4436  0.0762
14072TIP3    H163707   0.719   6.708   5.450 -0.1972 -0.3236 -0.8187
14072TIP3    H263708   0.846   6.633   5.487  0.1474  0.8876  0.5490
14073TIP3   OH263709   3.305   0.387  14.855  0.0377  0.8473  0.0707
14073TIP3    H163710   3.340   0.374  14.943  0.6538  1.3307 -0.0974
14073TIP3    H263711   3.313   0.302  14.812 -0.7916  0.4564  0.6550
14074TIP3   OH263712   3.645   5.743   2.222 -0.8234 -0.5578  0.1067
14074TIP3    H163713   3.631   5.795   2.301  0.8463 -1.3214  0.9550
14074TIP3    H263714   3.557   5.727   2.188 -1.5931 -0.3009  1.8636
14075TIP3   OH263715   3.516   0.303   2.485  0.3661  0.4343 -0.0746
14075TIP3    H163716   3.486   0.218   2.519 -1.3215  0.3545 -1.5973
14075TIP3    H263717   3.594   0.323   2.537 -0.0396 -1.3295  1.3436
14076TIP3   OH263718   1.783   0.992   4.145  0.3880 -0.4781  0.1717
14076TIP3    H163719   1.875   0.982   4.119  0.5907 -0.1653  0.7591
14076TIP3    H263720   1.765   0.914   4.198  0.2293 -0.6709 -0.1557
14077TIP3   OH263721   2.079   6.158   0.351  0.1216 -0.1956 -0.0146
14077TIP3    H163722   2.008   6.181   0.292  0.3191 -1.2955 -0.7197
14077TIP3    H263723   2.079   6.062   0.353  0.8813 -0.2001  0.8403
14078TIP3   OH263724   6.189   1.614  12.120  0.6185  0.2722 -0.2929
14078TIP3    H163725   6.165   1.582  12.207  1.2463 -0.6568 -0.4486
14078TIP3    H263726   6.283   1.596  12.113  0.6325  0.6185 -1.0429
14079TIP3   OH263727   6.247   0.560  16.078 -0.1901 -0.3393 -0.5295
14079TIP3    H163728   6.321   0.620  16.068 -0.3430  0.3270  1.7880
14079TIP3    H263729   6.288   0.475  16.095  0.1659  0.2718  2.1228
14080TIP3   OH263730   5.812   5.920   0.112  0.0416  0.1510 -0.2674
14080TIP3    H163731   5.735   5.878   0.150  0.8885  0.4356  1.8951
14080TIP3    H263732   5.880   5.912   0.178  2.1161 -0.6126 -2.3319
14081TIP3   OH263733   2.332   3.670  15.131  0.7683 -0.4908 -0.2037
14081TIP3    H163734   2.262   3.722  15.169  0.1915 -0.2847 -1.4771
14081TIP3    H263735   2.382   3.637  15.206 -0.4010 -0.2527  0.7088
14082TIP3   OH263736   6.099   1.840   5.235 -0.2954  0.2190 -0.4070
14082TIP3    H163737   6.192   1.852   5.250 -0.4683  0.7550  0.2898
14082TIP3    H263738   6.062   1.827   5.322 -0.9054  0.2929 -0.6479
14083TIP3   OH263739   4.993   3.693   1.953 -0.1036  0.0855  0.3081
14083TIP3    H163740   4.935   3.683   2.028 -2.5735  0.4547 -1.4170
14083TIP3    H263741   4.938   3.732   1.885  2.1994  0.4586 -1.4873
14084TIP3   OH263742   4.269   1.577   1.930  0.4105  0.2625  0.3061
14084TIP3    H163743   4.355   1.554   1.895  0.1220  0.4113 -0.5214
14084TIP3    H263744   4.210   1.574   1.854 -1.2111 -3.9741  1.4464
14085TIP3   OH263745   4.922   2.516   0.716  0.4260 -0.1379  0.5627
14085TIP3    H163746   4.959   2.570   0.786  1.2703 -0.8484  0.6886
14085TIP3    H263747   4.862   2.457   0.762  0.3755 -0.0738  0.5801
14086TIP3   OH263748   1.361   5.365   2.434  0.1857 -0.2517 -0.4686
14086TIP3    H163749   1.454   5.348   2.419  0.4624 -0.8130  1.5580
14086TIP3    H263750   1.316   5.302   2.378  1.1028 -1.7374  0.3950
14087TIP3   OH263751   4.591   0.547   2.881  0.4344  0.5900 -0.0754
14087TIP3    H163752   4.510   0.504   2.854  0.6834  0.2282 -0.2558
14087TIP3    H263753   4.645   0.477   2.917  0.4183  0.9379  0.6402
14088TIP3   OH263754   2.230   1.072   1.902 -0.4826 -0.2753  0.2249
14088TIP3    H163755   2.192   1.141   1.957 -0.3747 -0.9576  1.1765
14088TIP3    H263756   2.318   1.060   1.937 -0.3579 -0.6141 -0.2007
14089TIP3   OH263757   3.518   0.664  12.903  0.0483  0.1558  0.3790
14089TIP3    H163758   3.512   0.678  12.997  2.5455 -1.2621  0.8304
14089TIP3    H263759   3.467   0.584  12.887  0.2612 -0.0343  0.6521
14090TIP3   OH263760   5.496   5.765  11.374 -0.3985  0.7659  0.1321
14090TIP3    H163761   5.551   5.843  11.383 -0.6373  1.2425 -1.8453
14090TIP3    H263762   5.416   5.787  11.422  0.3838  0.8110  1.4634
14091TIP3   OH263763   2.045   5.730  13.713 -0.2161  0.0931 -0.2227
14091TIP3    H163764   2.092   5.713  13.632 -0.2633  0.9859 -0.4462
14091TIP3    H263765   1.996   5.811  13.696 -2.6596 -1.3012 -0.3752
14092TIP3   OH263766   0.952   3.291  12.916 -0.0182 -0.2671 -0.3345
14092TIP3    H163767   0.860   3.302  12.891 -0.2694 -2.0806 -0.3653
14092TIP3    H263768   0.965   3.352  12.989 -0.7359  1.2690 -1.4452
14093TIP3   OH263769   6.610   0.264  11.358  0.0851  0.1000 -0.5244
14093TIP3    H163770   6.560   0.250  11.277 -0.0822  0.4437 -0.4832
14093TIP3    H263771   6.551   0.316  11.414 -0.2625 -1.1165  0.2755
14094TIP3   OH263772   5.422   5.317  16.893 -0.0815 -0.4424 -0.3009
14094TIP3    H163773   5.471   5.367  16.828  0.9789 -1.8292 -0.5945
14094TIP3    H263774   5.397   5.236  16.849 -0.6031 -0.7743  0.5690
14095TIP3   OH263775   4.300   5.187   2.134  0.6740  0.0952  0.2717
14095TIP3    H163776   4.285   5.136   2.213  1.3341  0.6540  0.7684
14095TIP3    H263777   4.258   5.137   2.064 -1.3345  0.3848  1.2014
14096TIP3   OH263778   0.044   0.459  10.446  0.2625 -0.2501  0.1596
14096TIP3    H163779   0.021   0.386  10.388 -0.0067  0.3911 -0.5626
14096TIP3    H263780   0.130   0.436  10.480  1.9547  0.7731 -2.9790
14097TIP3   OH263781   2.875   4.112   5.874  0.3193  0.3074 -0.1677
14097TIP3    H163782   2.821   4.189   5.894  0.5171  0.6340 -0.8516
14097TIP3    H263783   2.813   4.041   5.864 -0.1022  0.8669 -1.8789
14098TIP3   OH263784   1.309   2.967  15.921  0.1519 -0.6166  0.2339
14098TIP3    H163785   1.294   2.874  15.937 -1.4300 -0.6078 -0.9426
14098TIP3    H263786   1.221   3.003  15.907  0.8367  0.7953 -0.6461
14099TIP3   OH263787   1.170   0.211   3.801 -0.0705  0.3697  0.3733
14099TIP3    H163788   1.177   0.115   3.802  1.6836  0.4636  0.0749
14099TIP3    H263789   1.126   0.231   3.718 -1.4922 -0.1946  0.9501
14100TIP3   OH263790   5.050   6.146  14.270  0.7287  0.4116 -0.3529
14100TIP3    H163791   5.128   6.130  14.218  1.1183 -2.7104  0.9909
14100TIP3    H263792   4.983   6.088  14.233 -0.1382  1.0008  0.2331
14101TIP3   OH263793   4.490   2.796   4.787  0.0778 -0.0589 -0.0023
14101TIP3    H163794   4.497   2.828   4.696 -2.2529 -1.7982 -0.8855
14101TIP3    H263795   4.449   2.710   4.779  1.7519 -1.1973  2.6061
14102TIP3   OH263796   1.277   5.421  16.629 -0.2502 -0.2703  0.1006
14102TIP3    H163797   1.305   5.505  16.667 -0.7650 -0.1755  0.2761
14102TIP3    H263798   1.294   5.430  16.535  1.4647 -0.6747  0.3337
14103TIP3   OH263799   2.759   2.967   5.086  0.1546 -0.2337 -0.0628
14103TIP3    H163800   2.771   3.061   5.076 -1.6103  0.0350 -0.0701
14103TIP3    H263801   2.757   2.933   4.996  1.4303 -0.3852 -0.0420
14104TIP3   OH263802   1.363   6.010  15.086 -0.6092  0.0954  0.2020
14104TIP3    H163803   1.380   5.926  15.043  0.8459  0.5259 -0.1073
14104TIP3    H263804   1.337   6.069  15.016 -1.3492 -0.0027  0.3805
14105TIP3   OH263805   0.617   3.930   0.086  0.5907 -0.2333 -0.0732
14105TIP3    H163806   0.626   3.985   0.164  1.7528  0.1451 -0.4567
14105TIP3    H263807   0.600   3.991   0.015 -1.1591 -0.6315 -0.0338
14106TIP3   OH263808   1.513   1.682  14.042 -0.0069 -0.1982  0.1183
14106TIP3    H163809   1.591   1.667  13.989 -0.4617  1.1473 -1.0064
14106TIP3    H263810   1.444   1.701  13.978 -1.2024 -1.0669  1.0960
14107TIP3   OH263811   4.994   5.981   1.990 -0.2350 -0.1221 -0.2526
14107TIP3    H163812   5.048   6.045   1.943 -2.5321  0.5614 -2.1631
14107TIP3    H263813   5.019   5.897   1.953  0.5507 -0.0073 -0.0166
14108TIP3   OH263814   4.944   2.685   5.338  0.1423 -0.2209 -0.1426
14108TIP3    H163815   5.005   2.754   5.312  0.9442 -1.0125 -0.3703
14108TIP3    H263816   4.875   2.732   5.386  1.1678  0.6233  0.5519
14109TIP3   OH263817   1.510   2.077  11.401  0.1141 -0.2014  0.0775
14109TIP3    H163818   1.485   2.085  11.493  0.8144 -0.4942  0.2967
14109TIP3    H263819   1.596   2.118  11.395  0.2452 -0.5341 -0.3664
14110TIP3   OH263820   2.914   3.185  13.912 -0.0861 -0.0668 -0.0917
14110TIP3    H163821   3.005   3.216  13.916 -0.6627  1.7167  0.3547
14110TIP3    H263822   2.864   3.264  13.889 -1.7876 -0.4113  2.1056
14111TIP3   OH263823   0.555   6.094  14.920 -0.8405 -0.3610 -0.2160
14111TIP3    H163824   0.475   6.130  14.881 -0.7926 -0.0133 -0.0036
14111TIP3    H263825   0.532   6.076  15.011 -0.2508  1.2597  0.2998
14112TIP3   OH263826   1.031   2.165  16.921  0.1536  0.7137 -0.0584
14112TIP3    H163827   1.023   2.261  16.923 -0.8898  0.8084 -3.2644
14112TIP3    H263828   1.002   2.137  17.008 -0.1304  3.2567  0.7528
14113TIP3   OH263829   3.646   3.107  12.483  0.0888  0.0854  0.2488
14113TIP3    H163830   3.619   3.026  12.526 -0.4346 -0.3673 -0.8936
14113TIP3    H263831   3.564   3.149  12.457  0.3209  1.4306  1.5865
14114TIP3   OH263832   0.340   0.710   1.318  0.2910 -0.5833 -0.5807
14114TIP3    H163833   0.263   0.654   1.329  0.7953 -1.3025 -0.5927
14114TIP3    H263834   0.308   0.787   1.271 -0.5325 -0.6014 -0.0734
14115TIP3   OH263835   4.772   5.365   2.804  0.3752 -0.3703  0.9722
14115TIP3    H163836   4.843   5.303   2.816 -0.0584 -1.3761 -1.2055
14115TIP3    H263837   4.697   5.326   2.849  0.9301  0.2853  2.5379
14116TIP3   OH263838   1.968   0.455   5.200  0.1279  0.2771 -0.4886
14116TIP3    H163839   1.930   0.456   5.287  1.6393 -0.4863  0.2165
14116TIP3    H263840   1.951   0.366   5.168 -0.0461  0.4238 -0.8173
14117TIP3   OH263841   5.573   4.587  15.726 -0.1192  0.0001  0.0496
14117TIP3    H163842   5.549   4.533  15.802 -0.4454  1.1268  0.7688
14117TIP3    H263843   5.490   4.609  15.685  0.0341 -0.2771 -0.4242
14118TIP3   OH263844   2.053   6.698   2.628 -0.3630 -0.1389  0.6075
14118TIP3    H163845   1.989   6.719   2.696 -1.0307  0.1829 -0.1024
14118TIP3    H263846   2.082   6.784   2.596 -1.3847 -0.2556 -0.7270
14119TIP3   OH263847   5.457   4.765   4.831  0.2175 -0.0279  0.3745
14119TIP3    H163848   5.496   4.803   4.752 -0.2992  0.0011  0.1327
14119TIP3    H263849   5.365   4.791   4.827  0.6331  1.9784  2.1626
14120TIP3   OH263850   3.347   3.411   5.331 -0.2093 -0.3347  0.4868
14120TIP3    H163851   3.371   3.501   5.310 -0.3572 -0.5634 -0.6934
14120TIP3    H263852   3.429   3.362   5.325 -0.0184 -0.2084  1.6775
14121TIP3   OH263853   6.725   0.471  12.058 -0.1532  0.2087 -0.0063
14121TIP3    H163854   6.812   0.434  12.045  1.0043  2.8160 -0.3254
14121TIP3    H263855   6.687   0.473  11.970 -0.1652 -0.0438 -0.0083
14122TIP3   OH263856   1.008   4.322   3.474 -0.4314  0.0983  0.2141
14122TIP3    H163857   1.006   4.399   3.416  0.0467 -0.3921 -0.4550
14122TIP3    H263858   1.042   4.356   3.557  3.0460  0.0046 -1.0301
14123TIP3   OH263859   0.117   1.677  14.056 -0.1009  0.1429  0.0491
14123TIP3    H163860   0.134   1.714  13.969 -0.8144  1.3780  0.4165
14123TIP3    H263861   0.155   1.589  14.052 -1.3474 -0.3605 -1.9637
14124TIP3   OH263862   3.662   0.860   2.640  0.4851  0.1332  0.5274
14124TIP3    H163863   3.686   0.951   2.619  1.7950 -0.2970  0.0537
14124TIP3    H263864   3.568   0.856   2.624  0.8333  0.7063 -2.2543
14125TIP3   OH263865   2.326   0.017  15.961  0.8306 -0.1341 -0.0297
14125TIP3    H163866   2.316  -0.062  16.014  2.9082 -0.1886  0.3326
14125TIP3    H263867   2.413   0.051  15.983 -0.5499  3.2171  1.1111
14126TIP3   OH263868   0.659   2.599  13.089 -0.3885  0.2125  0.3669
14126TIP3    H163869   0.619   2.679  13.056 -0.5174 -0.2970 -0.7676
14126TIP3    H263870   0.586   2.545  13.117 -0.4780 -0.3636 -0.8912
14127TIP3   OH263871   1.469   5.066  16.325  0.6812 -0.1792  0.3509
14127TIP3    H163872   1.523   5.136  16.363  0.5405  0.6185 -0.8664
14127TIP3    H263873   1.471   5.082  16.231  1.8345 -2.7262 -0.1173
14128TIP3   OH263874   6.000   2.119   4.809 -0.1378 -0.1444  0.3645
14128TIP3    H163875   5.979   2.124   4.902 -0.8435  0.1638  0.1976
14128TIP3    H263876   6.087   2.159   4.801 -0.2999  0.3008  0.8161
14129TIP3   OH263877   3.003   3.811   0.769  0.2020 -0.6638 -0.4052
14129TIP3    H163878   2.989   3.736   0.711  0.4819  0.0610 -1.4332
14129TIP3    H263879   2.937   3.801   0.837  0.8758 -2.3792  0.0338
14130TIP3   OH263880   3.658   1.543  10.851 -0.2391 -0.3245  0.9254
14130TIP3    H163881   3.644   1.556  10.758  2.1196 -0.4800  0.4886
14130TIP3    H263882   3.595   1.601  10.894 -2.9509 -1.8888 -0.6667
14131TIP3   OH263883   3.263   3.863  16.141 -1.0485  0.0652  0.3924
14131TIP3    H163884   3.205   3.837  16.069 -2.1099  0.6061  1.0291
14131TIP3    H263885   3.204   3.883  16.213 -0.1487  1.6868  0.7395
14132TIP3   OH263886   4.130   3.369   2.185  0.1369 -0.0849 -0.2874
14132TIP3    H163887   4.136   3.325   2.100  0.1820 -1.4736  0.4005
14132TIP3    H263888   4.212   3.348   2.229  0.5204  1.4136 -0.2419
14133TIP3   OH263889   2.332   4.233  16.007  0.0064  0.0350  0.7094
14133TIP3    H163890   2.268   4.195  15.947  0.8013  2.2081 -1.7185
14133TIP3    H263891   2.281   4.269  16.079 -1.2490 -0.5085  0.1056
14134TIP3   OH263892   1.453   6.755   6.559  0.3410 -0.1469 -0.3797
14134TIP3    H163893   1.516   6.821   6.591  1.3616 -1.0478 -0.4737
14134TIP3    H263894   1.487   6.730   6.473  0.4573 -1.4267  0.0287
14135TIP3   OH263895   2.214   3.828   2.773 -0.2913  0.6924 -0.0669
14135TIP3    H163896   2.150   3.763   2.747  0.8459 -0.6662  0.3972
14135TIP3    H263897   2.209   3.895   2.705 -0.8056 -0.3663 -1.1072
14136TIP3   OH263898   0.105   2.526  16.859  0.4502  0.2303  0.0646
14136TIP3    H163899   0.099   2.599  16.921  0.4701 -0.3538  0.7693
14136TIP3    H263900   0.040   2.463  16.890 -0.0027  0.2073 -0.9013
14137TIP3   OH263901   2.785   3.760  17.232 -0.4884 -0.6290  0.0135
14137TIP3    H163902   2.822   3.673  17.220  0.0558 -0.2940 -0.7983
14137TIP3    H263903   2.711   3.764  17.172 -0.7559 -0.6706  0.3405
14138TIP3   OH263904   3.741   3.391  14.280 -0.1350  0.2940  0.2324
14138TIP3    H163905   3.749   3.297  14.297 -2.2008 -0.2311 -1.2276
14138TIP3    H263906   3.768   3.402  14.189  2.7394  1.6545  1.1279
14139TIP3   OH263907   0.557   6.451   2.621 -0.1271 -0.6838  0.0492
14139TIP3    H163908   0.618   6.480   2.689  0.6867  0.2597 -1.0436
14139TIP3    H263909   0.502   6.527   2.603  0.7373 -0.3757 -1.4616
14140TIP3   OH263910   4.660   0.944   2.251 -0.5910 -0.0564 -0.2943
14140TIP3    H163911   4.568   0.962   2.273 -0.4211 -0.7906  1.1110
14140TIP3    H263912   4.697   0.906   2.331  0.1514 -2.6267 -1.7572
14141TIP3   OH263913   1.141   5.603  15.863 -0.4221 -0.5663  0.1597
14141TIP3    H163914   1.120   5.547  15.938  2.1425 -1.0435  0.6118
14141TIP3    H263915   1.137   5.545  15.787  2.2194 -1.4736  0.6261
14142TIP3   OH263916   0.185   3.555   1.809 -0.7976  0.4443 -0.0060
14142TIP3    H163917   0.132   3.480   1.835 -1.6212  0.9126 -0.2916
14142TIP3    H263918   0.274   3.533   1.836 -1.2838  0.0313  1.3334
14143TIP3   OH263919   1.411   2.912  16.741 -0.6567 -0.4769 -0.4476
14143TIP3    H163920   1.322   2.877  16.739 -0.3333 -1.3378 -1.8883
14143TIP3    H263921   1.451   2.870  16.817 -2.1830  1.9544  1.8494
14144TIP3   OH263922   1.913   5.293  11.848  0.7159 -0.0406  0.1263
14144TIP3    H163923   1.905   5.226  11.780  1.2564 -0.9831  0.9638
14144TIP3    H263924   1.964   5.251  11.917  3.7373  2.1878 -0.5470
14145TIP3   OH263925   2.525   0.203   5.493  0.0060 -0.0897 -0.0448
14145TIP3    H163926   2.509   0.274   5.431 -1.1404 -2.1098 -2.2334
14145TIP3    H263927   2.437   0.169   5.513  0.5877 -1.6771 -0.0819
14146TIP3   OH263928   5.661   3.772  16.464 -0.0290 -0.0140 -0.2594
14146TIP3    H163929   5.671   3.825  16.384 -0.1937  0.4132 -0.0001
14146TIP3    H263930   5.583   3.808  16.506 -0.8505 -1.2360 -0.6722
14147TIP3   OH263931   0.451   4.586   0.732  0.3448  0.0207  0.2949
14147TIP3    H163932   0.424   4.498   0.704  0.2874  0.1569 -0.0813
14147TIP3    H263933   0.547   4.581   0.735  0.4154  0.2879 -0.9103
14148TIP3   OH263934   5.604   0.882  16.599  0.0615 -0.2979  0.1844
14148TIP3    H163935   5.674   0.908  16.540  0.3962 -0.3854  0.5426
14148TIP3    H263936   5.576   0.964  16.640 -0.0553 -0.2623  0.0369
14149TIP3   OH263937   1.505   5.507   1.223  0.5555  0.0822  0.0135
14149TIP3    H163938   1.515   5.602   1.225  0.4311  0.0870  1.1426
14149TIP3    H263939   1.582   5.475   1.176 -0.0768  0.8111 -1.5829
14150TIP3   OH263940   6.552   2.645   3.779 -0.4324  0.3211 -0.3164
14150TIP3    H163941   6.605   2.715   3.816 -0.6393  0.2451  0.1309
14150TIP3    H263942   6.555   2.575   3.844 -1.3928  0.4631 -0.0991
14151TIP3   OH263943   1.029   4.133   4.977  0.1887 -0.3750 -0.5150
14151TIP3    H163944   1.009   4.185   4.899  0.0931  0.9613  0.3537
14151TIP3    H263945   1.108   4.174   5.013  0.8354 -1.6326 -0.4648
14152TIP3   OH263946   6.561   1.644  16.720  0.3293 -0.1230 -0.2421
14152TIP3    H163947   6.585   1.579  16.786 -0.8384 -0.0766  0.2581
14152TIP3    H263948   6.531   1.592  16.646  1.1077 -0.1667 -0.5358
14153TIP3   OH263949   4.710   2.407   3.520  0.0744  0.3369  0.2058
14153TIP3    H163950   4.687   2.362   3.439  0.5376  2.2080 -1.0374
14153TIP3    H263951   4.783   2.358   3.556 -1.4300 -1.7280  0.6384
14154TIP3   OH263952   5.977   6.764   3.635  0.3470 -0.6708 -0.2125
14154TIP3    H163953   6.009   6.746   3.723 -0.7346  0.4012  0.4113
14154TIP3    H263954   5.883   6.774   3.644  0.3762  0.9244 -1.2273
14155TIP3   OH263955   4.493   1.360  16.797  0.3151  0.7330 -0.0077
14155TIP3    H163956   4.462   1.314  16.875  0.4806 -0.0017 -0.3700
14155TIP3    H263957   4.522   1.445  16.830 -2.5547  1.7105  0.3124
14156TIP3   OH263958   4.789   2.502  16.298  0.2905  0.4173  0.1711
14156TIP3    H163959   4.702   2.536  16.275 -0.0947  0.5412  1.7165
14156TIP3    H263960   4.820   2.561  16.366  0.9065 -0.5788  0.7641
14157TIP3   OH263961   5.545   5.836   0.182  0.5090 -0.0812 -0.7908
14157TIP3    H163962   5.488   5.809   0.254 -1.1192  2.7164 -0.8799
14157TIP3    H263963   5.529   5.772   0.113  0.8878 -1.8836  0.7346
14158TIP3   OH263964   3.259   3.629   3.901  1.0244  0.1855  0.1341
14158TIP3    H163965   3.280   3.695   3.966  0.5325  1.5501 -1.0252
14158TIP3    H263966   3.293   3.664   3.819  1.6364 -1.4878 -0.3725
14159TIP3   OH263967   5.714   4.958   6.550  0.1142  0.2188 -0.0538
14159TIP3    H163968   5.676   5.033   6.595  0.5808  0.8903 -0.7404
14159TIP3    H263969   5.640   4.900   6.533 -0.7711  1.7419 -1.8587
14160TIP3   OH263970   3.614   3.511  15.174 -0.5329  0.3887  0.0191
14160TIP3    H163971   3.550   3.440  15.165 -1.0376  0.6610  1.3165
14160TIP3    H263972   3.612   3.555  15.089 -2.7869  0.9672  0.3127
14161TIP3   OH263973   6.773   5.264  14.472  0.0838 -0.2073 -0.4896
14161TIP3    H163974   6.867   5.246  14.467 -0.1977 -2.1478  0.2714
14161TIP3    H263975   6.733   5.191  14.425 -1.0646  0.4844 -0.6084
14162TIP3   OH263976   3.146   1.095  12.177  0.5309 -0.2640  0.0688
14162TIP3    H163977   3.137   1.114  12.084 -0.8331 -0.4445  0.1391
14162TIP3    H263978   3.062   1.121  12.215  1.5613  1.1626  1.5002
14163TIP3   OH263979   6.104   6.554   5.581  0.5534  0.2484 -0.0608
14163TIP3    H163980   6.129   6.462   5.575 -0.2042  0.0743 -0.7103
14163TIP3    H263981   6.087   6.568   5.674 -1.8439 -0.9782 -0.2283
14164TIP3   OH263982   5.083   5.370  14.192  0.2904 -0.3647 -0.3864
14164TIP3    H163983   5.103   5.276  14.188  0.8624 -0.2643 -0.0161
14164TIP3    H263984   5.004   5.380  14.139 -1.0342 -1.4117  1.3011
14165TIP3   OH263985   6.572   0.817   2.040 -0.3679  0.2549 -0.6064
14165TIP3    H163986   6.611   0.836   1.954 -1.2462  1.8960 -0.6745
14165TIP3    H263987   6.488   0.776   2.019 -0.3184  0.1078 -0.5188
14166TIP3   OH263988   1.725   5.646   1.397 -0.5047 -0.4210 -0.3869
14166TIP3    H163989   1.812   5.686   1.399 -0.3962 -0.6724  0.2363
14166TIP3    H263990   1.679   5.692   1.327  0.1063 -0.2368 -0.6692
14167TIP3   OH263991   4.012   1.666  15.636 -0.3572  0.5653  0.2015
14167TIP3    H163992   4.086   1.715  15.673  2.2267 -2.9881  0.3187
14167TIP3    H263993   3.961   1.639  15.713  1.8344 -2.0559  0.9042
14168TIP3   OH263994   5.487   3.733  16.168 -0.2092  0.5885 -0.3683
14168TIP3    H163995   5.474   3.746  16.074 -0.9237  1.1555 -0.2000
14168TIP3    H263996   5.451   3.812  16.209 -0.5984  0.0200  0.4238
14169TIP3   OH263997   2.057   2.606   1.915 -0.7801  0.7121  0.3223
14169TIP3    H163998   2.007   2.642   1.988 -1.0882 -2.6864  1.9388
14169TIP3    H263999   2.148   2.629   1.933 -1.0986  2.0083  0.3879
14170TIP3   OH264000   3.309   6.297   4.220 -0.3444  0.0668  0.5668
14170TIP3    H164001   3.373   6.226   4.215 -1.1775 -0.7453  1.0517
14170TIP3    H264002   3.352   6.371   4.179  0.6479 -0.6504  0.2726
14171TIP3   OH264003   2.912   5.915   1.215  0.5723 -0.4718  0.1453
14171TIP3    H164004   2.956   5.835   1.185  0.6800 -0.5569  0.5217
14171TIP3    H264005   2.895   5.899   1.308 -0.9060 -0.7334 -0.1497
14172TIP3   OH264006   2.636   5.944   0.816  0.0839 -0.1517  0.3498
14172TIP3    H164007   2.618   6.003   0.742  1.1354  1.8423  1.5711
14172TIP3    H264008   2.675   5.866   0.775  0.1788  0.6783 -1.2470
14173TIP3   OH264009   6.464   6.557  11.888 -0.2095  0.1223 -0.4901
14173TIP3    H164010   6.439   6.638  11.844 -3.7630  1.0029  2.6385
14173TIP3    H264011   6.451   6.575  11.981 -0.6863 -3.8387  0.3978
14174TIP3   OH264012   5.896   3.621   4.636  0.0835 -0.6949  0.1752
14174TIP3    H164013   5.887   3.711   4.604 -0.7320 -0.5379  0.8003
14174TIP3    H264014   5.958   3.627   4.708  0.1597 -0.6646  0.1076
14175TIP3   OH264015   0.843   5.836  15.605 -0.1120  0.8984 -0.4785
14175TIP3    H164016   0.791   5.914  15.622  0.3768  0.8049  1.8248
14175TIP3    H264017   0.910   5.837  15.674  0.1317 -1.3469 -0.6164
14176TIP3   OH264018   4.284   1.385  15.110 -0.6993 -0.4600 -0.1314
14176TIP3    H164019   4.276   1.418  15.021 -0.5372 -0.7599 -0.2608
14176TIP3    H264020   4.246   1.297  15.106 -0.4951 -0.5564  0.0441
14177TIP3   OH264021   1.719   4.761   4.950 -0.2732  0.1681 -0.9978
14177TIP3    H164022   1.651   4.828   4.958 -0.5953 -0.2785  0.3799
14177TIP3    H264023   1.670   4.679   4.943 -0.1136 -0.6467  3.9337
14178TIP3   OH264024   0.873   5.174   5.681  0.0659  0.3453 -0.0076
14178TIP3    H164025   0.907   5.254   5.722  0.7819  1.0506 -1.8355
14178TIP3    H264026   0.952   5.124   5.659 -0.1359  0.8889 -2.1769
14179TIP3   OH264027   6.081   4.350   2.220  0.3591 -0.4243  0.4323
14179TIP3    H164028   6.081   4.429   2.274  0.5190  0.4262 -0.7664
14179TIP3    H264029   6.165   4.308   2.238  0.5200 -0.0152  0.6491
14180TIP3   OH264030   6.485   1.870   1.405 -0.1972  0.2106 -0.3744
14180TIP3    H164031   6.413   1.926   1.374  0.6037  0.8352 -1.1666
14180TIP3    H264032   6.564   1.921   1.386  0.5412 -1.0934 -0.8830
14181TIP3   OH264033   0.406   0.820   1.588 -0.3911  0.1702 -0.1024
14181TIP3    H164034   0.386   0.778   1.504  1.8027 -0.7254 -0.2533
14181TIP3    H264035   0.379   0.756   1.654 -0.2887  0.0119 -0.2120
14182TIP3   OH264036   1.232   3.187   5.937  0.4919  0.0394  0.3531
14182TIP3    H164037   1.199   3.277   5.939  0.5494  0.0581  0.4200
14182TIP3    H264038   1.271   3.173   6.023 -0.3266 -0.3521  0.6691
14183TIP3   OH264039   6.582   0.883   4.090 -0.2688 -0.3212 -0.0978
14183TIP3    H164040   6.592   0.913   4.180 -2.0944 -1.2404  0.4606
14183TIP3    H264041   6.537   0.954   4.045  2.2884  0.9428 -0.8465
14184TIP3   OH264042   6.059   1.031  17.075  0.2605  0.0154  0.6629
14184TIP3    H164043   5.991   0.972  17.107  0.3228 -1.1843 -1.3142
14184TIP3    H264044   6.133   0.975  17.054  0.4253  0.7841 -1.0050
14185TIP3   OH264045   1.170   5.121   5.881  0.3129 -0.2539  0.3666
14185TIP3    H164046   1.089   5.143   5.927 -1.6087 -1.9831 -1.9453
14185TIP3    H264047   1.196   5.036   5.917  0.1254 -0.5050 -0.0853
14186TIP3   OH264048   5.380   3.417   2.753 -0.2961 -0.0085  0.4686
14186TIP3    H164049   5.300   3.437   2.802 -0.7068  5.2857 -1.6286
14186TIP3    H264050   5.450   3.462   2.801  0.1547  0.9522 -1.0056
14187TIP3   OH264051   6.231   6.747  16.832  0.0787  0.4257  0.1723
14187TIP3    H164052   6.312   6.770  16.786  0.0092  1.8242  0.7039
14187TIP3    H264053   6.237   6.793  16.915 -0.8160 -0.2709  0.6338
14188TIP3   OH264054   0.736   2.685  11.739 -0.2745 -0.1092 -1.0286
14188TIP3    H164055   0.664   2.656  11.796 -1.5195  3.0228 -0.7821
14188TIP3    H264056   0.813   2.686  11.796 -1.1265  1.2525  0.1748
14189TIP3   OH264057   6.539   4.080   1.345  0.7544  0.1815  0.1420
14189TIP3    H164058   6.467   4.135   1.316  0.0383  0.1912  1.8143
14189TIP3    H264059   6.603   4.082   1.273 -1.8833 -1.7779 -2.4918
14190TIP3   OH264060   2.319   0.350   0.516 -0.2875 -0.0034 -0.1330
14190TIP3    H164061   2.237   0.398   0.518 -0.2455  0.0560  2.0703
14190TIP3    H264062   2.295   0.262   0.488 -0.8912  0.3358 -0.7166
14191TIP3   OH264063   5.434   4.168  13.794  0.2019  0.0857 -0.0916
14191TIP3    H164064   5.493   4.093  13.797  1.2244  0.8029 -1.4264
14191TIP3    H264065   5.376   4.151  13.719 -0.6920 -0.1516  0.6264
14192TIP3   OH264066   4.040   0.442  11.415  0.6242 -0.2230 -0.0941
14192TIP3    H164067   4.039   0.472  11.506 -1.1809 -0.5268  0.0140
14192TIP3    H264068   3.981   0.502  11.369  0.2813 -1.0417 -0.7409
14193TIP3   OH264069   1.354   6.615   2.130 -0.3055 -0.2705 -0.0953
14193TIP3    H164070   1.310   6.686   2.177 -0.8819 -0.2250 -0.6832
14193TIP3    H264071   1.415   6.578   2.194 -0.0694  0.6803  0.2620
14194TIP3   OH264072   0.205   1.219  14.040  0.1204 -0.3693  0.1716
14194TIP3    H164073   0.131   1.209  14.101 -1.4135 -1.9350 -1.7963
14194TIP3    H264074   0.263   1.146  14.061 -0.1949 -0.6599  0.0428
14195TIP3   OH264075   3.991   4.521  14.956  0.5620  0.2290  0.0163
14195TIP3    H164076   4.017   4.444  15.007 -0.5910 -0.0339  0.2282
14195TIP3    H264077   3.926   4.487  14.894  1.2365  0.7313 -0.9823
14196TIP3   OH264078   2.190   3.369  17.207 -0.5275 -0.7664  0.1807
14196TIP3    H164079   2.173   3.300  17.143  0.4684 -2.7393  1.9058
14196TIP3    H264080   2.106   3.411  17.220 -0.5057  0.7334 -3.4256
14197TIP3   OH264081   3.399   5.318   5.277 -0.3530 -0.3759  0.0749
14197TIP3    H164082   3.335   5.358   5.336 -1.5297 -2.1707  0.0803
14197TIP3    H264083   3.437   5.392   5.229 -1.6580  0.8291  0.8315
14198TIP3   OH264084   6.521   4.023   3.047  0.0210 -0.1120 -0.2594
14198TIP3    H164085   6.533   4.077   2.969  2.0422 -1.1813 -0.7556
14198TIP3    H264086   6.609   3.992   3.068 -0.5556 -0.3087  2.1280
14199TIP3   OH264087   1.978   6.739  14.153 -0.4284 -0.0318 -0.1284
14199TIP3    H164088   2.070   6.755  14.132 -0.4740 -1.0793 -1.1710
14199TIP3    H264089   1.963   6.791  14.233  1.3981 -0.8008  0.7798
14200TIP3   OH264090   4.111   3.102  14.044  0.2841 -0.3645 -0.6866
14200TIP3    H164091   4.181   3.130  14.102 -1.0864 -1.6798  1.7514
14200TIP3    H264092   4.114   3.007  14.045 -0.4690 -0.4316 -1.9156
14201TIP3   OH264093   2.321   4.920  16.293 -0.2270 -0.0905  0.0898
14201TIP3    H164094   2.238   4.907  16.340 -0.3731 -2.3074 -0.6793
14201TIP3    H264095   2.301   4.897  16.203  0.5889  2.0704 -0.7056
14202TIP3   OH264096   4.693   1.068   1.486 -0.1033 -0.5063  0.4329
14202TIP3    H164097   4.780   1.033   1.467  0.2313  0.1962  0.6158
14202TIP3    H264098   4.656   1.089   1.399 -0.3672 -1.4247  0.3151
14203TIP3   OH264099   3.553   3.065  15.736 -0.1383  0.2760  0.0690
14203TIP3    H164100   3.522   3.005  15.668 -0.9812  0.7697  0.0130
14203TIP3    H264101   3.556   3.012  15.815  1.7709 -0.5729 -0.4975
14204TIP3   OH264102   2.638   2.060  13.388  0.6161 -0.2251 -0.0153
14204TIP3    H164103   2.566   2.022  13.338  0.3740  0.0682  0.1081
14204TIP3    H264104   2.595   2.101  13.464  0.9588 -0.4824  0.3205
14205TIP3   OH264105   3.918   0.886  11.240  0.4117 -0.0009 -0.4413
14205TIP3    H164106   3.838   0.913  11.286 -0.8711 -2.3288 -1.1651
14205TIP3    H264107   3.958   0.968  11.211 -0.6919  1.3161  1.5939
14206TIP3   OH264108   1.360   0.304   4.786  0.1515 -0.1078 -0.4295
14206TIP3    H164109   1.269   0.283   4.804  0.0609  0.4971 -0.1741
14206TIP3    H264110   1.409   0.227   4.817 -0.1451  0.1881  0.8329
14207TIP3   OH264111   0.058   5.235  13.365  0.6861 -0.4269 -0.6003
14207TIP3    H164112   0.020   5.274  13.287 -0.6616 -2.6773 -1.1895
14207TIP3    H264113   0.085   5.309  13.419 -2.6845  1.3485 -1.0930
14208TIP3   OH264114   3.541   3.843  13.943 -0.0712 -0.3221  0.6166
14208TIP3    H164115   3.515   3.889  13.863 -1.0799 -1.5897  0.1900
14208TIP3    H264116   3.546   3.912  14.010 -0.4603  0.5666 -0.2495
14209TIP3   OH264117   0.810   6.295  13.092 -0.3612 -0.3778  0.5101
14209TIP3    H164118   0.835   6.217  13.141  0.4328 -0.2788  0.2733
14209TIP3    H264119   0.751   6.262  13.024  1.0840 -1.0080 -0.4839
14210TIP3   OH264120   6.751   6.606   4.926 -0.4496 -0.1020  0.4094
14210TIP3    H164121   6.792   6.650   4.852 -0.8267 -3.7758 -2.2558
14210TIP3    H264122   6.658   6.628   4.919 -0.7283 -1.5545 -1.2491
14211TIP3   OH264123   6.716   0.106  11.639 -0.4325  0.1272 -0.2870
14211TIP3    H164124   6.630   0.084  11.605 -0.5395  0.0285  0.0461
14211TIP3    H264125   6.729   0.046  11.713 -0.8945  1.4382  0.8895
14212TIP3   OH264126   3.765   4.030   6.029 -0.2787  0.1887  0.3809
14212TIP3    H164127   3.859   4.047   6.039 -0.3470 -0.1490  1.7796
14212TIP3    H264128   3.739   3.989   6.111 -1.1115 -2.2203 -1.0003
14213TIP3   OH264129   2.471   3.789  15.935 -0.3544  0.1973  0.2043
14213TIP3    H164130   2.470   3.849  15.860  1.2779 -2.1819 -1.8999
14213TIP3    H264131   2.494   3.845  16.009 -1.3605  2.5624 -1.1143
14214TIP3   OH264132   5.704   6.295  12.432 -0.0907 -0.2521  0.3545
14214TIP3    H164133   5.630   6.240  12.407 -0.3716  0.7884 -1.2134
14214TIP3    H264134   5.673   6.385  12.420  1.8028  0.2322 -1.6696
14215TIP3   OH264135   1.964   3.442   4.092 -0.2221 -0.4225 -0.5020
14215TIP3    H164136   2.011   3.526   4.094  0.2730 -0.7131  0.0435
14215TIP3    H264137   2.027   3.378   4.124 -0.6833 -0.9718 -0.6793
14216TIP3   OH264138   5.821   5.722  11.381 -0.0956  0.0608 -0.4964
14216TIP3    H164139   5.902   5.759  11.417 -1.1322  0.4335  1.6082
14216TIP3    H264140   5.757   5.793  11.387 -1.0858 -0.8240 -0.1740
14217TIP3   OH264141   6.169   4.957   1.625 -0.2384  0.0534  0.6339
14217TIP3    H164142   6.133   4.876   1.662  1.5280 -0.0767  2.2621
14217TIP3    H264143   6.259   4.959   1.657  0.4228  1.6234 -1.1245
14218TIP3   OH264144   1.704   1.365   3.203 -0.1952  0.0425  0.8465
14218TIP3    H164145   1.781   1.395   3.155 -1.8696 -0.3663 -2.4016
14218TIP3    H264146   1.689   1.432   3.270  0.1446  2.8666 -1.6985
14219TIP3   OH264147   2.931   2.082  15.127 -0.0588 -0.1846  0.0055
14219TIP3    H164148   2.951   2.175  15.129  1.5367 -0.4713 -0.8249
14219TIP3    H264149   2.972   2.047  15.206  2.2982 -0.6522 -1.3212
14220TIP3   OH264150   0.644   1.804  13.212 -0.2464 -0.1228 -0.0704
14220TIP3    H164151   0.614   1.888  13.246  0.7890  0.1398  0.2172
14220TIP3    H264152   0.662   1.820  13.120 -0.7653 -0.2291 -0.1946
14221TIP3   OH264153   2.585   6.713  15.515 -0.2026  0.8490  0.6219
14221TIP3    H164154   2.631   6.689  15.595  2.7655  0.6450 -0.9738
14221TIP3    H264155   2.629   6.662  15.446 -1.5400  2.1758 -1.3298
14222TIP3   OH264156   4.338   4.958   2.554  0.0902  0.0499 -0.2053
14222TIP3    H164157   4.401   5.028   2.571  0.6251 -0.4063 -0.2552
14222TIP3    H264158   4.393   4.881   2.536 -0.4806 -0.1982 -0.9231
14223TIP3   OH264159   5.176   5.169  11.222  0.1928  0.0913 -0.3250
14223TIP3    H164160   5.093   5.137  11.186 -0.3836  2.0048 -0.8241
14223TIP3    H264161   5.231   5.184  11.145  0.4824  0.2085 -0.0949
14224TIP3   OH264162   0.443   3.557   3.136  0.1769  0.2509  0.4966
14224TIP3    H164163   0.422   3.550   3.043 -0.4183  1.9119  0.4691
14224TIP3    H264164   0.358   3.546   3.180  0.4654 -0.5834  0.8524
14225TIP3   OH264165   0.007   1.840  13.407 -0.5059 -0.2566  0.4265
14225TIP3    H164166  -0.051   1.916  13.410 -0.7758 -0.4932  1.8951
14225TIP3    H264167   0.094   1.877  13.387 -1.0653  0.1223 -1.5499
14226TIP3   OH264168   0.315   4.959  12.575 -0.6892  0.2755  0.1409
14226TIP3    H164169   0.248   5.027  12.587 -0.5584  0.4517 -0.1023
14226TIP3    H264170   0.296   4.922  12.489  0.9548  1.9652 -1.0214
14227TIP3   OH264171   4.244   3.748  16.828 -0.2270 -0.1399 -0.9025
14227TIP3    H164172   4.162   3.772  16.871  0.7698 -1.2350  1.7902
14227TIP3    H264173   4.229   3.660  16.794  0.0936 -0.7271  0.4331
14228TIP3   OH264174   1.848   0.303  14.272 -0.0337  0.1634  0.1469
14228TIP3    H164175   1.891   0.355  14.339 -0.1339 -0.6904  0.8969
14228TIP3    H264176   1.856   0.213  14.303 -0.0230 -0.2560 -1.0253
14229TIP3   OH264177   3.062   1.596  12.683  0.1349  0.0198  0.0635
14229TIP3    H164178   2.981   1.555  12.716 -0.0748  0.8040  0.5372
14229TIP3    H264179   3.126   1.580  12.752  0.7040 -1.5584 -0.7846
14230TIP3   OH264180   6.765   1.687  17.038  0.0418  0.6909  0.1501
14230TIP3    H164181   6.852   1.704  17.002 -0.6915  1.0814 -1.5424
14230TIP3    H264182   6.755   1.751  17.108  0.5464  1.6867 -0.6565
14231TIP3   OH264183   6.284   5.461  15.894 -0.0565  0.0558 -0.0601
14231TIP3    H164184   6.219   5.495  15.955 -1.0816 -1.9668  0.0590
14231TIP3    H264185   6.318   5.381  15.936 -0.2034 -0.9357 -1.7362
14232TIP3   OH264186   4.635   6.685   0.452 -0.2633 -0.2350  0.0659
14232TIP3    H164187   4.603   6.596   0.467 -1.2722 -0.4138 -2.5774
14232TIP3    H264188   4.561   6.731   0.411  0.4314  1.6739  0.8234
14233TIP3   OH264189   5.323   3.442  11.841  0.1766 -0.2162  0.5468
14233TIP3    H164190   5.276   3.499  11.780  1.3014  0.6872  0.4824
14233TIP3    H264191   5.391   3.401  11.788  1.9706  1.5256  1.3543
14234TIP3   OH264192   0.130   3.146  13.774 -0.3385  0.0476  0.0840
14234TIP3    H164193   0.219   3.113  13.767 -0.5635 -0.5515 -0.0002
14234TIP3    H264194   0.140   3.241  13.770  0.1637 -0.0414 -1.7449
14235TIP3   OH264195   5.136   6.288   4.983 -0.4735 -0.1797 -0.4652
14235TIP3    H164196   5.207   6.306   4.920 -1.1660 -0.5480 -1.3814
14235TIP3    H264197   5.180   6.277   5.067  0.3473  1.8442 -0.5885
14236TIP3   OH264198   1.934   6.420  13.798  0.1166  0.4373 -0.4850
14236TIP3    H164199   1.847   6.456  13.815  0.1271  0.6591 -0.8988
14236TIP3    H264200   1.963   6.387  13.884  0.2738  1.7736 -0.0080
14237TIP3   OH264201   3.479   6.412  17.205 -0.4303  0.0253  0.0146
14237TIP3    H164202   3.420   6.436  17.277 -1.0914 -1.2837 -0.0698
14237TIP3    H264203   3.436   6.338  17.163  1.3283 -1.0071 -0.0215
14238TIP3   OH264204   1.084   2.881   2.828 -0.1303  0.1472  0.3905
14238TIP3    H164205   1.079   2.975   2.813  0.4099  0.4034  1.6325
14238TIP3    H264206   1.115   2.844   2.745 -2.1171  0.8229 -0.6962
14239TIP3   OH264207   3.189   4.258   4.162  0.0569  0.3744 -0.2840
14239TIP3    H164208   3.246   4.336   4.163  0.1131  0.3368 -0.4913
14239TIP3    H264209   3.244   4.188   4.195  0.7217 -0.0570 -2.1632
14240TIP3   OH264210   3.339   0.637  14.729 -0.6425 -0.2737  0.2444
14240TIP3    H164211   3.398   0.688  14.784 -0.7301 -0.9497  0.9803
14240TIP3    H264212   3.304   0.569  14.787 -0.9252 -0.8546 -0.5825
14241TIP3   OH264213   0.507   6.300  15.839  0.1282 -0.4027  0.2204
14241TIP3    H164214   0.465   6.236  15.781 -1.0165  0.4624  0.0649
14241TIP3    H264215   0.434   6.343  15.884  0.6000  2.8554 -1.8132
14242TIP3   OH264216   1.945   3.443  17.260  0.5081  0.1142 -0.4012
14242TIP3    H164217   1.933   3.484  17.346  0.2121  2.1313 -1.3436
14242TIP3    H264218   1.860   3.402  17.241  0.1997  0.6575 -0.2234
14243TIP3   OH264219   2.796   2.558  12.488  0.0917  0.7254  0.0028
14243TIP3    H164220   2.718   2.571  12.542 -0.6183  1.7498 -1.2344
14243TIP3    H264221   2.869   2.566  12.550 -0.7644 -0.7662  1.2703
14244TIP3   OH264222   4.722   0.035  11.469  0.4605  0.8799 -0.4036
14244TIP3    H164223   4.781   0.022  11.543 -2.7443 -1.2908  2.0187
14244TIP3    H264224   4.739  -0.041  11.412 -1.0270 -0.7623  1.1945
14245TIP3   OH264225   1.170   3.671   4.273 -0.9619 -0.2164 -0.2086
14245TIP3    H164226   1.162   3.614   4.350 -0.7329 -0.2647 -0.2206
14245TIP3    H264227   1.124   3.751   4.299 -0.7720 -0.1818  0.0315
14246TIP3   OH264228   0.545   6.161   1.336 -0.4781  0.2096  0.4077
14246TIP3    H164229   0.630   6.119   1.349 -0.1477  0.8780  0.4502
14246TIP3    H264230   0.506   6.165   1.424  0.8214  2.7595  0.9544
14247TIP3   OH264231   3.865   5.335   1.645 -0.1065 -0.4823 -1.0054
14247TIP3    H164232   3.833   5.378   1.565  0.2889  1.6400 -0.0864
14247TIP3    H264233   3.958   5.319   1.628  0.0526  0.2664 -0.8630
14248TIP3   OH264234   2.696   4.593   3.122 -0.1276  0.0353 -0.0861
14248TIP3    H164235   2.710   4.646   3.201  1.4082  0.3972 -0.5689
14248TIP3    H264236   2.628   4.640   3.073 -0.9305 -0.0723  0.8887
14249TIP3   OH264237   2.746   2.452  16.842 -0.0042  0.1213  0.0796
14249TIP3    H164238   2.701   2.501  16.911 -0.5670  2.1156 -1.6015
14249TIP3    H264239   2.836   2.485  16.844 -0.5987  2.0359 -1.6466
14250TIP3   OH264240   1.170   0.922  12.120  0.4815  0.0286 -0.0476
14250TIP3    H164241   1.128   0.864  12.056  0.3351 -1.4766  1.3382
14250TIP3    H264242   1.123   1.005  12.112 -1.9858 -1.2196  0.5849
14251TIP3   OH264243   5.737   3.012   6.360 -0.3085 -0.1055 -0.0806
14251TIP3    H164244   5.814   3.068   6.366 -0.3320 -0.1253  0.4279
14251TIP3    H264245   5.677   3.045   6.427  0.1926 -1.5150  1.1124
14252TIP3   OH264246   4.713   1.056  16.542 -0.1087  0.0522  0.1884
14252TIP3    H164247   4.683   1.042  16.452  0.4719  1.8379 -0.3384
14252TIP3    H264248   4.759   0.975  16.565 -0.9539 -0.7396 -0.8274
14253TIP3   OH264249   0.945   5.226   4.701 -0.0170 -0.2467  0.1628
14253TIP3    H164250   0.907   5.276   4.774  0.1414 -0.2663  0.2573
14253TIP3    H264251   1.004   5.163   4.742 -0.6123 -0.8697  0.0831
14254TIP3   OH264252   2.032   0.238   6.062 -0.4253 -0.1862 -0.1214
14254TIP3    H164253   2.069   0.314   6.017  0.2220  0.5427  1.5287
14254TIP3    H264254   2.106   0.201   6.111 -1.0061 -1.1737  0.0475
14255TIP3   OH264255   4.466   0.181  15.237 -0.0663  0.7463 -0.0519
14255TIP3    H164256   4.507   0.253  15.190 -1.7578  1.3152 -0.7354
14255TIP3    H264257   4.393   0.154  15.181  0.9431 -2.0277 -0.1891
14256TIP3   OH264258   6.284   2.613  17.031  0.1846  0.0570  0.5136
14256TIP3    H164259   6.219   2.652  17.089  0.3262  0.6246  0.2935
14256TIP3    H264260   6.314   2.685  16.975  0.1293 -0.4523 -0.1937
14257TIP3   OH264261   2.731   0.095   3.027 -0.1112 -0.5031  0.1058
14257TIP3    H164262   2.793   0.148   3.077 -0.6906 -0.2797  0.6005
14257TIP3    H264263   2.734   0.009   3.069  0.7223 -0.8316 -0.6062
14258TIP3   OH264264   1.552   2.708  12.837  0.1834  0.1253 -0.0294
14258TIP3    H164265   1.604   2.630  12.858 -0.9264 -0.6107  0.0555
14258TIP3    H264266   1.547   2.709  12.742  0.5764  0.3532 -0.0502
14259TIP3   OH264267   6.468   6.628  10.373 -0.0797  0.5898 -0.3686
14259TIP3    H164268   6.414   6.571  10.318  0.5860  0.6046 -1.0560
14259TIP3    H264269   6.557   6.595  10.362 -0.1562 -0.9343  2.6091
14260TIP3   OH264270   3.381   1.166  16.931 -0.4514  0.0640  0.5278
14260TIP3    H164271   3.466   1.123  16.937 -0.1165  0.4473 -0.9487
14260TIP3    H264272   3.360   1.191  17.021  2.1828  2.1646  0.6772
14261TIP3   OH264273   2.419   4.472   4.995  0.8447  0.2043  0.2196
14261TIP3    H164274   2.480   4.435   4.932  0.5677 -2.1011  1.2086
14261TIP3    H264275   2.467   4.544   5.036  1.5186  0.8417 -1.5839
14262TIP3   OH264276   5.845   0.245   3.942 -0.5677 -0.0103  0.3017
14262TIP3    H164277   5.820   0.237   3.850  0.5691 -0.2386 -0.0029
14262TIP3    H264278   5.800   0.173   3.986 -0.4736 -0.3895 -0.2175
14263TIP3   OH264279   1.863   6.117   3.811  0.1749  0.4671 -0.6645
14263TIP3    H164280   1.771   6.091   3.806 -0.4317  2.5869 -2.0962
14263TIP3    H264281   1.867   6.173   3.888 -0.5917  3.0268 -2.3459
14264TIP3   OH264282   3.419   1.512   4.849 -0.2739 -0.5106 -0.0707
14264TIP3    H164283   3.507   1.482   4.828 -0.0639  0.2945 -0.3917
14264TIP3    H264284   3.416   1.515   4.945 -0.0328 -0.7671 -0.0559
14265TIP3   OH264285   1.646   5.043  14.513  0.1795 -0.3816  0.0872
14265TIP3    H164286   1.703   5.104  14.558 -0.8118  1.6481 -1.2693
14265TIP3    H264287   1.674   5.046  14.422 -2.2763  0.9979 -0.7020
14266TIP3   OH264288   2.626   4.530  14.393  0.3247 -0.0650  0.2571
14266TIP3    H164289   2.546   4.548  14.442 -1.2690 -0.5073 -2.0013
14266TIP3    H264290   2.697   4.555  14.452 -1.4954  2.4287  1.5817
14267TIP3   OH264291   5.842   4.256   2.461 -0.2683 -0.6354  0.7764
14267TIP3    H164292   5.855   4.235   2.369 -0.7181  2.2198 -0.0562
14267TIP3    H264293   5.895   4.192   2.508  0.5236 -1.7543 -1.4876
14268TIP3   OH264294   4.525   5.742  16.313  0.1087  0.3116 -0.9837
14268TIP3    H164295   4.498   5.833  16.325 -0.7263 -0.0774  0.2675
14268TIP3    H264296   4.469   5.692  16.373  0.3113 -1.0698 -1.8908
14269TIP3   OH264297   6.005   0.853  16.789  0.0303 -0.2148 -0.0065
14269TIP3    H164298   5.953   0.772  16.783  0.2219 -0.3727  0.4419
14269TIP3    H264299   6.053   0.845  16.871  1.3013 -0.3818 -0.7459
14270TIP3   OH264300   0.382   4.712   5.009  0.0598  0.0082  0.7072
14270TIP3    H164301   0.441   4.654   5.058  1.4278  1.2119  0.5316
14270TIP3    H264302   0.365   4.665   4.927  1.4016 -0.0366  0.4326
14271TIP3   OH264303   2.758   2.596   0.394  0.0481 -0.3984  0.4270
14271TIP3    H164304   2.690   2.560   0.338 -0.2469  1.0800 -0.2178
14271TIP3    H264305   2.838   2.550   0.368 -0.1939 -0.1635 -0.7844
14272TIP3   OH264306   1.190   5.818   2.293 -0.7069 -0.5091 -0.0389
14272TIP3    H164307   1.107   5.770   2.294 -0.4040 -1.1013 -1.1340
14272TIP3    H264308   1.256   5.751   2.278 -0.2551  0.1866 -1.3651
14273TIP3   OH264309   6.488   2.836   5.483 -0.3031 -0.2099 -0.4556
14273TIP3    H164310   6.571   2.796   5.509 -0.6142 -0.5281  0.0821
14273TIP3    H264311   6.509   2.928   5.469  0.2726 -0.4108 -0.9633
14274TIP3   OH264312   0.628   5.574  17.262 -0.0900  0.8125 -0.3761
14274TIP3    H164313   0.650   5.635  17.192  0.4195  0.6341 -0.3791
14274TIP3    H264314   0.595   5.629  17.333  0.3544  1.0928 -0.3817
14275TIP3   OH264315   0.261   2.899  16.212 -0.1043  0.1138  0.1879
14275TIP3    H164316   0.303   2.813  16.206  0.3713  0.3388  0.1827
14275TIP3    H264317   0.187   2.895  16.152  0.9369  0.2837 -1.1707
14276TIP3   OH264318   2.651   3.359   0.929  0.2294 -0.2027  0.2103
14276TIP3    H164319   2.658   3.425   0.998  0.1476 -0.1532  0.1720
14276TIP3    H264320   2.695   3.399   0.854 -1.1149  0.4466 -0.2803
14277TIP3   OH264321   6.108   2.358  11.616 -0.2497 -0.4186  0.0096
14277TIP3    H164322   6.146   2.299  11.682  0.4162  0.2602  0.2520
14277TIP3    H264323   6.178   2.369  11.552 -0.1571  0.5519  0.2624
14278TIP3   OH264324   5.624   4.893   4.650  0.3785  0.2745  0.0229
14278TIP3    H164325   5.700   4.894   4.591  0.5886 -0.8180  0.2645
14278TIP3    H264326   5.654   4.940   4.728  0.9666 -0.5446  0.2990
14279TIP3   OH264327   2.160   5.591  12.071 -0.3071 -0.2570  0.1795
14279TIP3    H164328   2.108   5.510  12.069  0.0226 -0.5026  1.2432
14279TIP3    H264329   2.225   5.578  12.002 -0.1512 -0.9803  0.4520
14280TIP3   OH264330   1.186   6.508  13.948 -0.1937 -0.2022 -0.2065
14280TIP3    H164331   1.233   6.468  14.021 -1.1680 -0.2679  0.3983
14280TIP3    H264332   1.156   6.434  13.895 -0.9308 -0.2244  0.2399
14281TIP3   OH264333   0.928   5.760   6.623  0.3603 -0.4371 -0.1287
14281TIP3    H164334   0.834   5.755   6.638  0.2558 -1.0968 -0.9275
14281TIP3    H264335   0.948   5.854   6.624 -0.4117 -0.2603 -0.5531
14282TIP3   OH264336   1.008   2.087   4.083  0.2757 -0.3719 -0.1916
14282TIP3    H164337   1.072   2.095   4.153 -0.5179  0.7006  0.4452
14282TIP3    H264338   0.923   2.094   4.127 -0.2944 -1.8482 -1.0063
14283TIP3   OH264339   3.132   4.437   0.195  0.1949 -0.2240  0.2722
14283TIP3    H164340   3.054   4.394   0.230  0.8353 -0.6956  1.1553
14283TIP3    H264341   3.117   4.440   0.100 -2.5932  3.0809  0.5943
14284TIP3   OH264342   0.718   5.108  12.646 -0.8821 -0.3121  0.4855
14284TIP3    H164343   0.705   5.141  12.735 -0.9566 -0.4657  0.5311
14284TIP3    H264344   0.813   5.102  12.635 -0.8636  0.0586  0.4268
14285TIP3   OH264345   2.079   3.874   4.385 -0.7098 -0.1214 -0.9904
14285TIP3    H164346   2.135   3.815   4.435  0.6321  0.9257 -1.2136
14285TIP3    H264347   2.027   3.816   4.330 -1.1494 -1.2130  0.4973
14286TIP3   OH264348   4.432   4.397  15.936 -0.2131 -0.2595  0.0861
14286TIP3    H164349   4.408   4.381  16.028  0.1013  0.3577  0.2774
14286TIP3    H264350   4.527   4.392  15.934 -0.2043 -0.0468 -0.1625
14287TIP3   OH264351   0.315   1.164  11.932  0.3626  0.0536 -0.0951
14287TIP3    H164352   0.226   1.194  11.954  0.4340 -0.3644  0.8039
14287TIP3    H264353   0.306   1.125  11.845 -0.7588 -1.7272  0.7721
14288TIP3   OH264354   3.688   4.328  11.570  0.0276  1.0121  0.0244
14288TIP3    H164355   3.667   4.399  11.631 -0.4692  0.6379  0.2941
14288TIP3    H264356   3.776   4.300  11.595 -0.4412  0.3934  1.0366
14289TIP3   OH264357   3.587   0.688   4.849 -0.8721 -0.1056  0.0645
14289TIP3    H164358   3.587   0.713   4.941  1.5557 -2.5976  0.8392
14289TIP3    H264359   3.663   0.732   4.812 -1.2189  0.0247 -0.5076
14290TIP3   OH264360   3.940   1.283  14.909 -0.0245 -0.4412 -0.1754
14290TIP3    H164361   3.950   1.307  15.001  0.6476  0.2627 -0.4243
14290TIP3    H264362   3.932   1.188  14.910  1.8288 -0.6270  0.4854
14291TIP3   OH264363   4.612   3.890   0.605  0.2217  0.1010  0.6501
14291TIP3    H164364   4.545   3.940   0.653 -0.2936 -0.6012  0.6799
14291TIP3    H264365   4.578   3.886   0.515 -0.0809 -0.7532  0.7899
14292TIP3   OH264366   0.217   3.691   1.562 -0.9253 -0.3389 -0.8492
14292TIP3    H164367   0.280   3.634   1.518 -1.4677 -0.0046 -2.1056
14292TIP3    H264368   0.198   3.647   1.644  0.3159 -0.8610 -0.8229
14293TIP3   OH264369   5.941   2.955   3.007 -0.1241  0.2538  0.2770
14293TIP3    H164370   5.906   3.038   2.975  0.3205 -0.3058 -1.7716
14293TIP3    H264371   6.035   2.970   3.017 -0.1882  0.2775  0.9366
14294TIP3   OH264372   2.557   1.512  13.500 -0.6123 -0.1112  0.3115
14294TIP3    H164373   2.573   1.492  13.408 -0.2029 -0.2675  0.4140
14294TIP3    H264374   2.462   1.521  13.507 -0.7029 -0.8263  0.0249
14295TIP3   OH264375   1.940   1.795   4.084 -0.0609 -0.3473  0.7517
14295TIP3    H164376   1.940   1.784   4.179  1.7037 -0.6278  0.7525
14295TIP3    H264377   2.000   1.728   4.052  1.5070  1.4429 -0.3018
14296TIP3   OH264378   4.143   2.606  12.734  0.7383 -0.3385  0.1384
14296TIP3    H164379   4.092   2.548  12.789  1.7077 -1.7391 -0.3930
14296TIP3    H264380   4.148   2.688  12.783  0.6765 -1.2046  1.6358
14297TIP3   OH264381   4.173   3.032  11.539 -0.2540  0.3839  0.0862
14297TIP3    H164382   4.115   3.025  11.463  1.1063 -2.7213 -0.8427
14297TIP3    H264383   4.216   3.117  11.528 -0.3696  0.2067 -2.4735
14298TIP3   OH264384   6.051   2.922   0.407 -0.3983  0.4190  0.1590
14298TIP3    H164385   6.077   2.997   0.353 -2.8183  2.0084  1.0288
14298TIP3    H264386   5.965   2.895   0.372  0.7231 -2.5582 -0.6381
14299TIP3   OH264387   0.313   0.473  11.434  0.3410 -0.1658 -0.2663
14299TIP3    H164388   0.354   0.390  11.411  0.1527 -0.2186 -0.4074
14299TIP3    H264389   0.384   0.537  11.429  0.2566 -0.1357 -1.2041
14300TIP3   OH264390   5.507   4.232   4.226  0.0089 -0.9739 -0.5262
14300TIP3    H164391   5.594   4.215   4.191  0.0290 -2.2776  0.1280
14300TIP3    H264392   5.447   4.200   4.158  0.0220  0.0463 -1.0349
14301TIP3   OH264393   2.397   4.102  11.352  0.1783 -0.2902 -0.9696
14301TIP3    H164394   2.390   4.194  11.324  1.0729 -0.2661 -1.1524
14301TIP3    H264395   2.487   4.094  11.382 -0.4627 -0.5649  1.0260
14302TIP3   OH264396   1.964   3.824  12.302  0.0478  0.1635  0.0857
14302TIP3    H164397   2.014   3.805  12.223  0.5714 -0.3978  0.5365
14302TIP3    H264398   2.028   3.860  12.363  0.0431 -1.0213  0.8369
14303TIP3   OH264399   3.102   0.679  12.731  0.9068 -0.3072 -0.2645
14303TIP3    H164400   3.059   0.709  12.811 -0.7604  2.0683 -1.8810
14303TIP3    H264401   3.187   0.722  12.731  0.0161  1.5549 -0.7575
14304TIP3   OH264402   5.620   3.092  14.583  0.5503  0.6943  0.0982
14304TIP3    H164403   5.567   3.144  14.523  0.2200  2.3122  1.7055
14304TIP3    H264404   5.707   3.132  14.579  0.6977  0.3859  0.2003
14305TIP3   OH264405   0.022   5.293   5.896  0.4887 -0.9507 -0.6450
14305TIP3    H164406  -0.027   5.316   5.975  0.7647 -1.6005 -0.2770
14305TIP3    H264407  -0.040   5.308   5.825 -0.3701 -2.0720 -0.1671
14306TIP3   OH264408   1.587   3.398   0.902 -0.0075  0.2978  0.0912
14306TIP3    H164409   1.508   3.382   0.851 -0.6563  2.5457  0.3054
14306TIP3    H264410   1.634   3.467   0.854  2.3359 -1.5625 -0.5152
14307TIP3   OH264411   1.547   6.426   5.617 -0.6315  0.2103  0.1618
14307TIP3    H164412   1.591   6.366   5.676  2.4366  2.4727  0.3998
14307TIP3    H264413   1.561   6.389   5.530 -1.1426 -0.7549  0.4793
14308TIP3   OH264414   6.692   0.582   0.557  0.2142 -0.1651  0.0673
14308TIP3    H164415   6.609   0.571   0.509  0.1567  0.3606  0.0468
14308TIP3    H264416   6.677   0.656   0.615  0.9035  0.3739 -0.4335
14309TIP3   OH264417   3.170   1.791  14.012 -0.0116 -0.1367 -0.4128
14309TIP3    H164418   3.173   1.747  13.927  1.1196  0.2811 -0.6158
14309TIP3    H264419   3.242   1.854  14.008 -0.7845  0.8230  0.3569
14310TIP3   OH264420   3.272   0.104   1.041  0.6852 -0.1383 -0.5456
14310TIP3    H164421   3.340   0.171   1.029  0.7314 -0.3055 -1.2883
14310TIP3    H264422   3.191   0.155   1.053  1.0349  0.0718  1.0811
14311TIP3   OH264423   6.806   6.442   0.697  0.5653  0.1074 -0.2103
14311TIP3    H164424   6.820   6.423   0.605  0.0781  0.5554 -0.3843
14311TIP3    H264425   6.856   6.522   0.714  1.8405 -0.7732  0.2829
14312TIP3   OH264426   5.500   5.378   2.148  0.1577  0.2461 -0.4309
14312TIP3    H164427   5.466   5.378   2.238 -0.1709  0.4248 -0.5528
14312TIP3    H264428   5.570   5.314   2.149  1.0636  1.2088  0.3015
14313TIP3   OH264429   1.279   6.074  16.939  0.2648  0.4790  0.1940
14313TIP3    H164430   1.352   6.012  16.949 -1.0743 -1.2841 -0.3758
14313TIP3    H264431   1.320   6.154  16.907  1.7239 -1.2143 -2.5155
14314TIP3   OH264432   1.528   6.080  11.273  0.3340 -0.1318  0.0677
14314TIP3    H164433   1.491   6.033  11.348 -0.9298  0.9724  0.1599
14314TIP3    H264434   1.547   6.011  11.209 -2.0755 -0.7693 -0.0533
14315TIP3   OH264435   6.372   4.804  11.772 -0.2387 -0.2440  0.0686
14315TIP3    H164436   6.440   4.830  11.833  0.0153  1.2153 -0.8022
14315TIP3    H264437   6.291   4.840  11.809 -0.2133 -0.1003 -0.0161
14316TIP3   OH264438   0.220   5.185  14.420 -0.1333 -0.9427  0.7718
14316TIP3    H164439   0.259   5.147  14.341 -0.9981 -0.7798  0.2586
14316TIP3    H264440   0.272   5.264  14.436 -0.9064 -0.1241 -0.5463
14317TIP3   OH264441   1.282   2.132   5.816  0.0105  0.0061 -0.1893
14317TIP3    H164442   1.250   2.212   5.775 -2.3406  0.5555  2.3992
14317TIP3    H264443   1.376   2.146   5.827 -0.4348  2.7239  0.7565
14318TIP3   OH264444   5.475   0.573  15.738 -0.8339 -0.5424 -0.0532
14318TIP3    H164445   5.485   0.650  15.682  0.0869 -0.4706  0.1895
14318TIP3    H264446   5.382   0.571  15.760 -1.0222 -0.0109 -0.7810
14319TIP3   OH264447   3.095   3.826   5.256  0.2826  0.2029  0.2471
14319TIP3    H164448   3.092   3.752   5.317  0.7483 -1.6020 -1.8058
14319TIP3    H264449   3.179   3.817   5.211 -0.8220  0.2822 -2.0000
14320TIP3   OH264450   4.609   1.644  13.594  0.0102  0.4437 -0.1453
14320TIP3    H164451   4.623   1.683  13.680  0.1420  1.4965 -0.6289
14320TIP3    H264452   4.685   1.587  13.581  0.2751  0.7156  0.1975
14321TIP3   OH264453   6.035   6.752   0.277  0.6088 -0.3655 -0.8997
14321TIP3    H164454   6.039   6.845   0.257  1.0937  0.2043  1.5252
14321TIP3    H264455   5.976   6.716   0.211  0.4386  1.6353 -1.9182
14322TIP3   OH264456   2.567   0.939  11.398 -0.1857 -0.1383 -0.1208
14322TIP3    H164457   2.495   0.950  11.335 -0.8218  1.5161  0.8507
14322TIP3    H264458   2.535   0.979  11.478  1.0249 -1.2799  0.9773
14323TIP3   OH264459   6.672   6.488  13.090 -0.2356 -0.2835  0.1685
14323TIP3    H164460   6.625   6.559  13.134 -1.3617  0.0855 -1.5101
14323TIP3    H264461   6.657   6.504  12.997  1.7057 -1.2523 -0.3609
14324TIP3   OH264462   0.628   3.547   6.460  0.0532 -0.4219  0.3952
14324TIP3    H164463   0.592   3.624   6.415  2.0062 -0.4375 -1.3768
14324TIP3    H264464   0.554   3.511   6.508 -1.5634  1.1094 -0.7747
14325TIP3   OH264465   4.453   2.220  15.018 -0.3759  0.7964  0.3955
14325TIP3    H164466   4.480   2.298  15.067  2.1302  0.7843 -0.8183
14325TIP3    H264467   4.399   2.254  14.947  2.1727  1.7763 -1.2228
14326TIP3   OH264468   3.215   2.746   2.635  0.3373 -0.9188  0.1278
14326TIP3    H164469   3.171   2.746   2.719  1.4330 -1.9635  0.7326
14326TIP3    H264470   3.167   2.681   2.583  0.7163 -1.5539  0.5534
14327TIP3   OH264471   4.119   1.202  17.017  0.2744  0.1124  0.0802
14327TIP3    H164472   4.118   1.293  17.047  1.4509  0.3987 -0.6969
14327TIP3    H264473   4.042   1.163  17.059  0.0043  1.3363  0.7928
14328TIP3   OH264474   4.975   2.093   4.108  0.3070  0.4116  0.2735
14328TIP3    H164475   4.997   2.182   4.083 -1.9988  1.0889  0.4076
14328TIP3    H264476   4.978   2.043   4.026 -1.2794  1.2951 -0.3606
14329TIP3   OH264477   4.945   2.377   1.128  0.0220 -0.0688  0.1141
14329TIP3    H164478   5.017   2.323   1.161 -0.5136 -1.0615 -0.3142
14329TIP3    H264479   4.882   2.379   1.200  0.9146  1.7192  0.9217
14330TIP3   OH264480   5.441   2.065  11.224  0.0835  0.3607  0.0341
14330TIP3    H164481   5.512   2.006  11.250  1.3320  2.1224  0.8179
14330TIP3    H264482   5.361   2.014  11.238  1.0477 -0.7591  1.7792
14331TIP3   OH264483   5.144   5.085   5.763 -0.2058  0.5049  0.0337
14331TIP3    H164484   5.078   5.051   5.703 -1.5150 -0.3376  1.8571
14331TIP3    H264485   5.226   5.046   5.733 -0.8393  0.0226 -1.1204
14332TIP3   OH264486   4.631   0.135  17.263 -0.8740 -0.7459 -0.2954
14332TIP3    H164487   4.631   0.067  17.330 -0.1205  0.7068  1.2567
14332TIP3    H264488   4.688   0.100  17.194  2.1729 -0.4818  1.8763
14333TIP3   OH264489   5.909   0.764  10.524 -0.5426 -0.6838  0.1144
14333TIP3    H164490   5.859   0.750  10.443 -1.0884 -0.2968  0.3835
14333TIP3    H264491   5.977   0.697  10.521 -0.1717 -0.2877 -0.9717
14334TIP3   OH264492   2.650   0.711  14.345  0.3673 -0.7507  0.4394
14334TIP3    H164493   2.637   0.711  14.440  2.6817 -1.0390  0.7931
14334TIP3    H264494   2.734   0.669  14.331 -0.2218 -1.3440 -1.8263
14335TIP3   OH264495   4.070   0.390   3.697 -0.6372 -0.1492 -0.4923
14335TIP3    H164496   4.034   0.313   3.655 -0.3998 -0.5266 -0.0085
14335TIP3    H264497   4.009   0.411   3.768  0.3831 -1.1648  0.7316
14336TIP3   OH264498   0.737   1.886   2.833  0.1714  0.1972 -0.0475
14336TIP3    H164499   0.702   1.952   2.892  2.1158  1.7810 -0.5469
14336TIP3    H264500   0.705   1.910   2.747 -0.3141 -0.4089 -0.0451
14337TIP3   OH264501   6.448   5.248  16.023  0.1655  0.4016 -0.1192
14337TIP3    H164502   6.448   5.209  16.110 -0.1542  1.5175  0.4040
14337TIP3    H264503   6.520   5.311  16.025 -0.0058  0.6171 -0.5683
14338TIP3   OH264504   1.044   5.264  16.876 -0.7964 -0.2482  0.6409
14338TIP3    H164505   1.035   5.241  16.784 -2.1901  0.6318  0.5208
14338TIP3    H264506   0.970   5.221  16.919 -0.3090 -0.4371  1.3090
14339TIP3   OH264507   6.434   2.072  13.209  0.2859 -0.2251 -0.5489
14339TIP3    H164508   6.439   2.011  13.136  0.4322  1.5622 -2.1067
14339TIP3    H264509   6.340   2.081  13.227  0.1590  0.3984 -1.4841
14340TIP3   OH264510   6.294   1.716  13.048  0.0083  0.2370 -0.4110
14340TIP3    H164511   6.325   1.626  13.054  0.3593  0.4060  0.7015
14340TIP3    H264512   6.372   1.769  13.065 -0.4822  0.7079  0.4445
14341TIP3   OH264513   4.248   6.442  17.292  0.1340 -0.5586  0.3208
14341TIP3    H164514   4.188   6.458  17.365 -0.1456  1.3287 -0.2705
14341TIP3    H264515   4.254   6.347  17.287 -1.9439 -0.7852  1.1029
14342TIP3   OH264516   1.153   2.549   2.729 -0.0881  0.6273 -0.3506
14342TIP3    H164517   1.171   2.557   2.823 -0.7036  0.4310 -0.2116
14342TIP3    H264518   1.176   2.635   2.693  2.2999  0.0355 -0.4077
14343TIP3   OH264519   6.460   0.606   0.308 -0.5706  0.3423  0.1436
14343TIP3    H164520   6.475   0.626   0.216 -0.9648  1.1869  0.2612
14343TIP3    H264521   6.445   0.691   0.350  2.5640  0.3630  1.5631
14344TIP3   OH264522   4.036   4.554  16.043  0.7519  0.4307  1.1801
14344TIP3    H164523   4.014   4.486  15.979  1.2175  0.7287  0.6988
14344TIP3    H264524   3.964   4.552  16.105  0.6342 -0.3388  1.0351
14345TIP3   OH264525   1.447   4.392  14.413  0.2360  0.9065 -0.2945
14345TIP3    H164526   1.476   4.452  14.344  0.5297  0.9669 -0.1199
14345TIP3    H264527   1.527   4.348  14.442 -0.1891 -0.8050 -1.5757
14346TIP3   OH264528   4.339   3.669   5.170  0.0969 -0.3222 -0.4153
14346TIP3    H164529   4.392   3.740   5.206 -0.4920  0.1289 -0.4284
14346TIP3    H264530   4.372   3.657   5.081 -0.2055  0.3660 -0.6327
14347TIP3   OH264531   1.886   1.761  16.574  0.3927 -0.1358  0.5477
14347TIP3    H164532   1.916   1.741  16.663  0.3503  1.2541  0.8898
14347TIP3    H264533   1.797   1.794  16.586 -0.5113 -2.1434 -0.2573
14348TIP3   OH264534   1.438   2.540   2.874  0.2713 -0.1129 -0.4222
14348TIP3    H164535   1.507   2.563   2.811 -2.3162 -0.3930 -3.6329
14348TIP3    H264536   1.426   2.446   2.864  0.5268 -0.3824  1.4129
14349TIP3   OH264537   4.132   6.731  12.948  0.0208  0.2993 -0.2516
14349TIP3    H164538   4.088   6.679  12.881  0.2326  0.5906 -0.6239
14349TIP3    H264539   4.156   6.812  12.903  2.6336 -0.5775 -0.5987
14350TIP3   OH264540   6.468   6.799  16.679 -0.0545  0.1690 -0.1688
14350TIP3    H164541   6.438   6.747  16.605 -1.1719 -0.6999  0.8474
14350TIP3    H264542   6.523   6.867  16.640  0.5430 -1.0954 -1.6391
14351TIP3   OH264543   0.335   4.102   0.269 -0.2798  0.1173 -0.0376
14351TIP3    H164544   0.339   4.066   0.180 -0.7315  1.6097 -0.6901
14351TIP3    H264545   0.381   4.185   0.263 -2.3288  1.3448  0.5483
14352TIP3   OH264546   0.726   6.576  15.472  0.3901 -0.6091  0.0831
14352TIP3    H164547   0.769   6.661  15.465  1.9246 -1.2247  1.3751
14352TIP3    H264548   0.633   6.597  15.478  0.4798  0.7881 -2.3153
14353TIP3   OH264549   0.039   0.609   6.008 -0.5359 -0.4161  0.3337
14353TIP3    H164550   0.076   0.626   6.095 -0.6717  2.1640 -0.0246
14353TIP3    H264551   0.106   0.639   5.947 -2.2826  2.6356 -0.3289
14354TIP3   OH264552   5.537   6.282  13.741  0.2509 -0.1683 -0.4093
14354TIP3    H164553   5.464   6.342  13.752 -0.7628 -1.3892 -0.2847
14354TIP3    H264554   5.544   6.270  13.646  0.4103  0.0903 -0.4306
14355TIP3   OH264555   2.104   2.787  17.055 -0.6056 -0.1077  0.1800
14355TIP3    H164556   2.140   2.830  17.133  0.5853  0.7756 -0.8187
14355TIP3    H264557   2.039   2.849  17.022  0.2501  0.4139 -0.5775
14356TIP3   OH264558   0.457   6.700   2.070 -0.0716  0.6426  0.5821
14356TIP3    H164559   0.438   6.695   1.977 -1.4262 -1.5092  0.8957
14356TIP3    H264560   0.453   6.793   2.091  1.8555  1.3452 -1.7504
14357TIP3   OH264561   0.985   6.808  13.257 -0.2423 -0.5990 -0.1989
14357TIP3    H164562   0.958   6.719  13.233 -1.0522 -0.4992  0.3333
14357TIP3    H264563   1.028   6.798  13.341 -0.5311 -0.4600 -0.0331
14358TIP3   OH264564   4.825   3.335   2.433  0.2931  0.6375  0.5413
14358TIP3    H164565   4.850   3.302   2.346  1.7415  1.3765  0.6445
14358TIP3    H264566   4.823   3.430   2.422  0.1825  0.7180  1.2512
14359TIP3   OH264567   0.610   1.832  12.573 -0.1454  0.8843  0.0673
14359TIP3    H164568   0.554   1.884  12.630 -0.7206  1.1533 -0.7377
14359TIP3    H264569   0.553   1.805  12.501  0.0471 -1.1156  0.6120
14360TIP3   OH264570   0.184   4.308   3.469 -0.1160  0.7645  0.1317
14360TIP3    H164571   0.271   4.271   3.453  0.3069  1.2256  1.2350
14360TIP3    H264572   0.149   4.256   3.542 -1.4765 -0.5128 -1.3615
14361TIP3   OH264573   5.791   4.822   0.667 -0.4716  0.5971 -0.0290
14361TIP3    H164574   5.859   4.852   0.606  0.8040 -2.8396 -0.4994
14361TIP3    H264575   5.831   4.832   0.754  1.0789 -2.0523 -0.3338
14362TIP3   OH264576   4.089   2.832   2.733 -0.0697  0.3237  0.1059
14362TIP3    H164577   4.071   2.913   2.780  0.4269  1.6022 -1.7784
14362TIP3    H264578   4.174   2.803   2.766 -0.8650 -0.2621  1.7932
14363TIP3   OH264579   0.562   1.324  12.503 -0.0728 -0.7118  0.1692
14363TIP3    H164580   0.628   1.261  12.531 -1.1145 -0.7961  2.7304
14363TIP3    H264581   0.483   1.298  12.551 -1.2705  0.9051 -0.8303
14364TIP3   OH264582   6.569   3.149  12.180 -0.2951 -0.4412  0.3288
14364TIP3    H164583   6.641   3.207  12.205  0.1871 -0.1456 -1.6032
14364TIP3    H264584   6.532   3.120  12.263  1.4691  0.1274  1.3718
14365TIP3   OH264585   6.282   6.091   2.136  0.2857 -0.3602 -0.2010
14365TIP3    H164586   6.193   6.126   2.126  0.6565  0.5078 -0.6121
14365TIP3    H264587   6.326   6.116   2.054  0.3661 -2.4650 -0.8570
14366TIP3   OH264588   5.167   1.597  13.283 -0.3930  0.1506  0.3686
14366TIP3    H164589   5.203   1.587  13.371  1.4539 -0.1909 -0.3811
14366TIP3    H264590   5.152   1.692  13.274  2.8607  0.7421 -0.1383
14367TIP3   OH264591   5.975   3.832  17.290 -0.0324  0.5904 -0.1426
14367TIP3    H164592   5.955   3.924  17.306 -0.8656  0.2312  0.9723
14367TIP3    H264593   6.066   3.821  17.318  0.3137  1.2294 -0.9846
14368TIP3   OH264594   1.613   4.676   3.217 -0.1160 -0.1121 -0.1190
14368TIP3    H164595   1.600   4.585   3.244  1.7140  0.1252  1.8607
14368TIP3    H264596   1.550   4.689   3.146 -2.1605 -2.1735  1.1545
14369TIP3   OH264597   6.505   3.856   1.155  0.0505 -0.9891  0.2860
14369TIP3    H164598   6.500   3.802   1.076  0.6700 -0.4502 -0.1345
14369TIP3    H264599   6.596   3.845   1.185 -0.5512 -2.3454  1.7703
14370TIP3   OH264600   2.563   4.156   3.343 -0.0077  0.2428 -0.2372
14370TIP3    H164601   2.605   4.242   3.336 -0.8307  0.6047 -1.0121
14370TIP3    H264602   2.570   4.133   3.436 -1.4137  2.0199  0.3641
14371TIP3   OH264603   3.052   5.852   3.868 -0.3954 -0.5738  0.6045
14371TIP3    H164604   3.058   5.904   3.949 -1.8649 -0.5992  0.7593
14371TIP3    H264605   3.026   5.915   3.801  0.7182 -0.5747  0.1530
14372TIP3   OH264606   3.657   5.713   3.336 -0.2896 -0.2932  0.4446
14372TIP3    H164607   3.583   5.749   3.287  1.3378 -2.2543 -3.9941
14372TIP3    H264608   3.646   5.618   3.329  1.5131 -0.6290  1.5154
14373TIP3   OH264609   6.309   1.115   1.597 -0.3927 -0.0472  0.6369
14373TIP3    H164610   6.385   1.149   1.551 -3.0068  1.7358 -2.8550
14373TIP3    H264611   6.337   1.107   1.688  4.1432 -0.4463 -0.5809
14374TIP3   OH264612   5.289   2.455  13.174  0.5786  0.2430  0.1908
14374TIP3    H164613   5.373   2.414  13.156 -0.0059 -0.4064 -1.1938
14374TIP3    H264614   5.255   2.479  13.088 -1.7471 -1.7577  0.4537
14375TIP3   OH264615   4.389   1.182  12.897 -0.5891 -0.4323  0.8496
14375TIP3    H164616   4.379   1.095  12.935  1.4319 -1.7396 -1.2695
14375TIP3    H264617   4.478   1.209  12.921 -0.2251 -0.1667 -0.6733
14376TIP3   OH264618   2.769   6.680   3.145  0.3329 -0.3873  0.3621
14376TIP3    H164619   2.732   6.592   3.132 -1.3237 -0.1171  2.7153
14376TIP3    H264620   2.823   6.672   3.224  0.6526  0.5837  0.2568
14377TIP3   OH264621   2.683   2.920  11.413  0.2641  0.3551 -0.0885
14377TIP3    H164622   2.616   2.989  11.412 -0.9347 -0.7655  0.0148
14377TIP3    H264623   2.638   2.843  11.448  1.4785 -0.5759 -0.5005
14378TIP3   OH264624   1.943   1.326  12.233 -0.4871  0.1406 -0.8077
14378TIP3    H164625   1.850   1.317  12.210 -0.3115  0.7627 -1.8244
14378TIP3    H264626   1.943   1.337  12.328 -1.3550 -1.0856 -0.6381
14379TIP3   OH264627   5.947   5.656  13.104 -0.1821 -0.1195  0.1161
14379TIP3    H164628   5.992   5.586  13.057  1.8130 -0.5986  2.4852
14379TIP3    H264629   6.012   5.688  13.167 -2.7889 -0.1201  3.1073
14380TIP3   OH264630   1.059   6.066  17.132 -0.6513 -0.4621  0.3685
14380TIP3    H164631   0.996   6.010  17.086 -0.6684  0.8429 -1.2913
14380TIP3    H264632   1.139   6.059  17.080  0.3779 -1.4985  2.0254
14381TIP3   OH264633   6.455   5.558  14.432 -0.3603  0.6644 -0.0629
14381TIP3    H164634   6.374   5.609  14.432 -0.7890  0.0362  1.0494
14381TIP3    H264635   6.486   5.563  14.523  1.4391  1.7818 -0.6904
14382TIP3   OH264636   4.072   0.257  16.245 -0.9449  0.3380  0.3801
14382TIP3    H164637   4.090   0.295  16.159 -1.7271  2.1547  0.9699
14382TIP3    H264638   4.029   0.327  16.293 -0.8506 -0.7657  2.1444
14383TIP3   OH264639   5.880   3.692  14.340 -0.1218  0.6033 -0.0866
14383TIP3    H164640   5.941   3.763  14.354  0.0875  0.8802 -2.1181
14383TIP3    H264641   5.793   3.732  14.352  0.0270  0.9316 -0.1036
14384TIP3   OH264642   2.629   4.603   2.351 -0.3753 -0.3629 -0.0793
14384TIP3    H164643   2.604   4.510   2.350 -1.3740 -0.1596  1.7771
14384TIP3    H264644   2.713   4.605   2.398  0.3642 -0.4463 -1.3567
14385TIP3   OH264645   0.493   0.699   3.011 -0.4349  0.0042 -0.3565
14385TIP3    H164646   0.437   0.757   3.063  0.2539 -0.8045  1.3681
14385TIP3    H264647   0.449   0.614   3.014  0.6937 -0.5707  0.7824
14386TIP3   OH264648   2.576   2.748  11.599 -0.8928 -0.4743 -0.2921
14386TIP3    H164649   2.562   2.770  11.691 -1.3877 -2.8655  0.2589
14386TIP3    H264650   2.600   2.655  11.599  0.0208 -0.3130 -2.5152
14387TIP3   OH264651   1.440   3.832  13.057 -0.1412 -0.0426 -0.4057
14387TIP3    H164652   1.476   3.834  12.968 -0.6268 -2.7576 -0.7514
14387TIP3    H264653   1.380   3.757  13.057  0.7468 -0.9030  2.5178
14388TIP3   OH264654   2.484   1.104   1.474  0.0985 -0.2498  0.0452
14388TIP3    H164655   2.403   1.060   1.500 -1.5064  0.8374 -2.7534
14388TIP3    H264656   2.463   1.197   1.475  0.6641 -0.0333 -2.5273
14389TIP3   OH264657   4.285   5.596   6.146  0.3071  0.1051 -0.3776
14389TIP3    H164658   4.234   5.656   6.092 -0.4488  0.4550  0.6790
14389TIP3    H264659   4.332   5.541   6.084 -0.5973  0.4331 -1.3736
14390TIP3   OH264660   0.498   2.993   2.222  0.2381 -0.6402  0.2809
14390TIP3    H164661   0.521   2.958   2.308 -0.3979 -0.0476  0.7002
14390TIP3    H264662   0.484   2.915   2.167 -0.7441 -1.0632  1.0900
14391TIP3   OH264663   4.007   0.769   0.295 -0.2094  0.2631 -1.1517
14391TIP3    H164664   3.941   0.747   0.361  1.0026 -1.4637 -0.4653
14391TIP3    H264665   4.064   0.832   0.339  1.5934 -2.1502  0.1431
14392TIP3   OH264666   5.989   5.319  12.956  0.3996 -0.8993  0.1018
14392TIP3    H164667   5.966   5.388  12.894  1.0850 -1.1842 -0.4853
14392TIP3    H264668   6.039   5.256  12.904 -0.5711 -2.0534  0.5159
14393TIP3   OH264669   1.922   1.239   3.615  0.4484  0.4064 -0.4282
14393TIP3    H164670   2.011   1.210   3.639 -0.6739 -2.1454  1.0274
14393TIP3    H264671   1.893   1.177   3.548 -1.2225 -0.6323  1.1618
14394TIP3   OH264672   4.044   1.273   2.522  0.0436 -0.5759  0.1269
14394TIP3    H164673   4.058   1.203   2.459  0.2804 -1.3119  0.9848
14394TIP3    H264674   4.055   1.354   2.470  2.0890 -1.1394 -0.4014
14395TIP3   OH264675   2.251   4.782   3.503 -0.2346 -0.2720  0.0338
14395TIP3    H164676   2.236   4.858   3.448 -0.9368 -1.2129 -1.1039
14395TIP3    H264677   2.165   4.761   3.540  0.2652  0.5239  1.7852
14396TIP3   OH264678   0.968   6.347   5.857  0.8700  0.2257  0.2110
14396TIP3    H164679   0.906   6.359   5.929  0.2615  1.3469 -0.4649
14396TIP3    H264680   1.054   6.350   5.898  0.5279  0.8203  0.9071
14397TIP3   OH264681   3.165   6.532  15.526  0.3878 -0.1904 -0.2721
14397TIP3    H164682   3.222   6.469  15.571  1.0440  0.2754 -0.4362
14397TIP3    H264683   3.175   6.612  15.577 -3.1363 -1.0505  2.0919
14398TIP3   OH264684   3.654   5.248  15.038 -0.6712 -0.6351 -0.3084
14398TIP3    H164685   3.569   5.293  15.037  1.9789  5.3276  0.9773
14398TIP3    H264686   3.660   5.213  15.126 -1.4176 -0.1904 -0.0640
14399TIP3   OH264687   4.470   6.538  16.615  0.5867  0.4581 -0.1113
14399TIP3    H164688   4.466   6.519  16.521  0.8240  0.1103 -0.0517
14399TIP3    H264689   4.412   6.613  16.626  1.8713  1.6194 -0.8313
14400TIP3   OH264690   2.018   3.641   4.875  0.1263  0.2742  0.1526
14400TIP3    H164691   1.960   3.644   4.798 -1.4602 -1.8843  1.1589
14400TIP3    H264692   1.979   3.703   4.937  1.2251  1.7765 -0.5964
14401TIP3   OH264693   5.339   6.396   3.132  0.3554 -0.3733 -0.1568
14401TIP3    H164694   5.411   6.431   3.185  1.3857 -1.0786 -1.0399
14401TIP3    H264695   5.349   6.301   3.137 -1.0789 -0.5246  0.4227
14402TIP3   OH264696   4.511   5.821  16.642  0.4374 -0.1930  0.2395
14402TIP3    H164697   4.588   5.869  16.612 -1.5361  1.4807 -2.7164
14402TIP3    H264698   4.526   5.731  16.614  1.0549  0.2668 -0.9644
14403TIP3   OH264699   5.245   0.223   2.650  0.1583  0.5017 -0.3739
14403TIP3    H164700   5.324   0.171   2.635 -0.6374 -0.6044 -0.9230
14403TIP3    H264701   5.178   0.158   2.670 -0.7025  1.3895 -0.2973
14404TIP3   OH264702   3.941   3.951  13.788 -0.4307  0.0915  0.3512
14404TIP3    H164703   3.996   4.002  13.848 -1.0019  0.8586  0.2397
14404TIP3    H264704   3.999   3.928  13.716  0.1454 -0.4586  0.9712
14405TIP3   OH264705   2.317   6.132   1.048  0.0670  0.5278  0.0615
14405TIP3    H164706   2.352   6.048   1.021 -2.4759 -0.1101 -1.5964
14405TIP3    H264707   2.225   6.114   1.069 -1.1968  3.1660 -2.4603
14406TIP3   OH264708   3.363   0.191   2.925 -0.0017 -0.0543  0.3226
14406TIP3    H164709   3.323   0.172   2.840 -2.0696  0.8701  1.0057
14406TIP3    H264710   3.365   0.106   2.970  0.2604 -0.3861 -0.3017
14407TIP3   OH264711   2.628   0.641  13.770  0.3068 -0.0781  0.0551
14407TIP3    H164712   2.692   0.709  13.792 -0.2954 -0.0681  1.9694
14407TIP3    H264713   2.667   0.560  13.804  0.4010 -0.5002 -1.0043
14408TIP3   OH264714   5.649   0.440  12.662 -0.2975 -0.2289 -0.2692
14408TIP3    H164715   5.720   0.378  12.677 -0.0047  0.3605  0.9451
14408TIP3    H264716   5.683   0.524  12.694 -1.1865  0.2684 -0.5682
14409TIP3   OH264717   3.410   4.542   1.491  0.4056  0.5375 -0.3470
14409TIP3    H164718   3.412   4.480   1.419 -0.3859  0.3681 -0.2269
14409TIP3    H264719   3.493   4.590   1.483 -0.4923  1.9012 -2.5739
14410TIP3   OH264720   2.373   6.614  11.636  0.3284  0.0201 -0.1505
14410TIP3    H164721   2.401   6.524  11.621  0.4835  0.1517 -0.6753
14410TIP3    H264722   2.327   6.612  11.720  1.5080 -0.2891  0.5048
14411TIP3   OH264723   0.969   1.337   6.219  0.3222  0.7812 -0.6383
14411TIP3    H164724   1.054   1.309   6.184  0.2701  1.3074 -1.2060
14411TIP3    H264725   0.992   1.386   6.298  0.3738 -1.3783  0.7744
14412TIP3   OH264726   6.645   5.234  11.142 -0.1873 -0.3203  0.0593
14412TIP3    H164727   6.589   5.156  11.139 -2.6458  1.2342  1.5703
14412TIP3    H264728   6.713   5.211  11.205 -0.4462 -1.4943 -0.0509
14413TIP3   OH264729   2.192   6.286  11.354 -0.3911  0.0743 -0.3358
14413TIP3    H164730   2.167   6.305  11.444 -0.9262  2.1396 -0.8606
14413TIP3    H264731   2.228   6.368  11.321  3.2717 -1.5645 -0.9663
14414TIP3   OH264732   2.040   3.487  13.870  0.0629  0.3414 -0.1098
14414TIP3    H164733   2.131   3.469  13.849 -0.1880 -1.5339  0.2536
14414TIP3    H264734   2.033   3.474  13.964 -0.7951 -0.7336 -0.2911
14415TIP3   OH264735   2.888   5.179  15.108 -0.0468  0.3267  0.2214
14415TIP3    H164736   2.846   5.131  15.179 -0.1138 -0.6403 -0.4607
14415TIP3    H264737   2.957   5.121  15.078  1.5689  1.7372  1.0686
14416TIP3   OH264738   4.161   3.549   1.056 -0.5494  0.0368  0.2137
14416TIP3    H164739   4.156   3.456   1.074 -0.5445 -0.3510 -1.6541
14416TIP3    H264740   4.226   3.582   1.118 -0.8595 -1.1066  1.1655
14417TIP3   OH264741   4.866   4.598   3.143  0.0719 -0.6022  0.2501
14417TIP3    H164742   4.788   4.620   3.194  1.1179 -0.5447  1.9085
14417TIP3    H264743   4.907   4.527   3.192  1.2183 -0.4226 -0.4162
14418TIP3   OH264744   1.616   1.452  10.718  0.0294 -0.1407  0.0630
14418TIP3    H164745   1.555   1.378  10.720  0.1147 -0.2093  0.1239
14418TIP3    H264746   1.668   1.438  10.639 -0.2410  0.0845 -0.1558
14419TIP3   OH264747   6.381   3.882   3.649  0.0977  0.0005 -0.0228
14419TIP3    H164748   6.341   3.876   3.562 -1.2031  0.0631  0.5489
14419TIP3    H264749   6.317   3.843   3.707  1.1563 -0.4781  0.8690
14420TIP3   OH264750   6.764   1.586  16.274  0.2299 -0.2302  0.7149
14420TIP3    H164751   6.849   1.543  16.281 -0.5309 -1.6258  1.9238
14420TIP3    H264752   6.736   1.568  16.184  1.0908  0.0757  0.3663
14421TIP3   OH264753   2.830   4.001  13.044  0.7693  0.1834  0.0838
14421TIP3    H164754   2.790   3.960  13.121  1.4144  0.8467  0.7813
14421TIP3    H264755   2.916   4.029  13.074  0.5679  1.5125 -0.5423
14422TIP3   OH264756   0.052   5.991  12.974 -0.2182 -0.1414 -0.2991
14422TIP3    H164757   0.018   5.902  12.977 -0.2310 -0.1139  0.9185
14422TIP3    H264758   0.144   5.983  13.001 -0.3298  0.2573  0.2129
14423TIP3   OH264759   2.450   6.092   2.815  0.1110 -0.4057 -0.3393
14423TIP3    H164760   2.469   5.999   2.802 -4.2237 -1.4665 -0.6727
14423TIP3    H264761   2.464   6.106   2.909  1.4351 -1.1352 -0.3993
14424TIP3   OH264762   2.706   5.354  14.531 -0.4837 -0.4477  0.3295
14424TIP3    H164763   2.730   5.384  14.618 -0.9042 -0.5607  0.4910
14424TIP3    H264764   2.669   5.431  14.488  2.1648  0.3181 -0.7192
14425TIP3   OH264765   4.343   4.805   5.047 -0.2215 -0.0352  0.1221
14425TIP3    H164766   4.267   4.861   5.033  2.0521  2.7118 -2.6401
14425TIP3    H264767   4.361   4.812   5.140 -2.2008  0.7477  0.4974
14426TIP3   OH264768   3.615   3.400   4.210  0.0652  0.0959 -0.0723
14426TIP3    H164769   3.534   3.352   4.232  0.2741 -0.5934 -0.7480
14426TIP3    H264770   3.668   3.395   4.290  0.7849 -2.2931 -0.5963
14427TIP3   OH264771   6.398   6.604   0.926 -0.6467 -0.0653  0.3743
14427TIP3    H164772   6.466   6.539   0.909 -0.9926 -0.5636  0.8565
14427TIP3    H264773   6.445   6.679   0.964 -0.4111 -0.5473  1.0498
14428TIP3   OH264774   0.097   6.282  11.258  0.2363 -0.3519 -0.7894
14428TIP3    H164775   0.154   6.285  11.181  0.3141 -0.2067 -0.7283
14428TIP3    H264776   0.069   6.191  11.265  1.4780 -0.7094 -0.0909
14429TIP3   OH264777   4.799   3.113   5.511 -0.0943 -0.2599 -0.1827
14429TIP3    H164778   4.844   3.190   5.474 -0.2793 -1.5903 -3.5820
14429TIP3    H264779   4.766   3.143   5.595  2.2169  2.5131 -0.0956
14430TIP3   OH264780   4.178   2.732  16.386 -0.2047  0.4439  0.4626
14430TIP3    H164781   4.138   2.801  16.333  0.0927  0.4011  0.1769
14430TIP3    H264782   4.244   2.777  16.439  0.0402  0.3724  0.2232
14431TIP3   OH264783   5.311   6.480  11.731 -0.1518  0.3142 -0.2883
14431TIP3    H164784   5.373   6.434  11.674  1.1601 -0.2044  1.4931
14431TIP3    H264785   5.358   6.559  11.759  0.8737 -1.3496  3.1707
14432TIP3   OH264786   0.702   1.863  12.963 -0.4457  0.0691 -0.2629
14432TIP3    H164787   0.711   1.957  12.951 -1.3814  0.0692 -1.0873
14432TIP3    H264788   0.701   1.828  12.873 -0.3646 -0.6994  0.0307
14433TIP3   OH264789   6.563   2.552   1.841 -0.8634 -0.3956  0.3434
14433TIP3    H164790   6.606   2.492   1.903 -1.2309 -1.2157 -0.1867
14433TIP3    H264791   6.629   2.620   1.825 -0.0641 -1.1919  0.1850
14434TIP3   OH264792   0.071   5.679  11.250  0.0609 -0.6964  0.6939
14434TIP3    H164793  -0.007   5.623  11.252 -2.1221  2.1172  1.2228
14434TIP3    H264794   0.096   5.681  11.157 -2.6740  0.9369 -0.1349
14435TIP3   OH264795   2.257   3.391   2.454 -0.4406  0.0684 -0.0370
14435TIP3    H164796   2.329   3.424   2.399 -0.1569  0.4617  0.5558
14435TIP3    H264797   2.291   3.397   2.544 -1.3480  0.6259  0.2893
14436TIP3   OH264798   4.214   6.568  13.674  0.2294 -0.3486  0.5168
14436TIP3    H164799   4.156   6.645  13.679 -0.7621 -1.1037  1.0097
14436TIP3    H264800   4.155   6.493  13.685  1.2855 -1.1524  0.8377
14437TIP3   OH264801   6.290   3.264  16.327 -0.1950  0.0312  0.0272
14437TIP3    H164802   6.207   3.301  16.358 -1.3667 -2.5978  0.2384
14437TIP3    H264803   6.277   3.254  16.232 -0.4500 -1.1081  0.1725
14438TIP3   OH264804   5.433   4.135  16.007  0.2296 -0.4064  0.1922
14438TIP3    H164805   5.410   4.174  15.922 -0.2862 -2.4889 -0.6732
14438TIP3    H264806   5.510   4.082  15.989 -0.4269 -1.5989  0.8016
14439TIP3   OH264807   1.601   2.651   5.784  0.2347 -0.0311  0.0120
14439TIP3    H164808   1.532   2.710   5.756  0.2766 -0.3872 -0.8772
14439TIP3    H264809   1.668   2.708   5.823 -0.3644  0.3524  0.4842
14440TIP3   OH264810   2.503   5.179  12.923  0.0658 -0.1852 -0.2904
14440TIP3    H164811   2.506   5.271  12.898  0.1677 -0.0534  0.2026
14440TIP3    H264812   2.435   5.142  12.867 -0.2540  0.2762 -0.2149
14441TIP3   OH264813   0.200   2.614  14.227  0.0096  1.0433  0.3012
14441TIP3    H164814   0.195   2.543  14.291  0.9863  0.7350  0.0582
14441TIP3    H264815   0.282   2.659  14.247  0.6299  0.5980 -1.0619
14442TIP3   OH264816   4.267   4.334  11.480  0.2625 -0.1215  0.0301
14442TIP3    H164817   4.267   4.397  11.408 -0.9915  0.9943  0.9852
14442TIP3    H264818   4.250   4.250  11.437 -0.0527  0.4575 -1.0274
14443TIP3   OH264819   5.148   4.576  15.199  0.1097  0.0973 -0.5393
14443TIP3    H164820   5.160   4.528  15.281  0.0401  0.4537 -0.3183
14443TIP3    H264821   5.058   4.609  15.204  0.8090  2.0640  0.2975
14444TIP3   OH264822   1.154   4.860   1.720 -0.5313  0.0435  0.3649
14444TIP3    H164823   1.110   4.780   1.693  0.5635 -0.6892  0.6654
14444TIP3    H264824   1.175   4.846   1.812  3.7581 -1.4039 -0.5764
14445TIP3   OH264825   3.071   5.526   6.669 -0.0936 -0.5303 -0.2078
14445TIP3    H164826   3.028   5.445   6.697  0.7173 -0.6528  0.7450
14445TIP3    H264827   3.031   5.594   6.722 -1.7389 -0.0541 -1.9431
14446TIP3   OH264828   4.294   0.986   1.665 -0.1474 -0.5242 -0.3550
14446TIP3    H164829   4.247   1.049   1.610 -0.7304 -0.4187  0.2549
14446TIP3    H264830   4.226   0.927   1.697  0.2019 -0.6346  0.1882
14447TIP3   OH264831   6.086   0.579   5.251  0.1634 -0.0683  0.0069
14447TIP3    H164832   6.038   0.507   5.293  0.2869  0.5139  1.1628
14447TIP3    H264833   6.163   0.592   5.306 -1.4755  3.1120  1.7887
14448TIP3   OH264834   2.370   4.215  12.211 -0.1519 -0.0200 -0.0955
14448TIP3    H164835   2.297   4.224  12.272 -0.2242  0.3523 -0.2341
14448TIP3    H264836   2.446   4.248  12.259  0.4492 -2.7524  0.9888
14449TIP3   OH264837   4.557   5.345  17.181 -0.8683  0.5668 -0.0676
14449TIP3    H164838   4.483   5.387  17.224 -0.2442 -0.1225  1.7473
14449TIP3    H264839   4.632   5.401  17.200 -0.5772  0.2448 -0.2417
14450TIP3   OH264840   5.071   1.165  17.115 -0.1243  0.0407  0.4036
14450TIP3    H164841   4.999   1.144  17.055 -0.8487  0.8321  0.9658
14450TIP3    H264842   5.030   1.218  17.184  0.9260  0.1790  0.9447
14451TIP3   OH264843   3.276   5.454   3.270  0.1462  0.0368  0.3452
14451TIP3    H164844   3.363   5.413   3.275 -0.3297 -1.1136 -0.3957
14451TIP3    H264845   3.274   5.515   3.344  0.9244 -1.2202  1.4530
14452TIP3   OH264846   0.517   2.883   3.067  0.0389  0.2930  0.1695
14452TIP3    H164847   0.601   2.862   3.107 -0.1717  2.9639  2.3858
14452TIP3    H264848   0.508   2.822   2.994  2.2316 -2.4600  1.9972
14453TIP3   OH264849   1.869   0.848  11.924  0.0225  0.2566 -0.2376
14453TIP3    H164850   1.798   0.793  11.957  1.1092 -0.2557  1.3261
14453TIP3    H264851   1.892   0.809  11.839 -0.1656 -0.8677  0.2116
14454TIP3   OH264852   1.987   5.951  11.796 -0.1722 -0.4221 -0.4708
14454TIP3    H164853   2.066   5.951  11.741 -0.4789  0.8017 -0.9651
14454TIP3    H264854   1.951   6.039  11.784  0.0714  0.1073  2.1880
14455TIP3   OH264855   3.746   3.665   3.149 -0.2872  0.1464 -0.1132
14455TIP3    H164856   3.740   3.687   3.056 -0.2464 -0.3007 -0.2237
14455TIP3    H264857   3.840   3.664   3.167 -0.2908  0.1126 -0.0973
14456TIP3   OH264858   4.007   0.620  12.631 -0.3747  0.3917 -0.0113
14456TIP3    H164859   4.024   0.616  12.725 -0.1141 -0.9701 -0.0878
14456TIP3    H264860   3.947   0.693  12.620 -0.2891  0.6565  1.1991
14457TIP3   OH264861   6.586   2.701   5.250  0.7163 -0.2171 -0.7646
14457TIP3    H164862   6.594   2.727   5.341  2.0732 -0.8993 -0.6536
14457TIP3    H264863   6.523   2.762   5.212  0.2260  0.1479  0.5868
14458TIP3   OH264864   2.248   4.141   5.359  0.5408 -0.4073  0.4672
14458TIP3    H164865   2.313   4.206   5.332  1.2617 -0.5804  1.7349
14458TIP3    H264866   2.285   4.100   5.437 -0.7898 -0.9834  0.8282
14459TIP3   OH264867   3.902   1.847   6.536  0.1326 -0.1522  0.1279
14459TIP3    H164868   3.968   1.849   6.606  0.4075  1.3991 -0.1253
14459TIP3    H264869   3.952   1.855   6.455 -0.3716  3.5311  0.0158
14460TIP3   OH264870   2.765   6.138   0.132 -0.7163  0.4817 -0.3103
14460TIP3    H164871   2.760   6.071   0.200  1.0287 -0.9125 -1.4698
14460TIP3    H264872   2.828   6.104   0.069 -2.2640  1.6974 -2.6732
14461TIP3   OH264873   5.413   0.066  15.315 -0.3379  0.0452 -0.1279
14461TIP3    H164874   5.409   0.087  15.222 -3.4088 -0.9084 -0.3057
14461TIP3    H264875   5.406  -0.029  15.319 -3.6895  0.2147  1.0635
14462TIP3   OH264876   1.766   5.015   1.484 -0.0915  0.3280  0.1163
14462TIP3    H164877   1.828   4.953   1.521 -0.4162 -0.5268 -0.7165
14462TIP3    H264878   1.801   5.034   1.396  0.1206  1.5077  0.4383
14463TIP3   OH264879   0.380   4.562  17.207 -0.4346 -0.1598 -0.0614
14463TIP3    H164880   0.352   4.613  17.131  0.8582 -0.0999 -0.5302
14463TIP3    H264881   0.406   4.628  17.272  3.2609 -0.0278 -1.4127
14464TIP3   OH264882   1.189   3.761   3.689  0.3257 -0.6823  0.5961
14464TIP3    H164883   1.147   3.828   3.635  1.5657  0.2794  0.7617
14464TIP3    H264884   1.216   3.694   3.627 -0.2674 -0.6698  0.3220
14465TIP3   OH264885   4.795   2.163  12.256  0.0738 -0.1391  0.5083
14465TIP3    H164886   4.805   2.197  12.345  0.7398 -0.1018  0.4273
14465TIP3    H264887   4.739   2.086  12.266 -0.7671  0.4964  0.8034
14466TIP3   OH264888   1.829   6.423   4.276  0.0206 -0.2182 -0.0918
14466TIP3    H164889   1.821   6.516   4.298 -0.6475 -0.3162  0.0770
14466TIP3    H264890   1.843   6.422   4.182 -2.0218 -0.0343 -0.4360
14467TIP3   OH264891   3.473   0.791   0.409  0.2504  0.3859 -0.3083
14467TIP3    H164892   3.456   0.715   0.353  0.9832 -0.1659  0.2031
14467TIP3    H264893   3.472   0.756   0.498 -0.6063  1.2024  0.0244
14468TIP3   OH264894   2.538   2.378   4.345 -0.0827 -0.3828  0.2550
14468TIP3    H164895   2.462   2.326   4.318  0.3639 -1.0010  0.1621
14468TIP3    H264896   2.505   2.433   4.416 -1.3720  1.4772 -1.6350
14469TIP3   OH264897   4.900   5.848  15.657  0.1513 -0.3692 -0.6998
14469TIP3    H164898   4.924   5.940  15.640 -0.4542 -0.2850 -1.1470
14469TIP3    H264899   4.842   5.852  15.733 -0.8608 -0.2284 -1.4477
14470TIP3   OH264900   6.809   6.653  14.526  0.2208 -0.1786  0.4574
14470TIP3    H164901   6.742   6.601  14.571  0.8080 -2.7830 -1.4663
14470TIP3    H264902   6.888   6.600  14.531  1.2239  1.1475 -0.4833
14471TIP3   OH264903   6.472   1.101   6.953 -0.0391  0.1002  0.1360
14471TIP3    H164904   6.564   1.115   6.930 -0.1501  1.8445  0.5685
14471TIP3    H264905   6.428   1.181   6.922 -0.8540  0.7552  2.7238
14472TIP3   OH264906   4.240   4.525  11.791  0.3633 -0.0630 -0.7318
14472TIP3    H164907   4.286   4.577  11.856 -0.4348  0.2150 -0.3777
14472TIP3    H264908   4.170   4.481  11.840 -1.7375  1.9433 -1.7052
14473TIP3   OH264909   6.178   0.061  12.123 -0.3045  0.5185  0.4813
14473TIP3    H164910   6.175  -0.028  12.086 -0.1704  1.2763 -1.4633
14473TIP3    H264911   6.087   0.081  12.143 -1.0464  1.4343 -3.0545
14474TIP3   OH264912   3.120   3.683   4.973 -0.2300  0.2549  0.2062
14474TIP3    H164913   3.135   3.684   5.068 -1.3759 -0.3345  0.4164
14474TIP3    H264914   3.043   3.739   4.961  1.5930  2.6828 -0.7444
14475TIP3   OH264915   1.703   0.763   2.078 -0.3819  0.0236 -0.0601
14475TIP3    H164916   1.641   0.745   2.148 -0.6944  0.6304 -0.1727
14475TIP3    H264917   1.650   0.802   2.008  0.6163  4.3478  1.3172
14476TIP3   OH264918   2.359   5.204   4.531 -0.5125 -0.2771  0.2261
14476TIP3    H164919   2.415   5.204   4.609 -0.3788 -0.6312  0.1301
14476TIP3    H264920   2.418   5.190   4.458 -0.6225  0.1866  0.0411
14477TIP3   OH264921   0.908   2.286  14.526  0.0178 -0.1852  0.3196
14477TIP3    H164922   0.948   2.208  14.488  0.1384  0.3951 -0.7860
14477TIP3    H264923   0.816   2.282  14.497  0.3471  0.7906 -0.9536
14478TIP3   OH264924   1.690   3.965  14.176  0.3458  0.3569  0.3564
14478TIP3    H164925   1.709   3.898  14.110 -1.8795 -0.9887  0.9765
14478TIP3    H264926   1.653   4.038  14.126 -0.5552 -0.3203  0.0109
14479TIP3   OH264927   0.600   5.757  17.044  0.4273 -0.0872  0.2927
14479TIP3    H164928   0.676   5.814  17.032 -0.2965  0.7225 -0.6643
14479TIP3    H264929   0.542   5.779  16.971  0.2277 -2.2745 -0.2857
14480TIP3   OH264930   5.570   3.899  12.603  0.0392  0.2305  0.5774
14480TIP3    H164931   5.659   3.863  12.600 -0.1430 -0.1657 -0.8811
14480TIP3    H264932   5.582   3.988  12.638  0.7961 -0.3495  1.8736
14481TIP3   OH264933   5.196   2.245  14.863  0.2631  0.0161  0.2021
14481TIP3    H164934   5.123   2.183  14.868  0.1351  0.2215  0.9201
14481TIP3    H264935   5.158   2.323  14.823  0.2577 -0.1106 -0.0475
14482TIP3   OH264936   6.659   3.248   3.036  0.2999 -0.2574 -0.3386
14482TIP3    H164937   6.686   3.248   2.945 -0.6625 -2.3278 -0.6675
14482TIP3    H264938   6.732   3.290   3.082  1.1211  0.1668 -1.9485
14483TIP3   OH264939   6.261   5.346   2.646 -0.0555 -0.5136  0.0926
14483TIP3    H164940   6.221   5.260   2.637 -1.2128 -0.0159  0.2530
14483TIP3    H264941   6.312   5.357   2.566 -3.2277  0.3098 -2.0218
14484TIP3   OH264942   2.893   0.152   3.336 -0.4468 -0.6456  0.4319
14484TIP3    H164943   2.976   0.105   3.330 -0.2290 -0.2380  0.1498
14484TIP3    H264944   2.913   0.228   3.391 -0.7070 -0.7072  0.6104
14485TIP3   OH264945   5.744   2.537   4.120 -0.3441  0.2909  0.9171
14485TIP3    H164946   5.788   2.612   4.081 -1.2888  0.1514 -0.4907
14485TIP3    H264947   5.783   2.461   4.076 -0.4813  0.0507  1.2066
14486TIP3   OH264948   3.461   4.237  16.751  0.0801 -0.0117 -0.0685
14486TIP3    H164949   3.519   4.208  16.681 -0.5671  1.0513 -1.0774
14486TIP3    H264950   3.514   4.300  16.801  0.2199 -0.0301 -0.1947
14487TIP3   OH264951   4.709   2.620  11.216 -0.0401  0.1263 -0.6972
14487TIP3    H164952   4.631   2.674  11.224  0.5128  0.7861  0.4701
14487TIP3    H264953   4.720   2.609  11.121 -2.3170 -1.1835 -0.8806
14488TIP3   OH264954   4.683   2.057  14.962  0.4569  0.1863  0.1569
14488TIP3    H164955   4.635   2.129  15.004  0.3682  0.6829 -0.7739
14488TIP3    H264956   4.615   1.994  14.939  0.1359  1.1773 -1.7366
14489TIP3   OH264957   0.879   3.818  12.950  0.7909 -0.1956 -0.1932
14489TIP3    H164958   0.890   3.846  12.859  0.5634 -1.6712 -0.7001
14489TIP3    H264959   0.955   3.854  12.995 -0.4431  2.9002 -0.3244
14490TIP3   OH264960   2.256   6.537   2.253 -0.0327  0.3276  0.4151
14490TIP3    H164961   2.339   6.566   2.216  0.2239 -1.0950 -0.1605
14490TIP3    H264962   2.192   6.553   2.184  0.1634 -0.7461 -0.0268
14491TIP3   OH264963   4.773   1.961   4.848  0.1063 -0.3426 -0.5394
14491TIP3    H164964   4.689   1.925   4.821  0.9094 -2.1379 -0.8091
14491TIP3    H264965   4.753   2.012   4.927 -1.2450 -0.5679 -0.7099
14492TIP3   OH264966   1.713   0.252   5.718 -0.0953  0.1226 -0.3347
14492TIP3    H164967   1.699   0.221   5.807 -0.6160 -1.0085 -0.7913
14492TIP3    H264968   1.652   0.201   5.665  0.4390  0.5444 -1.3826
14493TIP3   OH264969   3.649   0.443   0.122  0.0178 -0.6622  0.3669
14493TIP3    H164970   3.658   0.377   0.053 -0.6406 -0.5353  0.1543
14493TIP3    H264971   3.728   0.497   0.113 -0.2762 -0.3665 -0.5988
14494TIP3   OH264972   5.325   1.368  11.167 -0.2886  0.1043 -0.0027
14494TIP3    H164973   5.367   1.287  11.196 -0.5271 -0.0056  0.0391
14494TIP3    H264974   5.267   1.392  11.239 -1.4476 -0.5688 -0.6725
14495TIP3   OH264975   6.532   6.108  14.040  0.1814 -0.3692 -0.3745
14495TIP3    H164976   6.561   6.106  14.131  2.0173  2.2548 -0.7891
14495TIP3    H264977   6.591   6.048  13.995 -1.6148 -2.7727  0.2666
14496TIP3   OH264978   5.791   4.114   1.984 -0.2371  0.0206  0.5713
14496TIP3    H164979   5.696   4.124   1.993 -0.1811  1.1122  0.0305
14496TIP3    H264980   5.803   4.070   1.900 -0.2825 -0.5310  0.8522
14497TIP3   OH264981   4.830   4.196  12.209 -0.7030 -0.1071 -0.2873
14497TIP3    H164982   4.739   4.189  12.180 -1.1622  1.0573  0.7752
14497TIP3    H264983   4.874   4.124  12.166 -2.2735 -1.1323 -0.2778
14498TIP3   OH264984   3.325   1.268  15.626  0.1200  0.0418  0.4903
14498TIP3    H164985   3.395   1.326  15.657  0.4890 -0.1100 -0.0438
14498TIP3    H264986   3.324   1.196  15.690  2.0409 -1.1647 -0.7351
14499TIP3   OH264987   1.832   6.412   1.121  0.2671 -0.2448  0.1880
14499TIP3    H164988   1.859   6.449   1.205  3.0365 -1.1423 -0.2135
14499TIP3    H264989   1.786   6.484   1.077 -0.6786  0.4432  2.1480
14500TIP3   OH264990   0.876   6.546   1.305 -0.2123  0.0351  0.0423
14500TIP3    H164991   0.859   6.486   1.233  1.7653  1.3242 -1.6547
14500TIP3    H264992   0.972   6.554   1.307 -0.2696  0.8223  2.1717
14501TIP3   OH264993   1.384   3.359  15.823  0.3385 -0.3505 -0.2163
14501TIP3    H164994   1.332   3.420  15.771  0.6386  0.6942  0.6666
14501TIP3    H264995   1.378   3.276  15.776 -1.5245 -0.0860 -0.5200
14502TIP3   OH264996   0.669   2.562   5.975  0.0628 -0.6344 -0.3862
14502TIP3    H164997   0.744   2.516   5.938 -0.2783 -1.7358  0.2671
14502TIP3    H264998   0.685   2.561   6.070 -0.3142 -0.0336 -0.3116
14503TIP3   OH264999   4.131   4.425   1.092 -0.3164  0.1168 -0.3226
14503TIP3    H165000   4.198   4.494   1.093  0.7233 -0.8567  1.6314
14503TIP3    H265001   4.089   4.431   1.178  0.5507 -2.3450  0.3391
14504TIP3   OH265002   1.444   2.899   1.796  0.6450  0.5921  0.2689
14504TIP3    H165003   1.467   2.908   1.703 -0.6511  1.1909 -0.0160
14504TIP3    H265004   1.443   2.990   1.828  0.4850  0.4333  0.7132
14505TIP3   OH265005   6.427   2.166  10.155  0.0087 -0.0213  0.4188
14505TIP3    H165006   6.348   2.176  10.208 -0.3812  1.0897 -0.3517
14505TIP3    H265007   6.443   2.071  10.154  0.6328 -0.0484  3.3608
14506TIP3   OH265008   6.165   1.848  14.898  0.5689  0.0744  0.3341
14506TIP3    H165009   6.134   1.826  14.986  0.2843 -0.7088  0.0546
14506TIP3    H265010   6.233   1.913  14.911  0.3234  0.1822  1.1149
14507TIP3   OH265011   0.901   5.890   3.388 -0.6555 -0.3123 -0.0560
14507TIP3    H165012   0.979   5.882   3.443 -0.3652  2.5730  0.1007
14507TIP3    H265013   0.843   5.949   3.437 -1.5006  0.2460 -1.6738
14508TIP3   OH265014   0.787   3.818  11.706  0.0327 -0.2408 -0.0229
14508TIP3    H165015   0.699   3.802  11.672  0.6120  0.6034 -2.1230
14508TIP3    H265016   0.775   3.891  11.768 -0.6987  0.1108 -0.5562
14509TIP3   OH265017   3.201   5.171   1.339 -0.1334  0.0549  0.1194
14509TIP3    H165018   3.153   5.217   1.408 -0.1911  0.7274 -0.3574
14509TIP3    H265019   3.181   5.220   1.259  0.9849  0.0857 -0.1591
14510TIP3   OH265020   0.211   5.885   4.247  0.0521  0.2102  0.7817
14510TIP3    H165021   0.188   5.812   4.189  1.6342 -0.3071  0.7553
14510TIP3    H265022   0.129   5.907   4.292 -0.8656 -0.3653 -0.5427
14511TIP3   OH265023   4.361   5.778  17.214 -0.1123 -0.4118 -0.6143
14511TIP3    H165024   4.300   5.772  17.140 -0.3376 -1.4147 -0.3717
14511TIP3    H265025   4.423   5.707  17.198 -0.0247 -0.4817  0.0373
14512TIP3   OH265026   1.700   5.937   4.713  0.8184  0.5521  1.0031
14512TIP3    H165027   1.660   5.861   4.755  2.1415 -2.4960 -2.6785
14512TIP3    H265028   1.787   5.907   4.686  0.0367  1.8795 -4.0474
14513TIP3   OH265029   3.815   1.648  16.340  0.0338 -0.0252 -0.5323
14513TIP3    H165030   3.904   1.626  16.312  1.0386  1.0665  1.5572
14513TIP3    H265031   3.766   1.566  16.329  1.2127 -0.6041 -1.9163
14514TIP3   OH265032   1.717   1.202  13.057 -0.2501 -0.5481 -0.1279
14514TIP3    H165033   1.735   1.295  13.049 -1.4766 -0.3940 -1.3995
14514TIP3    H265034   1.800   1.160  13.035  0.0997  0.2186 -0.3024
14515TIP3   OH265035   4.262   2.328  14.837 -0.7299 -0.2899  0.0621
14515TIP3    H165036   4.291   2.411  14.798 -0.5433 -0.3750  0.0158
14515TIP3    H265037   4.244   2.272  14.762  0.6316 -0.7973  0.0807
14516TIP3   OH265038   3.341   5.224  16.068 -0.3620  0.3783 -0.0806
14516TIP3    H165039   3.333   5.206  16.161  0.4262 -0.4007 -0.1445
14516TIP3    H265040   3.263   5.185  16.029  0.1007 -0.7544  0.0782
14517TIP3   OH265041   2.966   2.428  10.914 -0.7760  0.0329 -0.3806
14517TIP3    H165042   2.971   2.334  10.897  1.7136  0.0356  0.0791
14517TIP3    H265043   2.874   2.450  10.897 -0.9904 -2.0815 -2.4915
14518TIP3   OH265044   2.353   3.532   2.176  0.3913  0.0575 -0.2581
14518TIP3    H165045   2.405   3.574   2.108 -0.0534 -0.0701 -0.6824
14518TIP3    H265046   2.418   3.486   2.231  0.8080  0.6880 -0.2126
14519TIP3   OH265047   4.718   6.739  16.253  0.3701  0.3793 -0.5007
14519TIP3    H165048   4.643   6.743  16.312 -1.0579  0.9065 -2.2458
14519TIP3    H265049   4.786   6.790  16.297 -0.0915 -0.5064  1.3439
14520TIP3   OH265050   4.916   6.565   1.724  0.2732 -0.2242 -0.1343
14520TIP3    H165051   4.832   6.538   1.688 -0.1489  1.5120 -0.5622
14520TIP3    H265052   4.944   6.492   1.778 -0.5272 -1.6690 -1.5980
14521TIP3   OH265053   3.296   2.386   2.341  0.5559 -0.4375 -0.2200
14521TIP3    H165054   3.359   2.445   2.300 -2.9172  3.6320 -0.5201
14521TIP3    H265055   3.306   2.303   2.295  4.7307  0.2639 -0.9571
14522TIP3   OH265056   5.807   1.759   4.672  0.5068  0.1366  0.6964
14522TIP3    H165057   5.787   1.681   4.621 -0.1325  0.5082  0.3726
14522TIP3    H265058   5.733   1.768   4.732  0.2195  0.8985  0.2391
14523TIP3   OH265059   2.460   4.853  14.139  0.1462  0.3888 -1.4731
14523TIP3    H165060   2.540   4.801  14.149 -0.7775 -1.4681 -3.0481
14523TIP3    H265061   2.446   4.892  14.225  1.0726 -1.7388 -0.2697
14524TIP3   OH265062   5.955   2.453  13.004  0.0348  0.1960  0.7318
14524TIP3    H165063   6.021   2.465  12.936 -1.2618  0.7240 -0.4973
14524TIP3    H265064   5.955   2.536  13.051 -1.6637  1.3469 -1.1031
14525TIP3   OH265065   4.061   6.160  11.370 -0.2587  0.1728  0.3686
14525TIP3    H165066   4.039   6.130  11.282 -0.5386 -0.4978  0.6535
14525TIP3    H265067   3.990   6.220  11.393  0.0889  0.7578 -0.0520
14526TIP3   OH265068   6.198   3.893  14.660  0.2028  0.1346  0.2174
14526TIP3    H165069   6.183   3.834  14.734  0.8589  1.1950  1.2194
14526TIP3    H265070   6.293   3.900  14.653  0.1388  0.5267 -0.3309
14527TIP3   OH265071   0.920   0.968   3.440  0.1061 -0.0047 -0.5785
14527TIP3    H165072   0.867   0.969   3.520  0.6503  1.4325 -0.2043
14527TIP3    H265073   0.914   1.057   3.406  0.6689 -0.3450 -1.6175
14528TIP3   OH265074   6.224   4.426  11.238 -0.1392 -0.3151 -0.5249
14528TIP3    H165075   6.282   4.487  11.193 -0.1632 -0.6985 -1.0954
14528TIP3    H265076   6.212   4.354  11.175 -0.2260 -0.8324  0.0756
14529TIP3   OH265077   5.937   6.104  11.113  0.1377 -0.1589 -0.3608
14529TIP3    H165078   6.005   6.106  11.046  1.2694 -1.8097  0.6811
14529TIP3    H265079   5.979   6.065  11.189 -2.0242 -1.4073  0.2756
14530TIP3   OH265080   4.730   6.626  12.698  0.6064 -0.3694  0.5137
14530TIP3    H165081   4.735   6.551  12.638  2.0724  0.1643 -0.0932
14530TIP3    H265082   4.775   6.597  12.777  1.6206  0.0082  0.0919
14531TIP3   OH265083   1.219   0.120   1.882 -0.0349 -0.4434  0.1165
14531TIP3    H165084   1.261   0.034   1.879  0.4292 -0.3953  2.7030
14531TIP3    H265085   1.141   0.111   1.827  1.0155 -1.9127 -1.1838
14532TIP3   OH265086   6.181   3.870   0.922 -0.0643 -0.9210  0.6369
14532TIP3    H165087   6.184   3.808   0.849 -0.8555 -0.4502  0.1780
14532TIP3    H265088   6.174   3.816   1.000  0.4529 -1.4290  0.3344
14533TIP3   OH265089   6.248   4.596  15.306  0.4309  1.2593  0.1223
14533TIP3    H165090   6.335   4.626  15.334  0.7552  0.5862 -0.1458
14533TIP3    H265091   6.255   4.501  15.302 -1.0146  0.9934  2.3247
14534TIP3   OH265092   3.091   3.487   4.799  0.0581  0.4100 -0.5919
14534TIP3    H165093   3.125   3.521   4.716 -0.3698  0.2412 -0.8388
14534TIP3    H265094   3.121   3.550   4.864  0.1302  0.7188 -0.9150
14535TIP3   OH265095   3.412   5.825  11.079  0.6896 -0.5151 -0.3070
14535TIP3    H165096   3.320   5.851  11.068  1.0797  0.9026 -0.5149
14535TIP3    H265097   3.439   5.795  10.992  0.8961  0.7776 -0.7131
14536TIP3   OH265098   6.092   0.312  16.020 -0.2168 -1.0891 -0.1207
14536TIP3    H165099   6.170   0.324  16.076 -1.1175 -0.9426  1.1488
14536TIP3    H265100   6.022   0.291  16.082 -2.0862  2.5369 -0.7475
14537TIP3   OH265101   2.225   4.306  15.308 -0.4972  0.1226 -0.3791
14537TIP3    H165102   2.281   4.355  15.369  0.8504  1.8603 -2.8121
14537TIP3    H265103   2.217   4.363  15.231  0.1141 -2.9214 -2.9485
14538TIP3   OH265104   0.934   5.046  17.037 -0.1463 -0.0119 -0.0542
14538TIP3    H165105   0.904   5.094  17.114  0.0392 -0.7808  0.5099
14538TIP3    H265106   0.878   4.969  17.034  1.4489 -1.2494  0.7653
14539TIP3   OH265107   2.937   2.479   2.262  0.3459 -0.2618 -0.3045
14539TIP3    H165108   2.880   2.403   2.253  0.7764 -0.6908  0.4549
14539TIP3    H265109   2.969   2.496   2.173 -0.4825 -0.3776 -0.6341
14540TIP3   OH265110   5.250   5.806  14.317  0.2432  0.1018 -0.3414
14540TIP3    H165111   5.300   5.725  14.304  1.7428  0.2484  3.3152
14540TIP3    H265112   5.182   5.782  14.380 -0.9667  1.1489 -1.2034
14541TIP3   OH265113   3.345   0.235  16.810 -0.2685  0.2627  0.1929
14541TIP3    H165114   3.302   0.154  16.781  0.7432 -0.7793  1.4853
14541TIP3    H265115   3.373   0.216  16.899  0.3426  1.9234  0.3791
14542TIP3   OH265116   5.732   6.627  14.174 -0.0955  0.0710  0.3021
14542TIP3    H165117   5.813   6.624  14.122 -0.3412  1.4082 -0.1970
14542TIP3    H265118   5.748   6.566  14.246  1.0419 -0.3017 -0.2384
14543TIP3   OH265119   0.776   0.327  11.803 -0.3411 -0.4223  0.3327
14543TIP3    H165120   0.711   0.264  11.769 -0.6967  0.0849  0.0620
14543TIP3    H265121   0.723   0.400  11.834  0.1598  0.9122 -1.7499
14544TIP3   OH265122   5.911   5.109   1.352 -0.3187  0.3034 -0.0266
14544TIP3    H165123   5.897   5.196   1.315  1.1724  0.3388 -0.5639
14544TIP3    H265124   5.950   5.125   1.438 -0.4145  0.1589  0.0458
14545TIP3   OH265125   6.170   4.976  11.134 -0.2865 -0.3237 -0.0410
14545TIP3    H165126   6.213   4.930  11.062  1.8937 -0.0317  0.9987
14545TIP3    H265127   6.126   5.050  11.093  1.2055  0.0325 -1.0568
14546TIP3   OH265128   5.543   1.225   1.157  0.0331 -0.6560  0.2159
14546TIP3    H165129   5.449   1.243   1.147 -0.4409 -3.2639 -0.9595
14546TIP3    H265130   5.559   1.232   1.251 -1.3908 -0.3757  0.4693
14547TIP3   OH265131   5.257   6.536   2.213  0.0027  0.0896  0.2108
14547TIP3    H165132   5.202   6.586   2.273 -1.4290 -0.7353 -0.3693
14547TIP3    H265133   5.256   6.587   2.132  0.8778  0.5477  0.4800
14548TIP3   OH265134   6.469   1.922  14.716 -0.0403  0.3346  0.2253
14548TIP3    H165135   6.446   1.836  14.680  0.9318 -0.0423  0.4582
14548TIP3    H265136   6.395   1.978  14.695  0.0142 -0.1566 -1.3743
14549TIP3   OH265137   0.568   0.494  13.442 -0.5084 -0.0077  0.0486
14549TIP3    H165138   0.493   0.474  13.386  0.3932  0.4072 -1.3589
14549TIP3    H265139   0.551   0.446  13.523 -1.5690 -1.1318 -0.8031
14550TIP3   OH265140   0.547   1.188  12.080 -0.4463  0.6428 -0.0843
14550TIP3    H165141   0.482   1.155  12.018  0.9881 -1.3259 -0.6596
14550TIP3    H265142   0.546   1.124  12.151  2.6197 -1.0341 -1.3494
14551TIP3   OH265143   3.000   4.996  16.096  0.0891  0.2697 -0.7825
14551TIP3    H165144   3.031   5.086  16.102  0.3639  0.1338 -0.1022
14551TIP3    H265145   3.023   4.957  16.180 -1.4999  0.0184 -0.4455
14552TIP3   OH265146   5.667   0.594  11.155 -0.1596 -0.5945  0.2366
14552TIP3    H165147   5.648   0.589  11.061  0.2256 -0.9861  0.1731
14552TIP3    H265148   5.617   0.523  11.193 -1.8718  0.7532  0.6130
14553TIP3   OH265149   3.174   6.236  13.642  0.6091  0.3426  0.1894
14553TIP3    H165150   3.114   6.164  13.663  0.9880 -0.3930 -1.1117
14553TIP3    H265151   3.117   6.312  13.632  0.1329  0.1133  0.9934
14554TIP3   OH265152   5.961   0.911   2.504  0.4281 -0.5044 -0.0403
14554TIP3    H165153   5.945   0.976   2.573  0.9586  0.5354 -0.8878
14554TIP3    H265154   5.874   0.894   2.467  0.6763  3.0311 -2.7354
14555TIP3   OH265155   4.574   4.260   1.209 -0.1356 -0.6259 -0.8530
14555TIP3    H165156   4.584   4.308   1.291 -0.3053 -3.0840  0.6993
14555TIP3    H265157   4.483   4.277   1.183  0.3766  1.4916 -1.5050
14556TIP3   OH265158   2.253   6.692   4.668 -0.3252  0.5823 -0.1134
14556TIP3    H165159   2.339   6.671   4.631  0.7685  1.3984  1.8175
14556TIP3    H265160   2.235   6.619   4.727 -1.2115  0.1736 -0.8736
14557TIP3   OH265161   1.595   2.206   1.795  0.7911 -0.2958 -0.1381
14557TIP3    H165162   1.533   2.140   1.765 -0.2628  1.2271 -1.4368
14557TIP3    H265163   1.681   2.168   1.774  0.1813  0.0934 -4.1405
14558TIP3   OH265164   6.016   4.043   2.783 -1.0005  0.1111  0.2754
14558TIP3    H165165   6.010   4.133   2.816  1.4461  0.3750  0.1279
14558TIP3    H265166   5.997   3.989   2.860  1.1710  0.7640  1.3478
14559TIP3   OH265167   5.360   2.390   6.469  0.2911  0.1031  0.3060
14559TIP3    H165168   5.394   2.478   6.484  1.0236 -0.1993  0.4720
14559TIP3    H265169   5.287   2.382   6.530  2.3117 -0.5983  2.8224
14560TIP3   OH265170   4.267   1.684   6.641  0.2230  0.5192  0.1292
14560TIP3    H165171   4.223   1.609   6.602  1.7921 -2.4101  3.3922
14560TIP3    H265172   4.316   1.723   6.569  0.6011 -2.6076 -1.4861
14561TIP3   OH265173   4.575   1.849  16.691 -0.6464 -0.1552 -0.2828
14561TIP3    H165174   4.636   1.880  16.625  0.3606  0.5202  0.9187
14561TIP3    H265175   4.490   1.884  16.663  0.4226  4.2243  1.1061
14562TIP3   OH265176   5.280   0.036  17.215 -0.2340 -0.1683 -0.0295
14562TIP3    H165177   5.336   0.027  17.292  1.0107  1.7844 -0.6301
14562TIP3    H265178   5.205   0.087  17.245  1.0003  1.9761 -0.3588
14563TIP3   OH265179   0.478   5.278  16.548 -0.1505  0.2754 -0.0509
14563TIP3    H165180   0.504   5.265  16.640 -1.6671 -2.3117  0.1168
14563TIP3    H265181   0.505   5.368  16.528 -1.6661  1.7380  3.5867
14564TIP3   OH265182   3.436   0.461  13.529  0.4505  0.3829 -0.0875
14564TIP3    H165183   3.375   0.465  13.603  0.6963  0.7258  0.0988
14564TIP3    H265184   3.522   0.474  13.568  0.6232  0.1530 -0.3832
14565TIP3   OH265185   5.544   3.141   5.422 -0.1677  0.8963  0.3342
14565TIP3    H165186   5.601   3.110   5.351  2.2930 -2.3831  3.3317
14565TIP3    H265187   5.603   3.189   5.481 -1.1718  0.1920  1.9984
14566TIP3   OH265188   5.248   6.562   5.759 -0.8198  0.1465 -0.1474
14566TIP3    H165189   5.196   6.583   5.836 -0.8037  0.0451 -0.1075
14566TIP3    H265190   5.335   6.597   5.778 -0.2865 -1.5064  0.7091
14567TIP3   OH265191   1.277   0.657   2.878 -0.0081  0.1259  0.3760
14567TIP3    H165192   1.330   0.703   2.813 -0.4664  0.1525  0.0205
14567TIP3    H265193   1.247   0.578   2.832  1.4832 -0.9918  1.2329
14568TIP3   OH265194   0.844   1.254  13.470 -0.2938 -0.0893  0.1315
14568TIP3    H165195   0.886   1.299  13.543  0.7203 -0.3351 -0.2843
14568TIP3    H265196   0.841   1.320  13.400  1.0216 -0.5727 -0.4158
14569TIP3   OH265197   0.498   3.936  12.826  0.2273 -0.1245 -0.5153
14569TIP3    H165198   0.563   3.992  12.783  1.5850 -1.8108 -0.7988
14569TIP3    H265199   0.493   3.970  12.915 -0.1977  1.4045 -1.0910
14570TIP3   OH265200   5.000   5.814  11.557 -0.3698 -0.3718 -0.0710
14570TIP3    H165201   4.966   5.903  11.568  1.6773  0.3117  1.1717
14570TIP3    H265202   4.958   5.764  11.627  0.0184  0.0992  0.5039
14571TIP3   OH265203   1.891   5.951  14.326  0.0031  0.4332  0.0895
14571TIP3    H165204   1.960   5.886  14.308  1.2331  1.3799  1.2393
14571TIP3    H265205   1.877   5.946  14.420 -1.3768  0.4214 -0.0953
14572TIP3   OH265206   2.981   1.246   0.862  0.2296  0.2128  0.0465
14572TIP3    H165207   3.006   1.337   0.846 -1.4850  0.7299  0.1459
14572TIP3    H265208   2.886   1.248   0.871  0.3203 -1.3029  2.0023
14573TIP3   OH265209   5.416   0.980  16.401 -0.3646  0.5626 -1.3972
14573TIP3    H165210   5.486   1.024  16.451  0.4508 -1.9795 -0.1269
14573TIP3    H265211   5.343   1.042  16.404  0.3999  1.4991  1.0878
14574TIP3   OH265212   5.049   5.182  12.121  0.4977 -0.1656  0.9698
14574TIP3    H165213   4.990   5.247  12.159  0.0501 -0.4459  0.7629
14574TIP3    H265214   5.108   5.233  12.066  0.9693  0.2153  1.7981
14575TIP3   OH265215   3.960   5.457  16.015  0.1182 -0.1119  0.4079
14575TIP3    H165216   4.020   5.400  15.966 -0.1003 -1.4202  1.6168
14575TIP3    H265217   4.016   5.505  16.076  0.3360  1.2135 -0.7819
14576TIP3   OH265218   4.349   2.549  14.006 -0.2043 -0.4795 -0.4409
14576TIP3    H165219   4.281   2.524  14.069 -1.3099 -0.6390 -1.6252
14576TIP3    H265220   4.309   2.529  13.921  0.2706  1.9672 -1.3094
14577TIP3   OH265221   6.192   1.172   3.916  0.3994  0.3301  0.0917
14577TIP3    H165222   6.189   1.237   3.986  0.8371 -0.0091  0.4268
14577TIP3    H265223   6.107   1.180   3.872  0.2697  0.8014  0.4223
14578TIP3   OH265224   3.686   2.411   1.638  0.4769 -0.4717  0.1395
14578TIP3    H165225   3.704   2.494   1.682 -0.3722  0.3959 -1.1015
14578TIP3    H265226   3.599   2.386   1.670  0.3029 -0.3696 -0.2563
14579TIP3   OH265227   6.239   3.008   5.341  0.3843 -0.1205 -0.3931
14579TIP3    H165228   6.171   2.942   5.337 -1.8959  2.1318 -1.2560
14579TIP3    H265229   6.232   3.045   5.429  1.2517 -0.5888 -0.1159
14580TIP3   OH265230   4.433   3.220  13.242 -0.0376  0.3959  0.3314
14580TIP3    H165231   4.448   3.155  13.310 -0.2658  0.3183  0.3078
14580TIP3    H265232   4.501   3.287  13.257 -0.7861  0.9587  1.3420
14581TIP3   OH265233   1.239   4.635  11.753  0.1885  0.5750 -0.2818
14581TIP3    H165234   1.153   4.634  11.796  0.0299  1.4188 -0.5699
14581TIP3    H265235   1.275   4.548  11.771 -0.4946  0.4007  0.3052
14582TIP3   OH265236   1.573   2.886   0.192  0.1779  0.5055 -0.0391
14582TIP3    H165237   1.633   2.931   0.252 -1.1578  1.5066  0.6117
14582TIP3    H265238   1.617   2.889   0.107  1.3916  0.5032  0.5595
14583TIP3   OH265239   6.546   3.474  12.771 -0.2480  0.3566  0.0542
14583TIP3    H165240   6.574   3.562  12.747  0.9620  0.0165  0.1769
14583TIP3    H265241   6.591   3.455  12.853 -0.2288 -0.5081 -0.1429
14584TIP3   OH265242   4.946   0.358  15.037 -0.3707 -0.9313  0.4212
14584TIP3    H165243   4.994   0.276  15.030 -0.7959 -1.1449 -0.0818
14584TIP3    H265244   4.977   0.410  14.963  0.2952 -0.4158  1.0434
14585TIP3   OH265245   5.105   1.376   1.679 -0.3854 -0.0481  0.5877
14585TIP3    H165246   5.133   1.370   1.771  1.2249 -0.0561  0.1239
14585TIP3    H265247   5.186   1.367   1.629 -1.0986  1.0377 -0.8109
14586TIP3   OH265248   2.979   2.665   4.491 -0.4063 -0.3011  0.3431
14586TIP3    H165249   2.979   2.673   4.586  0.6306 -2.0378  0.5520
14586TIP3    H265250   2.991   2.571   4.476  2.4407  0.2085 -1.4435
14587TIP3   OH265251   6.382   6.701  13.939 -0.3973  0.0447 -0.5646
14587TIP3    H165252   6.421   6.681  13.854 -0.0083 -2.0155  0.0313
14587TIP3    H265253   6.308   6.640  13.946 -2.8714  2.7576 -0.9725
14588TIP3   OH265254   5.350   5.901   4.709  0.3016  0.1769 -0.4040
14588TIP3    H165255   5.418   5.839   4.681 -1.5802 -1.6882 -1.0971
14588TIP3    H265256   5.363   5.910   4.803  1.7197  0.1828 -0.5706
14589TIP3   OH265257   1.948   2.242   4.369 -0.0192 -0.2439 -0.6901
14589TIP3    H165258   1.902   2.161   4.348 -0.4944  0.2580 -1.5995
14589TIP3    H265259   2.014   2.251   4.300  0.1269  0.0730 -0.5112
14590TIP3   OH265260   5.919   2.518  15.706  0.1253 -0.6509 -0.0871
14590TIP3    H165261   5.881   2.584  15.764  0.4306 -1.6493  1.3126
14590TIP3    H265262   6.006   2.552  15.685 -1.0396  1.1314 -2.4401
14591TIP3   OH265263   1.896   1.544  11.113  0.5893  0.1114  0.6104
14591TIP3    H165264   1.962   1.606  11.081  0.3318 -0.6895 -1.6219
14591TIP3    H265265   1.816   1.596  11.119  1.0044  0.6612  1.5985
14592TIP3   OH265266   2.103   0.512   6.013  0.1229 -0.2626 -0.0859
14592TIP3    H165267   2.066   0.585   5.962  0.3667  0.2385  0.4437
14592TIP3    H265268   2.145   0.554   6.088 -1.5980 -1.0587  1.4044
14593TIP3   OH265269   6.220   2.981  17.292  0.3100  0.0297 -0.3248
14593TIP3    H165270   6.306   2.955  17.259  0.3801 -2.3127  1.4499
14593TIP3    H265271   6.158   2.924  17.246  0.0235 -0.3888  0.5569
14594TIP3   OH265272   4.702   4.496  14.563 -0.0028 -0.1721  0.2260
14594TIP3    H165273   4.645   4.522  14.635 -1.5170 -1.9620 -0.2314
14594TIP3    H265274   4.729   4.578  14.522 -0.0232  0.8209  2.1203
14595TIP3   OH265275   1.682   6.565   5.178 -0.4682 -0.2721  0.1361
14595TIP3    H165276   1.753   6.629   5.181 -1.4337  0.8658  0.0796
14595TIP3    H265277   1.723   6.481   5.196  1.3042 -0.0391 -2.4180
14596TIP3   OH265278   3.310   0.375   6.563  0.9496 -0.4066 -0.0050
14596TIP3    H165279   3.292   0.289   6.601 -0.7474  1.4553  3.9156
14596TIP3    H265280   3.388   0.406   6.610  0.7787  0.7155 -0.4389
14597TIP3   OH265281   5.888   5.874  15.772 -0.2471  0.9264  0.2230
14597TIP3    H165282   5.923   5.877  15.861 -1.2840  0.1274  0.6710
14597TIP3    H265283   5.799   5.841  15.782 -0.4201  0.9419 -1.1039
14598TIP3   OH265284   2.010   6.396  11.737  0.1535  0.0300 -0.1515
14598TIP3    H165285   1.925   6.360  11.711  0.3352  0.0347 -0.7815
14598TIP3    H265286   1.999   6.421  11.828 -0.3750 -0.4171 -0.0879
14599TIP3   OH265287   4.838   3.228  13.224  0.2375  0.2681 -0.2913
14599TIP3    H165288   4.810   3.155  13.279  0.0752  0.5492  0.0053
14599TIP3    H265289   4.872   3.187  13.144  0.6060 -0.1502  0.0766
14600TIP3   OH265290   0.459   6.298   2.056 -0.4448  0.1014  0.2241
14600TIP3    H165291   0.454   6.203   2.045  2.9802 -0.0850 -1.1255
14600TIP3    H265292   0.478   6.311   2.149  1.1356 -0.7457  0.0490
14601TIP3   OH265293   2.970   0.889   1.271 -0.2588  0.4212  0.5274
14601TIP3    H165294   3.035   0.820   1.273 -0.2097  0.4731  0.6809
14601TIP3    H265295   3.000   0.948   1.201 -1.6362 -1.0315 -1.4196
14602TIP3   OH265296   5.610   3.190   0.549 -0.2126  1.0829 -0.1154
14602TIP3    H165297   5.627   3.271   0.599  0.4169  2.0271 -1.7834
14602TIP3    H265298   5.518   3.172   0.565  0.0928  1.0429  1.8059
14603TIP3   OH265299   1.794   2.316  16.143  0.7676 -0.0151 -0.4455
14603TIP3    H165300   1.711   2.270  16.135 -0.4265  1.9290  0.0437
14603TIP3    H265301   1.828   2.290  16.228  0.7468 -0.9495 -0.7211
14604TIP3   OH265302   1.203   6.447  11.657 -0.0415  0.1582  0.6566
14604TIP3    H165303   1.260   6.432  11.582  0.6118  2.0741  0.7062
14604TIP3    H265304   1.123   6.399  11.637  1.2502 -1.9025  0.1940
14605TIP3   OH265305   0.076   4.360   2.163  0.2875  0.2634 -0.6556
14605TIP3    H165306   0.124   4.367   2.081  0.8194  0.9073 -0.2916
14605TIP3    H265307   0.013   4.432   2.161 -0.6234 -0.5126 -1.0852
14606TIP3   OH265308   6.640   5.148  16.934  0.6096  0.2394  0.5606
14606TIP3    H165309   6.646   5.185  17.022  0.5004  0.9607  0.2719
14606TIP3    H265310   6.730   5.135  16.906  0.6638  0.7058  0.5018
14607TIP3   OH265311   2.245   0.165  11.682 -0.3563 -0.3310  0.2689
14607TIP3    H165312   2.188   0.089  11.693 -1.4062 -0.2750 -3.4413
14607TIP3    H265313   2.329   0.128  11.655  0.2906 -0.2500  2.0568
14608TIP3   OH265314   5.866   2.440   2.546  0.3335  0.0714 -0.3446
14608TIP3    H165315   5.861   2.376   2.618  1.4400  0.1779 -0.1499
14608TIP3    H265316   5.936   2.500   2.573 -1.8049  2.4795  0.3495
14609TIP3   OH265317   5.584   3.140  15.305 -0.2769 -0.6480  0.1550
14609TIP3    H165318   5.665   3.093  15.324  0.0331 -0.7870 -1.3957
14609TIP3    H265319   5.515   3.087  15.345  0.2462 -1.4029  0.0740
14610TIP3   OH265320   2.630   3.125  11.997 -0.3040 -0.4053  0.1850
14610TIP3    H165321   2.601   3.195  12.054  1.9734  1.1169 -0.3963
14610TIP3    H265322   2.578   3.136  11.917  1.0870  1.6915 -0.5049
14611TIP3   OH265323   4.453   1.504   2.712  0.0033 -0.0723  0.1264
14611TIP3    H165324   4.507   1.550   2.648  1.3660 -1.1198  0.4647
14611TIP3    H265325   4.500   1.516   2.795 -0.4283 -0.7689  0.4795
14612TIP3   OH265326   6.555   3.913   1.585  0.0340  0.3211 -0.2223
14612TIP3    H165327   6.588   3.829   1.553  0.1019 -0.0126  0.7045
14612TIP3    H265328   6.488   3.938   1.521  0.7152  0.0565 -1.0496
14613TIP3   OH265329   2.907   0.156  16.453  0.4894  0.2746 -0.2849
14613TIP3    H165330   2.963   0.229  16.428  0.7477 -0.3091 -1.5205
14613TIP3    H265331   2.835   0.159  16.390  0.2936 -0.2855 -0.0949
14614TIP3   OH265332   0.077   2.043  13.852 -0.3560 -0.5490 -0.1960
14614TIP3    H165333   0.011   2.065  13.786 -1.4134  0.3898  1.1016
14614TIP3    H265334   0.027   2.035  13.934  1.0825 -0.2729  0.7481
14615TIP3   OH265335   0.169   1.726   4.024  0.6615  0.0674  0.0365
14615TIP3    H165336   0.118   1.769   3.956  0.3391  0.7627  0.7017
14615TIP3    H265337   0.193   1.641   3.986 -1.8318 -0.7220  0.0434
14616TIP3   OH265338   4.121   1.061  12.138 -0.1394  0.4069  0.3973
14616TIP3    H165339   4.033   1.057  12.103  0.0968 -1.2229 -0.1158
14616TIP3    H265340   4.125   1.144  12.185 -0.9204  1.9990 -2.1844
14617TIP3   OH265341   1.978   0.216   5.742  0.3124  0.3475 -0.0683
14617TIP3    H165342   1.889   0.250   5.730 -0.6899 -1.4218  1.5924
14617TIP3    H265343   1.967   0.147   5.808  2.3614 -2.1732 -2.1601
14618TIP3   OH265344   3.735   0.300  14.059 -0.2984 -0.9429  0.1607
14618TIP3    H165345   3.751   0.377  14.004  0.2757 -1.0212  0.2120
14618TIP3    H265346   3.751   0.330  14.148 -0.7684 -0.9393  0.2446
14619TIP3   OH265347   6.460   5.895  10.917  0.2869 -0.0123 -0.2481
14619TIP3    H165348   6.462   5.990  10.908 -0.0590  0.0074 -0.1147
14619TIP3    H265349   6.433   5.863  10.831 -0.2099  0.0421 -0.1172
14620TIP3   OH265350   5.957   4.458   0.831  0.0419  0.0136 -0.3582
14620TIP3    H165351   6.044   4.499   0.833 -0.8255  1.9653 -0.5899
14620TIP3    H265352   5.921   4.481   0.746 -1.4926  1.0237  0.5126
14621TIP3   OH265353   6.403   5.238   3.407  0.3515 -0.0900 -0.1897
14621TIP3    H165354   6.498   5.233   3.415  0.3415 -0.7078 -0.3905
14621TIP3    H265355   6.388   5.280   3.322  0.4452 -0.2120 -0.2663
14622TIP3   OH265356   4.176   0.347  15.306 -0.2426  0.2502 -0.1308
14622TIP3    H165357   4.217   0.389  15.230 -0.4592  0.5430 -0.0881
14622TIP3    H265358   4.207   0.257  15.304  0.9370  0.6240  0.2740
14623TIP3   OH265359   3.188   2.385   3.361 -0.1220  0.6251  0.2463
14623TIP3    H165360   3.246   2.438   3.416  0.9713  0.4353 -0.6860
14623TIP3    H265361   3.241   2.310   3.334 -0.5530  0.7937 -1.1844
14624TIP3   OH265362   4.536   2.486   0.356 -0.1684  0.5782  0.4007
14624TIP3    H165363   4.557   2.440   0.275 -0.8293  0.7789  0.1082
14624TIP3    H265364   4.576   2.434   0.425 -0.7362 -0.3259  0.0588
14625TIP3   OH265365   3.503   0.836  14.260 -0.1309 -0.0831 -0.7203
14625TIP3    H165366   3.556   0.819  14.181  0.8119  0.7806 -0.3026
14625TIP3    H265367   3.514   0.757  14.313 -0.8846 -0.7316 -1.4971
14626TIP3   OH265368   0.425   0.175  15.936  0.1923 -0.1502  0.4074
14626TIP3    H165369   0.499   0.124  15.968 -0.8812 -0.5488  2.4735
14626TIP3    H265370   0.356   0.111  15.920 -0.1320  0.3384 -0.2043
14627TIP3   OH265371   0.334   5.872  11.655  0.1588  0.8258 -0.0769
14627TIP3    H165372   0.309   5.964  11.658  0.2287  0.8499 -0.2541
14627TIP3    H265373   0.276   5.834  11.589 -0.0787  0.6793  0.2113
14628TIP3   OH265374   4.447   4.388  13.141  0.3908  0.1494 -0.1112
14628TIP3    H165375   4.410   4.300  13.134  1.3374 -0.2532 -0.3469
14628TIP3    H265376   4.542   4.373  13.142  0.5497  1.0397  1.7624
14629TIP3   OH265377   1.350   0.228   0.486  0.2161 -0.0937 -0.1080
14629TIP3    H165378   1.368   0.164   0.554  0.7687  0.8495  0.6612
14629TIP3    H265379   1.427   0.225   0.429  0.6890  0.5522  0.4776
14630TIP3   OH265380   5.715   4.228   4.974 -0.1794  0.2542  0.0936
14630TIP3    H165381   5.674   4.249   4.890  1.3264  0.2659 -0.6749
14630TIP3    H265382   5.792   4.285   4.978  1.3283 -1.7120  0.1687
14631TIP3   OH265383   5.709   2.425  14.473 -0.2213 -0.1131  0.2351
14631TIP3    H165384   5.781   2.436  14.534 -0.3253  0.9522  0.1680
14631TIP3    H265385   5.724   2.337  14.435  0.8998 -0.0089  0.3935
14632TIP3   OH265386   4.438   2.161  12.168 -0.0036 -0.3144  0.3305
14632TIP3    H165387   4.437   2.225  12.239  1.6001  0.5871 -0.4009
14632TIP3    H265388   4.348   2.159  12.136 -0.2729  0.9346  0.9400
14633TIP3   OH265389   5.624   4.727   5.087  0.0576 -0.2185 -0.1749
14633TIP3    H165390   5.683   4.802   5.085  0.6367 -0.6439  0.4209
14633TIP3    H265391   5.586   4.724   4.999  1.0442 -0.0357 -0.6213
14634TIP3   OH265392   5.064   5.863   4.666 -0.1687 -0.5655  0.2133
14634TIP3    H165393   5.050   5.779   4.623  2.1164 -0.9797  0.1509
14634TIP3    H265394   5.159   5.874   4.666 -0.4062  2.4318 -0.5928
14635TIP3   OH265395   2.232   0.928  15.656  0.2700  0.1435 -0.1297
14635TIP3    H165396   2.174   0.852  15.658  1.6448 -0.9441  1.4718
14635TIP3    H265397   2.264   0.936  15.745  0.9707  2.0004 -0.5027
14636TIP3   OH265398   4.471   6.365  15.248  0.3038  0.3205  0.3970
14636TIP3    H165399   4.491   6.385  15.157  2.0492  1.7554  1.0322
14636TIP3    H265400   4.462   6.270  15.251 -0.5478  0.3116 -1.3819
14637TIP3   OH265401   3.021   1.119   2.918 -0.3067 -0.5740 -0.1285
14637TIP3    H165402   2.983   1.130   2.831  1.4250 -2.0612 -1.1544
14637TIP3    H265403   3.028   1.208   2.953 -1.7567 -0.0122 -1.1620
14638TIP3   OH265404   2.103   0.777  14.050  0.2269  0.5075  0.0355
14638TIP3    H165405   2.013   0.745  14.049  1.0147 -1.8646 -0.2059
14638TIP3    H265406   2.129   0.774  14.142  0.1008  1.1168  0.0953
14639TIP3   OH265407   3.591   0.690  13.840  0.1769 -0.2523 -0.2989
14639TIP3    H165408   3.503   0.666  13.869  0.8296 -0.2701  1.8412
14639TIP3    H265409   3.608   0.775  13.881  0.9227  0.0561 -1.2097
14640TIP3   OH265410   4.041   2.017  12.865  0.5445  0.8523 -0.5864
14640TIP3    H165411   4.110   1.959  12.834 -0.1860 -0.9447  0.9852
14640TIP3    H265412   3.972   2.010  12.800 -0.0729 -1.1205  0.2377
14641TIP3   OH265413   5.525   6.516  12.132 -0.3877  0.4885  0.8917
14641TIP3    H165414   5.440   6.474  12.145 -0.3397 -0.4763 -1.4566
14641TIP3    H265415   5.503   6.607  12.110 -0.8577  0.1479 -0.0999
14642TIP3   OH265416   5.150   6.492   0.672  0.4290  0.6179  0.2966
14642TIP3    H165417   5.065   6.530   0.649 -0.9713 -0.7558  2.7654
14642TIP3    H265418   5.206   6.568   0.687 -0.4320  1.5651 -0.9701
14643TIP3   OH265419   6.376   5.276  13.578  0.0263 -0.5891  0.3380
14643TIP3    H165420   6.452   5.325  13.550 -1.4607  2.0386  0.6261
14643TIP3    H265421   6.342   5.235  13.498  0.7390 -0.3492 -0.0919
14644TIP3   OH265422   2.092   4.231   2.957  0.1977  0.0759 -0.0233
14644TIP3    H165423   2.091   4.317   2.914  0.4908  0.6528  1.0989
14644TIP3    H265424   2.134   4.173   2.893 -0.5263  0.6240 -1.0281
14645TIP3   OH265425   2.720   0.019   0.627 -0.5042 -0.6897 -0.2259
14645TIP3    H165426   2.808  -0.020   0.631 -0.7901 -1.3027  0.2278
14645TIP3    H265427   2.686  -0.009   0.542 -0.7421 -1.5161  0.1355
14646TIP3   OH265428   5.528   3.764   5.080 -0.4943  0.5773 -0.1341
14646TIP3    H165429   5.608   3.714   5.097 -2.0872 -2.4318 -0.7612
14646TIP3    H265430   5.458   3.711   5.120 -2.3448  2.2352 -1.0235
14647TIP3   OH265431   2.185   3.481  12.272  0.9865 -0.2024  0.5941
14647TIP3    H165432   2.104   3.513  12.232  2.1354  1.3302 -0.6364
14647TIP3    H265433   2.210   3.405  12.220  0.3990 -0.6113  0.9088
14648TIP3   OH265434   2.023   5.825  12.808  1.0296 -0.4594  0.4671
14648TIP3    H165435   1.985   5.821  12.896  1.4202  1.1734  0.7383
14648TIP3    H265436   1.995   5.743  12.767 -2.7252  0.5309  0.6749
14649TIP3   OH265437   5.507   3.332  16.180 -0.4144  0.2878  0.1096
14649TIP3    H165438   5.434   3.378  16.139 -0.0786  1.6597  0.9962
14649TIP3    H265439   5.564   3.401  16.213  0.7020 -0.7654  0.4623
14650TIP3   OH265440   3.749   0.647  11.425 -0.5795  0.1457 -0.0964
14650TIP3    H165441   3.690   0.575  11.450  0.4415 -0.7636 -0.2516
14650TIP3    H265442   3.758   0.699  11.505  1.9057 -2.2047  1.3035
14651TIP3   OH265443   5.921   6.515   2.502  0.3188 -0.7050  0.2633
14651TIP3    H165444   5.836   6.485   2.534 -0.9825  0.4355 -1.9025
14651TIP3    H265445   5.926   6.606   2.529  0.6864 -0.6660  0.0684
14652TIP3   OH265446   5.512   5.900  15.263 -0.1778 -0.8736 -0.4233
14652TIP3    H165447   5.429   5.857  15.284 -0.3157  0.0347  1.0787
14652TIP3    H265448   5.489   5.970  15.202 -0.5236 -0.5968  0.0250
14653TIP3   OH265449   0.893   0.032  17.268  0.4884 -0.0465  0.3241
14653TIP3    H165450   0.845   0.109  17.297  1.7133  0.4153  1.1935
14653TIP3    H265451   0.923  -0.010  17.348 -0.4438 -1.6457 -0.1217
14654TIP3   OH265452   3.523   0.796  12.392  0.5200  0.6365 -0.6423
14654TIP3    H165453   3.551   0.705  12.400 -1.5651 -0.0155  0.0075
14654TIP3    H265454   3.549   0.821  12.303  2.4856 -0.0458 -0.3127
14655TIP3   OH265455   2.905   1.923   3.522 -0.0459 -0.2692 -0.1912
14655TIP3    H165456   2.885   1.841   3.567 -1.2110 -0.4130 -0.9125
14655TIP3    H265457   2.822   1.949   3.481  0.3010  1.2598 -0.0064
14656TIP3   OH265458   1.808   0.980   3.293 -0.1031  0.0774 -0.0587
14656TIP3    H165459   1.735   1.037   3.319 -0.1334 -0.1237  0.3105
14656TIP3    H265460   1.769   0.893   3.286  0.0546  0.0076 -0.0790
14657TIP3   OH265461   6.086   0.409   3.426 -0.1075 -0.2484 -0.0487
14657TIP3    H165462   6.167   0.363   3.404 -0.0026 -0.0335 -0.1175
14657TIP3    H265463   6.049   0.435   3.342  0.6982  1.2693  0.0222
14658TIP3   OH265464   0.488   6.609   2.340 -0.1099  0.0257  0.1013
14658TIP3    H165465   0.496   6.649   2.254  0.0339 -1.1333 -0.4491
14658TIP3    H265466   0.395   6.587   2.348  0.0230 -0.6680 -0.1506
14659TIP3   OH265467   2.073   0.667  14.335  0.2375  0.1231 -0.2100
14659TIP3    H165468   2.072   0.736  14.401 -0.1131  0.0030 -0.0873
14659TIP3    H265469   2.159   0.627  14.343 -0.0087 -0.2766  0.5780
14660TIP3   OH265470   1.928   1.341   4.228 -0.8074 -0.6311  0.6957
14660TIP3    H165471   2.002   1.291   4.263  0.1862 -0.3953 -0.9793
14660TIP3    H265472   1.884   1.376   4.306  1.3461 -0.0492  1.7309
14661TIP3   OH265473   1.498   5.360  14.543 -0.1454  0.1360  0.0288
14661TIP3    H165474   1.586   5.328  14.565 -0.9958 -0.8467  2.1313
14661TIP3    H265475   1.491   5.444  14.589 -0.1994  0.3879 -0.4306
14662TIP3   OH265476   5.596   6.648  15.388  0.5209 -0.1199 -0.5377
14662TIP3    H165477   5.569   6.565  15.428  0.0044  0.4025  0.2356
14662TIP3    H265478   5.648   6.691  15.456 -2.2369  1.7904  0.5511
14663TIP3   OH265479   0.460   6.466   0.707 -0.1242 -0.1073 -0.1964
14663TIP3    H165480   0.454   6.441   0.799 -0.1101  0.3378 -0.0737
14663TIP3    H265481   0.512   6.396   0.667 -0.4607 -0.5046  0.0523
14664TIP3   OH265482   0.119   6.740   0.217  0.0594  0.6341 -0.2918
14664TIP3    H165483   0.209   6.747   0.249  1.7050 -1.6026 -3.8299
14664TIP3    H265484   0.090   6.831   0.208  1.0093  1.4109  2.9427
14665TIP3   OH265485   2.121   2.450   3.685 -0.6874  0.2828  0.1285
14665TIP3    H165486   2.168   2.470   3.604 -0.5049  0.5087  0.2905
14665TIP3    H265487   2.108   2.535   3.727  0.1786  0.0549  0.8667
14666TIP3   OH265488   0.832   0.100  15.784 -0.1847 -0.0342 -0.4311
14666TIP3    H165489   0.837   0.054  15.700  0.1682 -0.4217 -0.1968
14666TIP3    H265490   0.854   0.191  15.762  1.8072 -0.4764 -0.4631
14667TIP3   OH265491   5.059   5.528   0.625 -0.3018  0.1703 -0.1036
14667TIP3    H165492   4.972   5.555   0.594  0.0842  1.2611 -0.2952
14667TIP3    H265493   5.107   5.610   0.634  0.1884 -0.2591  1.6375
14668TIP3   OH265494   2.476   5.413  15.550 -0.3773  0.4909 -0.3516
14668TIP3    H165495   2.390   5.397  15.589 -0.5329 -1.5888 -1.4266
14668TIP3    H265496   2.458   5.425  15.456  0.5524 -1.0476 -0.7656
14669TIP3   OH265497   1.802   5.566  17.164 -0.1413  0.3369  0.3288
14669TIP3    H165498   1.787   5.476  17.193 -3.1015  0.2825 -0.9208
14669TIP3    H265499   1.789   5.619  17.242  0.0321 -0.2146  0.7415
14670TIP3   OH265500   3.891   3.326  10.372 -0.0026 -0.0513 -0.0752
14670TIP3    H165501   3.855   3.332  10.461  0.4276 -0.3436  0.1241
14670TIP3    H265502   3.968   3.270  10.381  0.6228  0.7191 -0.4468
14671TIP3   OH265503   3.725   2.186  16.540  0.1329  0.1470  0.2087
14671TIP3    H165504   3.800   2.232  16.503 -0.0746 -0.1075 -0.5566
14671TIP3    H265505   3.674   2.254  16.584  1.6486  0.0798  2.2292
14672TIP3   OH265506   0.350   5.928  12.530  0.1561 -0.1514 -0.1442
14672TIP3    H165507   0.359   5.918  12.435  2.3982 -0.1199  0.0002
14672TIP3    H265508   0.441   5.935  12.561 -0.4018 -2.0422  2.1986
14673TIP3   OH265509   4.000   4.810  14.896 -0.2068 -0.7696 -0.0468
14673TIP3    H165510   3.926   4.834  14.952  0.0078 -1.9126  0.7707
14673TIP3    H265511   4.023   4.721  14.924  1.0447 -0.6901 -0.7457
14674TIP3   OH265512   2.991   0.162  15.449 -0.2500  0.4641  0.6506
14674TIP3    H165513   2.966   0.237  15.503 -1.3334 -0.5872  1.6524
14674TIP3    H265514   3.041   0.105  15.507  0.4220  0.2996 -0.0571
14675TIP3   OH265515   3.761   5.405  16.625 -0.1279  0.2567  0.1037
14675TIP3    H165516   3.851   5.400  16.593  0.0226  0.5823  0.4634
14675TIP3    H265517   3.748   5.498  16.646 -0.5015  0.1897  0.1766
14676TIP3   OH265518   2.698   2.483  13.610 -0.3539  0.8643 -0.6327
14676TIP3    H165519   2.778   2.460  13.563 -1.0776  0.0399 -1.4902
14676TIP3    H265520   2.674   2.569  13.577  0.2193  1.1615 -0.2978
14677TIP3   OH265521   6.673   5.498  11.216  0.1298 -0.1843  0.2664
14677TIP3    H165522   6.678   5.406  11.190 -1.0097 -0.5157  1.0985
14677TIP3    H265523   6.641   5.543  11.139 -0.5176 -0.7016  0.2226
14678TIP3   OH265524   2.997   2.759  11.770 -0.5435 -0.5019  0.4184
14678TIP3    H165525   2.915   2.713  11.786 -0.2687 -1.2851 -0.3788
14678TIP3    H265526   2.981   2.814  11.693 -1.3835  2.0907  2.2838
14679TIP3   OH265527   4.695   2.938  11.638  0.7261 -1.0143  0.0307
14679TIP3    H165528   4.674   2.862  11.692 -0.4499 -1.1633 -0.6094
14679TIP3    H265529   4.733   3.001  11.699  0.8365 -1.7519  0.7409
14680TIP3   OH265530   0.738   5.232  16.380 -0.1491  0.7147  0.2185
14680TIP3    H165531   0.672   5.287  16.336 -0.1575  0.4918 -0.0520
14680TIP3    H265532   0.740   5.264  16.470 -2.2236 -0.7148  0.8381
14681TIP3   OH265533   2.616   0.302  11.987  0.2293  0.6301 -0.1340
14681TIP3    H165534   2.678   0.311  12.058 -1.6980 -0.2822  1.7880
14681TIP3    H265535   2.626   0.382  11.936  2.9082  0.5127  0.0731
14682TIP3   OH265536   3.888   3.391   6.165 -0.7668  0.6012 -0.4064
14682TIP3    H165537   3.931   3.474   6.186 -2.6392  2.1597 -2.2486
14682TIP3    H265538   3.797   3.405   6.192 -0.8568 -1.4290  0.5289
14683TIP3   OH265539   5.017   0.208  17.020 -0.2011  0.1088 -0.1191
14683TIP3    H165540   5.035   0.285  16.966  2.3936  1.0033  1.7563
14683TIP3    H265541   5.086   0.146  16.996 -1.5551 -1.1960 -0.7572
14684TIP3   OH265542   6.259   2.591   3.508 -0.2458 -0.7576 -0.0578
14684TIP3    H165543   6.271   2.506   3.465 -1.9922 -1.3233  0.5088
14684TIP3    H265544   6.166   2.610   3.499  0.0463  0.9713  0.1168
14685TIP3   OH265545   3.913   1.870   5.044 -0.2683  0.0590 -0.0671
14685TIP3    H165546   3.945   1.851   4.955 -0.9931 -0.9921 -0.1192
14685TIP3    H265547   3.828   1.828   5.048 -0.4559  0.5185  0.9812
14686TIP3   OH265548   0.227   3.245  10.393  0.4674  0.2186  0.3043
14686TIP3    H165549   0.145   3.254  10.442  0.1724 -0.5936 -0.0310
14686TIP3    H265550   0.291   3.296  10.444 -0.1408  0.4886  0.8094
14687TIP3   OH265551   5.970   4.123  11.900 -0.2685 -0.4650  0.0874
14687TIP3    H165552   5.900   4.184  11.876 -1.9542 -2.0313  0.8133
14687TIP3    H265553   5.950   4.098  11.990  0.2585 -2.2329 -0.2584
14688TIP3   OH265554   0.918   1.171  11.723  0.2531  0.4155  0.2143
14688TIP3    H165555   0.834   1.126  11.719  1.2042 -1.4264 -0.7555
14688TIP3    H265556   0.904   1.254  11.679 -0.9475 -0.0673 -0.3544
14689TIP3   OH265557   1.259   6.110   4.568  0.2374  0.2097  0.5092
14689TIP3    H165558   1.276   6.025   4.527 -1.5707 -0.7726  1.6715
14689TIP3    H265559   1.245   6.169   4.495 -0.8622 -1.0458 -0.3500
14690TIP3   OH265560   6.514   5.769   1.886  0.1722  0.0341  0.1937
14690TIP3    H165561   6.440   5.790   1.829 -0.7821  0.6253  1.6048
14690TIP3    H265562   6.581   5.834   1.864 -0.5856  0.9294  0.4692
14691TIP3   OH265563   4.751   0.047  13.444 -0.3633  0.3856 -0.2777
14691TIP3    H165564   4.750   0.014  13.355 -0.6618  1.1639 -0.5728
14691TIP3    H265565   4.708  -0.022  13.495  2.4275 -1.4617 -0.1755
14692TIP3   OH265566   0.342   1.339  13.417  0.1225  0.3666  0.0852
14692TIP3    H165567   0.345   1.371  13.327 -0.8087 -2.2848 -0.9814
14692TIP3    H265568   0.414   1.276  13.423 -1.9395 -2.2014 -0.0611
14693TIP3   OH265569   6.733   2.495  13.757 -0.1635 -1.0974  0.8633
14693TIP3    H165570   6.665   2.428  13.759 -1.5672 -0.0122 -2.6966
14693TIP3    H265571   6.786   2.472  13.680 -1.2032  2.1537 -1.0292
14694TIP3   OH265572   5.304   0.200  12.009  0.2845  0.5810 -0.4805
14694TIP3    H165573   5.354   0.281  12.003 -0.8539  1.3124 -0.3169
14694TIP3    H265574   5.228   0.222  12.063 -1.0159 -0.0790 -1.9648
14695TIP3   OH265575   3.654   1.473   5.947  0.2028  0.3870  0.3484
14695TIP3    H165576   3.563   1.443   5.949  0.6430 -0.9870  0.9157
14695TIP3    H265577   3.704   1.395   5.923  1.1902  1.2704 -0.5589
14696TIP3   OH265578   3.267   6.023  16.686 -0.2709 -0.1416  0.5144
14696TIP3    H165579   3.354   6.003  16.721 -0.9186 -1.4267  1.4453
14696TIP3    H265580   3.254   6.115  16.706 -0.1063 -0.5315  2.5818
14697TIP3   OH265581   0.564   6.535   4.327  0.0625  0.0589  0.1863
14697TIP3    H165582   0.580   6.543   4.233 -1.7731 -1.4321 -0.3213
14697TIP3    H265583   0.622   6.464   4.355  0.6445  0.5347  0.2290
14698TIP3   OH265584   5.716   2.656  16.388 -0.6297 -0.1512  0.2465
14698TIP3    H165585   5.791   2.614  16.431  0.4371  0.8270 -0.6202
14698TIP3    H265586   5.728   2.749  16.404 -2.5778 -0.0576  1.4994
14699TIP3   OH265587   4.864   1.994  16.185  0.3019 -0.5978  0.6135
14699TIP3    H165588   4.770   1.995  16.163  0.7272  0.5237 -1.3564
14699TIP3    H265589   4.880   2.078  16.227  0.7313 -0.0216 -0.6494
14700TIP3   OH265590   5.780   1.495  17.147 -0.4527  0.0842 -0.2982
14700TIP3    H165591   5.853   1.434  17.156 -0.9788 -0.4640  0.3699
14700TIP3    H265592   5.806   1.553  17.075  0.2486 -0.6514 -0.6532
14701TIP3   OH265593   4.191   2.133  13.937  0.6616 -0.0418  0.0211
14701TIP3    H165594   4.253   2.142  14.009  1.4751 -1.1632 -0.5125
14701TIP3    H265595   4.240   2.087  13.869  0.0886  1.4502 -1.4761
14702TIP3   OH265596   0.083   2.065  14.340  0.3665 -0.1610  0.7996
14702TIP3    H165597   0.011   2.003  14.328  0.4890 -0.2385  0.4613
14702TIP3    H265598   0.082   2.120  14.262  0.5322 -0.0148  0.8973
14703TIP3   OH265599   0.408   4.073  13.783 -0.2549 -0.0190  0.4266
14703TIP3    H165600   0.385   4.074  13.690 -1.1818 -0.5155  0.6433
14703TIP3    H265601   0.503   4.063  13.784  0.0257  2.0460 -0.4868
14704TIP3   OH265602   4.255   1.966  16.253  0.0342 -0.0970 -0.1401
14704TIP3    H165603   4.254   2.048  16.203 -1.5163 -0.6336 -1.0630
14704TIP3    H265604   4.210   1.987  16.335 -3.4458 -0.7108 -1.7109
14705TIP3   OH265605   2.866   0.331  14.119 -0.0754  0.6190  0.4227
14705TIP3    H165606   2.840   0.318  14.211 -0.1906  0.1700  0.3245
14705TIP3    H265607   2.961   0.344  14.123 -0.1659  1.2431  0.6723
14706TIP3   OH265608   2.466   1.281  12.094  0.3167  0.7685 -0.1652
14706TIP3    H165609   2.468   1.234  12.177 -0.7255  2.0303  0.6019
14706TIP3    H265610   2.408   1.355  12.109  0.4691  1.2887 -1.8885
14707TIP3   OH265611   5.879   5.016  12.422  0.2098  0.1785  0.2375
14707TIP3    H165612   5.835   4.941  12.461 -0.0329  1.3604  2.4414
14707TIP3    H265613   5.812   5.085  12.420  0.6280  0.5783 -1.0264
14708TIP3   OH265614   3.433   0.917  14.596  0.3295 -0.1459 -0.0798
14708TIP3    H165615   3.372   0.915  14.523 -0.6308  1.0860  0.6469
14708TIP3    H265616   3.491   0.991  14.577 -0.1733  0.4336  0.5615
14709TIP3   OH265617   2.146   3.650   3.629  0.7880  0.4885 -0.3152
14709TIP3    H165618   2.055   3.650   3.661  0.4257  2.3403 -1.1760
14709TIP3    H265619   2.189   3.580   3.678 -0.8431  0.2620  0.8839
14710TIP3   OH265620   6.606   2.017  13.414 -0.3230 -0.4185 -0.0034
14710TIP3    H165621   6.564   2.053  13.337 -1.9732  0.7738  1.3778
14710TIP3    H265622   6.545   1.952  13.447  0.0547 -0.4459  0.6660
14711TIP3   OH265623   4.917   3.806   5.836  0.5654  0.0971  0.0194
14711TIP3    H165624   4.908   3.711   5.833  0.0391  0.0841  1.2981
14711TIP3    H265625   4.935   3.826   5.928 -0.8396  1.3270  0.0736
14712TIP3   OH265626   4.163   2.461  11.770  0.1182 -0.0256  0.6305
14712TIP3    H165627   4.085   2.506  11.738 -0.4502 -0.7858  0.9047
14712TIP3    H265628   4.211   2.436  11.692 -0.3409 -0.2771  0.4241
14713TIP3   OH265629   6.283   2.339  17.190 -0.3705 -0.6974 -0.1745
14713TIP3    H165630   6.267   2.425  17.152  0.9771  0.0284  0.7815
14713TIP3    H265631   6.272   2.278  17.117  0.0971  0.4323 -1.2376
14714TIP3   OH265632   4.976   2.455  15.368  0.0770 -0.0201 -0.4188
14714TIP3    H165633   4.968   2.363  15.393 -0.9082  0.3745  0.8115
14714TIP3    H265634   4.987   2.453  15.273 -1.1288 -1.3619 -0.5665
14715TIP3   OH265635   1.946   4.184  12.649  0.7379 -0.0628  0.5006
14715TIP3    H165636   2.000   4.226  12.582  0.1679  0.3349  0.2800
14715TIP3    H265637   1.856   4.197  12.618  0.4868 -0.1592  1.1812
14716TIP3   OH265638   6.167   1.566  15.029 -0.0840 -0.3224 -0.0013
14716TIP3    H165639   6.260   1.543  15.028  0.5382  1.6960  2.1067
14716TIP3    H265640   6.142   1.567  14.936  2.3315  0.2393 -0.7372
14717TIP3   OH265641   6.173   0.182  11.669 -0.4282  0.2803  0.0408
14717TIP3    H165642   6.132   0.230  11.740  0.5400 -1.4073  1.8382
14717TIP3    H265643   6.140   0.093  11.677  1.7947 -0.6123  0.1654
14718TIP3   OH265644   3.006   5.306  12.669 -0.3104 -0.0457  0.4348
14718TIP3    H165645   2.946   5.371  12.705 -0.2087  0.7096 -0.7215
14718TIP3    H265646   3.077   5.358  12.630  0.2068 -0.8784  0.2445
14719TIP3   OH265647   4.497   2.731   3.560 -0.0208  0.5483  0.9427
14719TIP3    H165648   4.447   2.684   3.626 -3.4618  2.2782 -0.2229
14719TIP3    H265649   4.506   2.820   3.594 -1.6122  1.3980 -0.6645
14720TIP3   OH265650   5.181   5.055  14.631 -0.4236 -0.0098 -0.3965
14720TIP3    H165651   5.143   5.083  14.714 -0.6334 -2.0312  0.2386
14720TIP3    H265652   5.237   4.981  14.653 -1.2976 -1.2852 -2.1491
14721TIP3   OH265653   0.727   2.426  16.165 -0.2214  0.5749  0.2801
14721TIP3    H165654   0.804   2.385  16.124  0.3043  0.1688  1.6189
14721TIP3    H265655   0.671   2.449  16.091  0.6872 -0.1238 -0.6741
14722TIP3   OH265656   4.037   5.152   3.712 -0.2072  0.0612  0.1160
14722TIP3    H165657   3.985   5.122   3.786 -0.8139  0.0552 -0.3046
14722TIP3    H265658   3.977   5.151   3.638  0.2885  0.4235 -0.3051
14723TIP3   OH265659   5.281   3.484  16.216  0.6131 -0.4252  0.0724
14723TIP3    H165660   5.253   3.528  16.136  0.9966  0.8001  0.5761
14723TIP3    H265661   5.212   3.504  16.279  1.4400  0.6641  0.6851
14724TIP3   OH265662   6.191   0.278  13.089 -0.4094 -0.3636  0.5146
14724TIP3    H165663   6.115   0.273  13.030 -1.3633  0.6766  1.6098
14724TIP3    H265664   6.229   0.364  13.072 -1.1896  0.3054  1.9528
14725TIP3   OH265665   2.285   1.020   4.128 -0.2596  0.2558  0.1762
14725TIP3    H165666   2.252   1.036   4.216 -0.7456 -2.7413  0.6476
14725TIP3    H265667   2.374   0.989   4.141 -0.2254  0.1006 -0.4081
14726TIP3   OH265668   6.060   2.959   4.163  0.9344 -0.0871 -0.0055
14726TIP3    H165669   5.966   2.963   4.184  0.9793  2.1417 -0.0338
14726TIP3    H265670   6.063   2.939   4.070  0.4234  1.4537 -0.3692
14727TIP3   OH265671   0.193   1.355   1.273  0.3554  0.2075  0.2480
14727TIP3    H165672   0.241   1.278   1.305 -0.5653 -0.0124  1.1894
14727TIP3    H265673   0.160   1.396   1.353  2.0203  2.4283 -0.1160
14728TIP3   OH265674   6.465   6.639   4.716 -0.6155 -0.1796  0.3111
14728TIP3    H165675   6.523   6.715   4.727 -1.0262  0.2088 -0.1880
14728TIP3    H265676   6.496   6.597   4.636 -0.2533 -0.6657  0.7022
14729TIP3   OH265677   0.209   5.711   0.593 -0.0626  0.1933 -0.3291
14729TIP3    H165678   0.303   5.709   0.574  0.2941  1.1750  1.1482
14729TIP3    H265679   0.202   5.686   0.685 -1.1551  0.9088 -0.1886
14730TIP3   OH265680   4.444   6.404  12.283  0.2279  0.2975 -0.2590
14730TIP3    H165681   4.488   6.485  12.259 -0.2067  1.2501  1.8971
14730TIP3    H265682   4.351   6.428  12.288  0.2146 -0.0094  1.4677
14731TIP3   OH265683   0.497   2.062   6.828 -0.3727  0.2942 -0.5141
14731TIP3    H165684   0.484   2.051   6.734  0.3598  2.5579 -0.9278
14731TIP3    H265685   0.589   2.039   6.842  0.1302  2.0578 -0.7569
14732TIP3   OH265686   1.823   0.412  12.073 -0.4583 -0.2449  0.3831
14732TIP3    H165687   1.870   0.394  11.992 -1.0721 -1.5947  0.3063
14732TIP3    H265688   1.870   0.486  12.112 -0.9371  1.3449 -1.8469
14733TIP3   OH265689   4.254   6.203   4.027 -0.1630  0.7376  0.3212
14733TIP3    H165690   4.311   6.129   4.049 -1.2659  0.4159  2.2729
14733TIP3    H265691   4.290   6.276   4.077 -0.0798  1.1296 -0.2953
14734TIP3   OH265692   5.668   4.402   2.622  0.1729  0.3027  0.6888
14734TIP3    H165693   5.716   4.372   2.545 -1.4848 -0.4136 -0.1146
14734TIP3    H265694   5.648   4.322   2.670 -2.5435  0.1946 -0.4285
14735TIP3   OH265695   3.009   4.995   2.095  0.3447 -0.5738  0.4364
14735TIP3    H165696   2.958   5.007   2.176 -1.7402  0.3793 -0.9248
14735TIP3    H265697   2.983   5.068   2.040  1.5870 -1.3030 -1.1963
14736TIP3   OH265698   2.925   3.791  16.603  0.0011  0.5532 -0.1969
14736TIP3    H165699   2.947   3.756  16.516 -0.2989 -0.4821  0.1400
14736TIP3    H265700   2.839   3.832  16.591 -0.9796 -1.3150  0.0316
14737TIP3   OH265701   4.693   5.886  14.679 -0.2083 -0.1954  0.2091
14737TIP3    H165702   4.756   5.922  14.741  0.0111  0.4208 -0.3635
14737TIP3    H265703   4.743   5.870  14.599 -0.8291  0.6307 -0.3632
14738TIP3   OH265704   6.508   3.688  11.997  0.0993  0.0859 -0.1592
14738TIP3    H165705   6.542   3.637  11.923  1.4334  1.3381 -0.4550
14738TIP3    H265706   6.502   3.778  11.964  1.3305  0.7950  1.4152
14739TIP3   OH265707   2.508   3.436  15.514  0.1568  0.1381 -0.0089
14739TIP3    H165708   2.439   3.493  15.480  0.4355  0.0834 -0.6775
14739TIP3    H265709   2.548   3.485  15.586 -1.4753 -0.3724  1.3159
14740TIP3   OH265710   2.816   0.136  11.854 -0.1445 -0.2142 -0.9722
14740TIP3    H165711   2.723   0.161  11.851  0.0457  0.6036 -0.5160
14740TIP3    H265712   2.861   0.216  11.882  0.4896 -1.1107  0.7451
14741TIP3   OH265713   3.445   2.142   2.939 -0.9823  0.3511  0.2109
14741TIP3    H165714   3.469   2.187   3.020 -1.3332  1.7743 -0.4421
14741TIP3    H265715   3.448   2.210   2.872  0.0269 -0.9383 -1.1310
14742TIP3   OH265716   2.133   2.644  13.344  0.0630 -1.0188 -0.0691
14742TIP3    H165717   2.135   2.548  13.339  0.7980 -1.1175  1.5927
14742TIP3    H265718   2.225   2.670  13.345 -0.1027 -0.4084  0.8782
14743TIP3   OH265719   4.878   6.609   1.178  0.6055 -0.3303 -0.7845
14743TIP3    H165720   4.898   6.653   1.260 -1.8489 -0.8446  0.1761
14743TIP3    H265721   4.882   6.678   1.112  0.8998  0.4557  0.0371
14744TIP3   OH265722   1.331   0.688   2.474 -0.1161  0.1711  0.1046
14744TIP3    H165723   1.264   0.756   2.480 -0.9002 -0.6480  1.1572
14744TIP3    H265724   1.413   0.735   2.466 -0.7526  1.2147 -0.4295
14745TIP3   OH265725   1.082   3.162   0.543  0.2295  0.6593  0.0965
14745TIP3    H165726   1.175   3.170   0.523  0.4991 -0.5576  0.7298
14745TIP3    H265727   1.072   3.205   0.628 -0.2355  2.7268 -0.9589
14746TIP3   OH265728   5.349   1.347  10.893 -0.5395  0.4373  0.2919
14746TIP3    H165729   5.374   1.346  10.986  0.7201 -0.6943 -0.0385
14746TIP3    H265730   5.420   1.393  10.849 -0.9687  0.6665 -0.1753
14747TIP3   OH265731   3.838   5.924  12.666  0.1835 -0.1585  0.4081
14747TIP3    H165732   3.930   5.909  12.644 -0.0027 -0.9377  0.1407
14747TIP3    H265733   3.819   6.011  12.630  0.6954 -0.1760  0.0857
14748TIP3   OH265734   0.421   4.939  10.729  0.2012  0.0706  0.1738
14748TIP3    H165735   0.410   5.034  10.726  2.4485  0.5824  3.3290
14748TIP3    H265736   0.353   4.909  10.789  0.8510  0.0180  0.8967
14749TIP3   OH265737   6.638   3.227  16.096 -0.2079 -0.0108 -0.4650
14749TIP3    H165738   6.658   3.154  16.155  0.7499 -0.9870 -1.9465
14749TIP3    H265739   6.590   3.289  16.151 -2.7968 -2.5463  0.3978
14750TIP3   OH265740   2.859   5.164   0.891  0.1473  0.3393 -0.2354
14750TIP3    H165741   2.835   5.129   0.977  2.2253 -0.5548  0.0330
14750TIP3    H265742   2.846   5.090   0.832 -0.7164  0.7822 -0.6178
14751TIP3   OH265743   5.843   5.424   3.970  0.3941  0.1543  0.0403
14751TIP3    H165744   5.860   5.332   3.948  1.1537 -0.2317  2.0834
14751TIP3    H265745   5.895   5.473   3.906  0.2357 -0.8078 -0.8732
14752TIP3   OH265746   4.563   6.451  11.105 -0.2236 -0.1276 -0.0254
14752TIP3    H165747   4.567   6.462  11.010 -0.1870 -0.5136 -0.0695
14752TIP3    H265748   4.572   6.357  11.119  0.4908  0.0015  0.4041
14753TIP3   OH265749   0.605   1.219   5.954  0.2579 -0.1660 -0.4464
14753TIP3    H165750   0.606   1.280   6.028  3.3114 -0.5331 -0.0611
14753TIP3    H265751   0.607   1.132   5.995 -0.8665 -0.4795 -1.0082
14754TIP3   OH265752   2.798   2.318  15.543  0.0955  0.2467  0.1387
14754TIP3    H165753   2.778   2.378  15.470  2.4277  0.2105 -0.6003
14754TIP3    H265754   2.717   2.268  15.555 -0.4162  0.3213 -2.3651
14755TIP3   OH265755   5.357   5.036  16.093  0.2748  0.1538 -0.0165
14755TIP3    H165756   5.444   5.040  16.054  0.5544 -1.0034  0.4612
14755TIP3    H265757   5.297   5.046  16.019  0.8020 -1.0431 -0.6283
14756TIP3   OH265758   4.687   6.490   2.606  0.2728  0.5188 -0.3385
14756TIP3    H165759   4.660   6.571   2.561  0.1615  0.3270 -0.6244
14756TIP3    H265760   4.775   6.473   2.572  0.5798  0.8994  0.2548
14757TIP3   OH265761   4.231   4.421  16.949 -0.3405  0.2864  0.5997
14757TIP3    H165762   4.195   4.353  16.893 -0.1958 -0.6501  1.6146
14757TIP3    H265763   4.294   4.376  17.005  1.9214  1.7306 -0.6028
14758TIP3   OH265764   0.201   6.355  16.239 -0.0785 -0.0527 -0.1330
14758TIP3    H165765   0.209   6.270  16.282 -0.4252  0.7178  1.5538
14758TIP3    H265766   0.109   6.379  16.249  0.3307  1.2060  0.8589
14759TIP3   OH265767   2.247   0.132   0.377  0.1109 -0.0674  0.2670
14759TIP3    H165768   2.169   0.107   0.426  1.2408 -0.3810  1.9898
14759TIP3    H265769   2.282   0.049   0.343  0.7669 -0.1813  1.1928
14760TIP3   OH265770   0.802   1.224   1.331  0.4689 -0.3053  0.0651
14760TIP3    H165771   0.811   1.169   1.409 -0.0369 -2.9099 -1.5987
14760TIP3    H265772   0.708   1.234   1.320  0.5394  0.0062 -0.2436
14761TIP3   OH265773   1.523   0.591   5.129 -0.3113 -0.1218  0.7133
14761TIP3    H165774   1.547   0.608   5.220 -1.7625  0.1040  1.0712
14761TIP3    H265775   1.437   0.550   5.134  0.0027 -1.0051 -0.5191
14762TIP3   OH265776   5.028   1.226   3.033 -0.3772  0.5705  0.2270
14762TIP3    H165777   5.115   1.197   3.007 -0.0551  0.9233  0.8887
14762TIP3    H265778   4.969   1.159   2.998 -0.0385  1.2794 -1.8086
14763TIP3   OH265779   3.597   2.696   0.073 -0.9066 -0.2267  0.0467
14763TIP3    H165780   3.592   2.610   0.032 -2.2749 -0.0080 -0.3150
14763TIP3    H265781   3.639   2.681   0.157  2.7253 -0.5861 -1.6459
14764TIP3   OH265782   0.991   4.622  12.643  0.4602 -0.4061  0.3943
14764TIP3    H165783   0.906   4.597  12.605  0.9471 -1.4523 -0.0652
14764TIP3    H265784   0.987   4.589  12.732  1.5595 -3.4876 -0.5480
14765TIP3   OH265785   5.680   6.362  16.050  0.2135  0.9662 -0.2244
14765TIP3    H165786   5.666   6.276  16.010 -2.9713 -0.3657  3.1816
14765TIP3    H265787   5.757   6.350  16.106 -0.5781  0.1066  0.7021
14766TIP3   OH265788   6.381   1.160   5.475  0.1621  0.5507  0.0911
14766TIP3    H165789   6.404   1.238   5.425  2.0140 -0.4489 -0.6956
14766TIP3    H265790   6.287   1.170   5.493  0.2982  2.8179 -0.1796
14767TIP3   OH265791   1.491   1.588   3.771  0.2886  0.3511  0.4193
14767TIP3    H165792   1.532   1.501   3.766  0.0549  0.2278  0.6052
14767TIP3    H265793   1.546   1.637   3.833  2.3775  1.4316 -2.0884
14768TIP3   OH265794   4.512   2.167  11.731  0.1017 -0.1967 -0.2301
14768TIP3    H165795   4.458   2.119  11.668  0.2438 -1.7811  0.8028
14768TIP3    H265796   4.469   2.252  11.738  0.8001  0.5218 -3.3627
14769TIP3   OH265797   0.103   5.331   4.652  0.8371  0.1189 -0.3355
14769TIP3    H165798   0.091   5.398   4.718  0.4658 -1.2409  1.0260
14769TIP3    H265799   0.132   5.379   4.574 -0.6567  1.9776  0.1860
14770TIP3   OH265800   4.187   2.245  12.716 -0.5059  0.0945  0.2808
14770TIP3    H165801   4.120   2.178  12.704 -0.4963  0.1346 -0.0008
14770TIP3    H265802   4.145   2.312  12.770 -0.0840 -0.7743  1.7545
14771TIP3   OH265803   0.387   5.696  16.173 -0.0124 -0.4345 -0.5851
14771TIP3    H165804   0.442   5.621  16.196 -0.8339 -0.2947  2.2047
14771TIP3    H265805   0.421   5.768  16.226 -2.6910 -0.3185  1.1716
14772TIP3   OH265806   1.499   5.035   3.030 -0.0949 -0.3507 -0.1888
14772TIP3    H165807   1.449   5.099   3.080  0.5015 -1.1921  1.5684
14772TIP3    H265808   1.576   5.016   3.085  2.1008  0.7379 -2.6746
14773TIP3   OH265809   5.171   0.553   2.018 -0.0390  0.1675 -0.7527
14773TIP3    H165810   5.228   0.570   2.092 -0.4347 -1.8095  0.0546
14773TIP3    H265811   5.170   0.636   1.969  1.6138  0.9618  0.4691
14774TIP3   OH265812   3.093   6.383   3.534  0.1160 -0.5111 -0.3006
14774TIP3    H165813   3.032   6.309   3.536 -2.9645  1.7914 -1.0132
14774TIP3    H265814   3.072   6.433   3.612  2.0803 -0.2675  0.1160
14775TIP3   OH265815   3.252   5.090   5.189 -0.1453  0.1542  0.0314
14775TIP3    H165816   3.308   5.163   5.216  0.0559  0.1321 -0.3073
14775TIP3    H265817   3.228   5.112   5.098  0.1482 -0.3366 -0.1657
14776TIP3   OH265818   4.603   6.311   3.534 -0.1708 -0.1594  0.1215
14776TIP3    H165819   4.690   6.330   3.499  0.3908 -0.7065  1.1748
14776TIP3    H265820   4.551   6.287   3.457  0.7765 -0.4347 -0.4457
14777TIP3   OH265821   2.036   0.135   2.928  0.1996 -0.4437  0.6866
14777TIP3    H165822   1.962   0.185   2.962 -0.3669 -0.2683 -0.7329
14777TIP3    H265823   2.064   0.184   2.850 -0.5762 -2.4235 -0.9481
14778TIP3   OH265824   2.474   3.431   5.802  0.5544  0.0121 -0.3259
14778TIP3    H165825   2.543   3.424   5.735 -0.3042  2.2550 -1.5364
14778TIP3    H265826   2.393   3.425   5.752 -0.1304 -0.1152  0.7794
14779TIP3   OH265827   4.777   0.656  12.778  0.4743 -0.1384  0.1357
14779TIP3    H165828   4.776   0.577  12.832 -1.6959 -0.7782 -0.7633
14779TIP3    H265829   4.803   0.726  12.839  2.3342 -1.4629  0.9775
14780TIP3   OH265830   5.615   3.898   0.450 -0.0595  0.1174  0.0805
14780TIP3    H165831   5.651   3.893   0.361 -0.1010  0.7952  0.0185
14780TIP3    H265832   5.687   3.935   0.502  0.0082 -0.3965  0.3600
14781TIP3   OH265833   3.395   3.581   3.106 -0.7438  0.9747  0.6479
14781TIP3    H165834   3.316   3.615   3.064 -2.0833 -1.1087  1.3387
14781TIP3    H265835   3.441   3.535   3.036 -1.6927 -0.3316  0.8429
14782TIP3   OH265836   6.485   0.300  15.035 -0.4204  0.1053  0.3202
14782TIP3    H165837   6.493   0.204  15.029 -0.2790  0.2068 -2.4518
14782TIP3    H265838   6.574   0.329  15.056 -0.3638 -0.3439  0.7315
14783TIP3   OH265839   5.080   1.182  11.284  0.0095 -0.1135  0.7296
14783TIP3    H165840   4.994   1.222  11.297  0.0824 -0.0835  1.1534
14783TIP3    H265841   5.067   1.119  11.214  0.6084  2.8838 -2.3500
14784TIP3   OH265842   2.887   4.314   0.224  0.5199  0.7245  0.4178
14784TIP3    H165843   2.792   4.301   0.224  0.5638  0.3891  0.1135
14784TIP3    H265844   2.922   4.235   0.183  0.9106  1.0053  0.2047
14785TIP3   OH265845   3.770   1.035   2.449 -0.2340 -0.2276  0.4572
14785TIP3    H165846   3.705   1.001   2.388  1.5242 -0.6330 -1.2923
14785TIP3    H265847   3.758   1.130   2.446 -0.8015 -0.2997  0.2416
14786TIP3   OH265848   4.288   6.258  15.453  0.3517 -0.1966 -0.5657
14786TIP3    H165849   4.318   6.284  15.366 -1.2167  3.6980 -0.1461
14786TIP3    H265850   4.193   6.251  15.445 -0.0528  2.2136  1.1485
14787TIP3   OH265851   0.113   0.093  15.779  0.1828 -0.4247  0.0119
14787TIP3    H165852   0.049   0.059  15.717  1.4376 -0.0652 -1.5475
14787TIP3    H265853   0.178   0.023  15.787  0.1763 -0.3556  0.7079
14788TIP3   OH265854   1.687   1.255  12.212  0.1995 -0.1395  0.0590
14788TIP3    H165855   1.733   1.220  12.136  0.3463 -0.8109  0.4430
14788TIP3    H265856   1.631   1.184  12.242 -2.6062  1.2665 -1.5160
14789TIP3   OH265857   3.942   4.115   3.980  0.2803 -0.2170 -0.1577
14789TIP3    H165858   4.007   4.172   4.021 -0.6151 -0.5510  1.8954
14789TIP3    H265859   3.871   4.174   3.955  0.0268 -0.1995  0.5524
14790TIP3   OH265860   4.206   3.987   5.503  0.4523  0.6240  0.3228
14790TIP3    H165861   4.278   4.030   5.550 -0.9428  0.7948  2.4883
14790TIP3    H265862   4.141   4.057   5.491 -0.0686  0.0947  0.0159
14791TIP3   OH265863   6.493   2.665  16.727  0.1481  0.0369 -0.8700
14791TIP3    H165864   6.587   2.660  16.706  0.1741  0.3013 -0.8181
14791TIP3    H265865   6.465   2.573  16.733  0.4067 -0.0431 -0.8710
14792TIP3   OH265866   4.591   3.968   5.668  0.1446  0.1131 -0.1510
14792TIP3    H165867   4.575   3.879   5.638  0.4990  0.3584 -1.1075
14792TIP3    H265868   4.681   3.987   5.640  0.6162  0.2442  1.3705
14793TIP3   OH265869   1.479   5.683  11.282 -0.1609  0.1969  0.7996
14793TIP3    H165870   1.557   5.641  11.247  1.2295  1.7932  1.8641
14793TIP3    H265871   1.429   5.710  11.204  0.7957  0.0017  0.1066
14794TIP3   OH265872   0.302   0.072   1.228  0.7201  0.0345 -0.3908
14794TIP3    H165873   0.347  -0.004   1.192  1.9154 -1.0748  3.0933
14794TIP3    H265874   0.213   0.067   1.192 -0.2517 -4.8473  1.8784
14795TIP3   OH265875   2.551   1.686   3.858  0.3060 -0.5960 -0.2549
14795TIP3    H165876   2.574   1.602   3.898 -2.2542 -1.1843  0.2103
14795TIP3    H265877   2.531   1.744   3.932 -0.9556 -0.5797 -0.5763
14796TIP3   OH265878   6.148   4.326  13.786 -0.0211  0.3297  0.0816
14796TIP3    H165879   6.231   4.296  13.748  0.5163  0.6685  0.9484
14796TIP3    H265880   6.091   4.341  13.711  0.7561  0.2312 -0.5374
14797TIP3   OH265881   3.765   3.683  12.762 -0.1416 -0.0509 -0.0472
14797TIP3    H165882   3.770   3.588  12.756 -1.4922 -0.1674  0.3252
14797TIP3    H265883   3.745   3.700  12.854  1.6038  0.6935  0.2285
14798TIP3   OH265884   3.019   4.213   5.660  0.1866  0.1250 -0.5521
14798TIP3    H165885   2.972   4.199   5.743 -0.1499  0.6387 -0.6522
14798TIP3    H265886   3.105   4.246   5.687  0.7303 -1.4034 -0.3440
14799TIP3   OH265887   3.349   1.825   0.861 -0.3294 -0.2542 -0.2059
14799TIP3    H165888   3.374   1.916   0.877  1.4871 -0.2972 -2.3162
14799TIP3    H265889   3.413   1.774   0.911  0.0865 -0.3466 -0.8163
14800TIP3   OH265890   5.833   4.401   5.938 -0.2390 -0.2568  0.2742
14800TIP3    H165891   5.822   4.456   6.016  1.5014 -0.7734  0.9395
14800TIP3    H265892   5.755   4.417   5.886  0.0846  2.7314  0.5172
14801TIP3   OH265893   1.103   3.894  11.515  0.8113  0.4064 -0.4590
14801TIP3    H165894   1.051   3.814  11.517  0.3772  0.7046  0.6088
14801TIP3    H265895   1.160   3.883  11.438 -1.0222  0.2159 -1.8484
14802TIP3   OH265896   1.088   5.537   0.537 -0.7209  0.2978 -0.3398
14802TIP3    H165897   1.049   5.450   0.543 -1.9465  0.8940  1.2244
14802TIP3    H265898   1.114   5.558   0.626  1.7802  0.6260 -1.0685
14803TIP3   OH265899   0.928   3.650   1.320  0.0299  0.8731 -0.2232
14803TIP3    H165900   0.846   3.689   1.350  0.3765  0.6915  1.0018
14803TIP3    H265901   0.993   3.674   1.387  0.4088 -1.1412  0.2121
14804TIP3   OH265902   0.115   5.849   1.645  0.7359  0.4171  0.4155
14804TIP3    H165903   0.149   5.764   1.673 -0.1864 -0.4791 -1.0326
14804TIP3    H265904   0.063   5.829   1.567 -0.1023  2.2200  0.4701
14805TIP3   OH265905   5.286   4.064  11.431  0.1331  0.3824 -0.4419
14805TIP3    H165906   5.220   4.125  11.464  0.3709  1.6215 -2.1090
14805TIP3    H265907   5.353   4.120  11.393  1.1441 -0.9065 -0.6231
14806TIP3   OH265908   2.991   0.626  15.642  0.1172 -0.4035 -0.1813
14806TIP3    H165909   3.081   0.638  15.673  0.2341 -0.2560 -0.5652
14806TIP3    H265910   2.958   0.714  15.630  1.1677 -0.3329 -3.5467
14807TIP3   OH265911   6.085   0.893   5.362 -0.5519 -0.4291  0.1862
14807TIP3    H165912   6.058   0.823   5.302 -0.7333 -0.8759  0.7761
14807TIP3    H265913   6.180   0.885   5.366 -0.3638  0.6170 -1.2485
14808TIP3   OH265914   6.328   6.526   3.937  0.6184 -0.3308  0.2770
14808TIP3    H165915   6.386   6.451   3.949  0.3584 -0.7548 -1.0246
14808TIP3    H265916   6.259   6.513   4.002  1.8142  0.0685  1.7025
14809TIP3   OH265917   6.708   6.663  17.145 -0.8088  0.0162  0.4054
14809TIP3    H165918   6.723   6.705  17.060  1.7045  0.7305  1.1102
14809TIP3    H265919   6.660   6.583  17.124  1.0032 -0.5728 -1.9138
14810TIP3   OH265920   6.563   1.966   1.764 -0.1730  0.2435 -0.3840
14810TIP3    H165921   6.629   1.921   1.712 -2.2246 -0.6866 -2.3292
14810TIP3    H265922   6.539   2.042   1.712 -0.5259  0.6763  0.3919
14811TIP3   OH265923   5.762   3.762   6.105 -0.2724 -0.2176 -0.0359
14811TIP3    H165924   5.743   3.844   6.058  1.2762 -0.0657 -0.4307
14811TIP3    H265925   5.676   3.731   6.132 -1.0104  0.8873 -0.9770
14812TIP3   OH265926   1.760   1.730   1.716  0.4518 -0.2845 -0.2123
14812TIP3    H165927   1.825   1.744   1.647  1.2378  0.5228  0.6534
14812TIP3    H265928   1.808   1.686   1.786 -0.3499 -1.1408 -0.1790
14813TIP3   OH265929   5.216   4.106  13.621  0.3523  0.2481  0.6231
14813TIP3    H165930   5.181   4.017  13.614  1.1284  0.0280 -0.6088
14813TIP3    H265931   5.138   4.161  13.634 -0.6213 -0.1487 -2.7455
14814TIP3   OH265932   1.770   6.019   0.784  0.1440  0.1141 -0.1350
14814TIP3    H165933   1.800   6.073   0.711 -0.9332 -0.5659 -1.1153
14814TIP3    H265934   1.674   6.017   0.775  0.1365 -1.8129 -0.0355
14815TIP3   OH265935   3.449   4.408   5.454  0.7362 -0.0501 -0.2601
14815TIP3    H165936   3.473   4.467   5.383 -0.6463  1.3474  0.3770
14815TIP3    H265937   3.355   4.392   5.442  0.5152  0.0473  1.1079
14816TIP3   OH265938   5.182   2.173  11.278  0.7435  0.0889  0.5899
14816TIP3    H165939   5.242   2.232  11.324 -0.6916  0.8561  1.5559
14816TIP3    H265940   5.207   2.180  11.186  0.7555  2.0559  0.7036
14817TIP3   OH265941   0.777   1.905   0.030  0.0899  0.0904 -0.3877
14817TIP3    H165942   0.759   1.936   0.119  1.2396  1.6566 -0.6710
14817TIP3    H265943   0.822   1.821   0.043  3.1235  1.7241  0.7130
14818TIP3   OH265944   0.415   3.522   1.153  0.8584 -0.2778 -0.1704
14818TIP3    H165945   0.481   3.589   1.138  0.7573  0.1764  1.2671
14818TIP3    H265946   0.415   3.509   1.248  1.3534 -2.8097 -0.4435
14819TIP3   OH265947   5.706   5.318   0.459  0.6875 -0.5189 -0.3027
14819TIP3    H165948   5.672   5.239   0.501  0.4147  0.2514  0.9535
14819TIP3    H265949   5.685   5.307   0.366  0.1597 -1.6611 -0.0553
14820TIP3   OH265950   4.677   5.126  16.215 -0.1036  0.4888  0.5031
14820TIP3    H165951   4.624   5.048  16.201  1.6336 -0.6225 -0.1809
14820TIP3    H265952   4.723   5.110  16.297 -0.7382  1.3958  1.0446
14821TIP3   OH265953   1.963   0.244   4.103  0.1643 -0.7650  0.1555
14821TIP3    H165954   1.978   0.233   4.197  1.6657 -1.6322 -0.1645
14821TIP3    H265955   1.970   0.339   4.090  0.4181 -0.6778  0.8412
14822TIP3   OH265956   5.544   1.073   2.874  0.6684 -0.2587  0.2261
14822TIP3    H165957   5.600   1.014   2.925 -0.2088 -2.7852 -1.5458
14822TIP3    H265958   5.510   1.018   2.803  0.0001  2.4907 -1.7278
14823TIP3   OH265959   4.917   3.086   1.492 -0.6686 -0.2597 -0.4973
14823TIP3    H165960   4.951   3.039   1.415 -1.7493 -1.8213 -0.0622
14823TIP3    H265961   4.962   3.046   1.566  3.5787  3.9443 -0.3251
14824TIP3   OH265962   4.341   1.249   0.193  0.1089 -0.0638 -0.1049
14824TIP3    H165963   4.264   1.277   0.242 -0.2424  1.9438 -1.6485
14824TIP3    H265964   4.415   1.288   0.240  0.2152 -1.8565  1.2857
14825TIP3   OH265965   4.818   6.282  11.344 -0.0207 -0.2215  0.6453
14825TIP3    H165966   4.904   6.248  11.318  0.1253  1.6417 -1.6109
14825TIP3    H265967   4.757   6.241  11.283 -0.2788  0.8716  0.1497
14826TIP3   OH265968   3.115   5.221  15.381 -0.2641  0.7196  0.1537
14826TIP3    H165969   3.027   5.215  15.419  0.7826 -0.6824  2.5991
14826TIP3    H265970   3.174   5.212  15.456  1.9910  0.6560 -1.5271
14827TIP3   OH265971   0.288   2.372  14.071  0.0096 -0.3892 -0.1863
14827TIP3    H165972   0.351   2.373  14.000 -0.7710  0.7311 -0.9040
14827TIP3    H265973   0.280   2.464  14.097 -2.6372 -0.1812 -1.3740
14828TIP3   OH265974   4.734   2.019   2.799 -0.2440 -0.1427  0.0610
14828TIP3    H165975   4.740   2.083   2.869  0.4789  0.5240 -0.5958
14828TIP3    H265976   4.641   1.995   2.796 -0.2830 -0.1475  1.2022
14829TIP3   OH265977   1.566   2.447  11.554 -0.0906 -0.0022 -0.1745
14829TIP3    H165978   1.644   2.493  11.521 -1.4592  0.2680 -3.4450
14829TIP3    H265979   1.524   2.511  11.611  2.0556 -0.2031  1.7832
14830TIP3   OH265980   3.732   6.768  17.159 -0.1237  0.0224  0.2713
14830TIP3    H165981   3.765   6.678  17.159 -2.6085 -1.0252 -1.8002
14830TIP3    H265982   3.767   6.806  17.078 -3.0185 -0.8647 -1.5648
14831TIP3   OH265983   0.560   2.888  13.931 -0.1595 -0.0468  0.0753
14831TIP3    H165984   0.606   2.906  13.849  0.2357 -1.5721 -0.0692
14831TIP3    H265985   0.519   2.803  13.917 -0.9841  0.1595  1.0953
14832TIP3   OH265986   5.902   3.875   3.207  0.4956  0.1834  0.1547
14832TIP3    H165987   5.809   3.897   3.212  0.1110 -0.6876 -2.0178
14832TIP3    H265988   5.948   3.953   3.239 -0.9564  1.0945  0.0742
14833TIP3   OH265989   3.396   2.184  11.603 -0.2221  0.1788 -0.2186
14833TIP3    H165990   3.352   2.176  11.519  0.1316  0.2655 -0.4151
14833TIP3    H265991   3.387   2.098  11.644  0.9859 -0.3647 -1.0350
14834TIP3   OH265992   4.954   6.661   3.080 -0.1627 -1.1570 -0.1681
14834TIP3    H165993   5.032   6.611   3.054 -0.2041 -0.2761 -2.2228
14834TIP3    H265994   4.898   6.598   3.125 -0.1762 -3.0031 -2.5724
14835TIP3   OH265995   5.735   5.065  16.617  0.9865 -0.9203 -0.3423
14835TIP3    H165996   5.693   4.991  16.661  2.2461 -0.8196  1.0945
14835TIP3    H265997   5.667   5.132  16.614 -0.4961 -2.3704 -2.5066
14836TIP3   OH265998   0.686   2.028   5.249 -0.3724 -0.1123 -0.1010
14836TIP3    H165999   0.760   1.968   5.245 -0.3716 -0.0482 -2.0445
14836TIP3    H266000   0.623   1.985   5.307  0.5836 -0.8476  0.4091
14837TIP3   OH266001   2.326   4.188   0.040  1.0269  0.1298 -0.3595
14837TIP3    H166002   2.269   4.112   0.054  1.5287 -0.7517 -2.5924
14837TIP3    H266003   2.304   4.248   0.111 -0.6380 -1.3739  0.4828
14838TIP3   OH266004   2.390   2.778   2.634 -0.0548 -0.4908 -0.2410
14838TIP3    H166005   2.460   2.714   2.622  0.1010 -0.9656  2.6357
14838TIP3    H266006   2.433   2.854   2.675 -1.0423 -0.4589  0.7785
14839TIP3   OH266007   6.116   2.648   1.345 -0.5543  0.2215  0.5615
14839TIP3    H166008   6.064   2.720   1.381  0.1610  1.6085 -1.0457
14839TIP3    H266009   6.138   2.676   1.256 -1.0035 -2.4060 -0.4644
14840TIP3   OH266010   0.202   3.525  14.147  0.1573 -0.0394  0.1174
14840TIP3    H166011   0.218   3.571  14.230 -1.0952 -0.2900  0.5131
14840TIP3    H266012   0.173   3.438  14.173  0.0073 -0.2076 -0.5918
14841TIP3   OH266013   0.145   6.729  14.272  0.5724 -0.1406 -0.4251
14841TIP3    H166014   0.198   6.671  14.326 -1.0449 -1.6024 -0.3484
14841TIP3    H266015   0.168   6.817  14.302  2.2240 -0.7644  0.2462
14842TIP3   OH266016   0.157   2.492  13.213 -0.1962 -0.2883 -0.3755
14842TIP3    H166017   0.217   2.488  13.138  0.6351 -0.5717  0.2786
14842TIP3    H266018   0.215   2.506  13.289 -0.8479 -1.5047  0.3946
14843TIP3   OH266019   5.021   6.542  10.972  0.4171 -1.1321 -0.2125
14843TIP3    H166020   4.979   6.469  10.928  0.6388 -0.8049 -0.9853
14843TIP3    H266021   5.025   6.611  10.905 -1.6662  0.3176  1.0609
14844TIP3   OH266022   0.189   3.222   5.457  0.1739  0.0419 -0.3780
14844TIP3    H166023   0.275   3.256   5.433 -0.3473  2.4760  0.8162
14844TIP3    H266024   0.179   3.245   5.550 -1.5811 -0.5357 -0.3846
14845TIP3   OH266025   3.006   3.555   3.813 -0.2443 -0.2430 -0.1461
14845TIP3    H166026   2.983   3.465   3.836  0.1328  0.1293  1.7901
14845TIP3    H266027   3.099   3.564   3.835 -0.4805  0.8598  0.4836
14846TIP3   OH266028   1.709   5.366   1.466  0.4038 -0.0394 -0.0857
14846TIP3    H166029   1.699   5.441   1.407 -1.2176  0.0435  0.2529
14846TIP3    H266030   1.664   5.294   1.422  1.9104 -0.8357 -0.3861
14847TIP3   OH266031   6.101   3.817  14.904 -0.3065  0.0623 -0.4839
14847TIP3    H166032   6.084   3.753  14.973 -0.2737 -0.3542 -0.8590
14847TIP3    H266033   6.071   3.900  14.940  1.9769  0.3200  1.0026
14848TIP3   OH266034   5.911   6.078   5.170  0.3890  0.1505 -0.4550
14848TIP3    H166035   5.973   6.014   5.135  0.3664 -1.1588  1.7073
14848TIP3    H266036   5.914   6.065   5.265 -3.9947 -0.8093 -0.2233
14849TIP3   OH266037   1.911   5.972  13.644  0.3081 -0.2421 -0.3039
14849TIP3    H166038   1.825   5.931  13.657  0.9967 -1.3394  0.9282
14849TIP3    H266039   1.890   6.059  13.609 -1.2660 -0.8032 -0.8497
14850TIP3   OH266040   0.539   6.495   6.231  0.1591  0.6783  0.2658
14850TIP3    H166041   0.572   6.406   6.241 -0.8318  0.1974 -0.5515
14850TIP3    H266042   0.617   6.547   6.207  0.4990 -0.2512 -0.7182
14851TIP3   OH266043   0.709   0.994  15.023 -0.1406  0.0240  0.4884
14851TIP3    H166044   0.768   0.926  15.055 -0.5892 -0.2309  0.7939
14851TIP3    H266045   0.684   0.965  14.935  0.7396  0.4964  0.0714
14852TIP3   OH266046   0.489   2.530   3.250 -0.1412 -0.0474  0.1356
14852TIP3    H166047   0.550   2.570   3.188 -0.0746  2.1503  1.4934
14852TIP3    H266048   0.543   2.506   3.325 -0.8928  2.5544  1.6482
14853TIP3   OH266049   1.450   6.232  16.677  0.4092  0.0422 -0.0032
14853TIP3    H166050   1.484   6.267  16.760  2.4627 -0.4227 -0.5829
14853TIP3    H266051   1.370   6.281  16.661 -0.4707 -0.3533  2.6070
14854TIP3   OH266052   5.124   0.381   0.933 -0.0853  0.1660  0.4489
14854TIP3    H166053   5.032   0.380   0.907 -0.4930 -0.3090  1.8206
14854TIP3    H266054   5.141   0.292   0.966  0.8879  0.2210  0.1298
14855TIP3   OH266055   5.514   6.621   1.583  0.5217 -0.0919 -0.3756
14855TIP3    H166056   5.540   6.662   1.666 -0.0167 -0.9618  0.2438
14855TIP3    H266057   5.596   6.586   1.547  1.1240  2.1288 -1.3025
14856TIP3   OH266058   4.270   4.705   2.811  0.6876  0.4205  0.4377
14856TIP3    H166059   4.359   4.669   2.805  0.0986 -0.9786 -0.2881
14856TIP3    H266060   4.224   4.647   2.871 -0.3791 -0.2760 -0.9987
14857TIP3   OH266061   0.947   6.387   6.566  0.6132  0.7419  0.6076
14857TIP3    H166062   0.903   6.456   6.615  0.2147  2.2571 -1.7397
14857TIP3    H266063   1.040   6.410   6.570  0.4124  1.9443 -0.8368
14858TIP3   OH266064   2.283   3.863   0.359 -0.2369  0.4733 -0.3962
14858TIP3    H166065   2.301   3.919   0.436  0.7316  0.0351 -0.2875
14858TIP3    H266066   2.266   3.925   0.288  2.8746  1.0489 -0.7874
14859TIP3   OH266067   0.224   6.281  12.245  0.1435 -0.0500 -0.2776
14859TIP3    H166068   0.290   6.311  12.308 -0.1564  0.5907 -0.2550
14859TIP3    H266069   0.160   6.234  12.297  0.3916 -0.3524 -0.2452
14860TIP3   OH266070   5.954   3.265   0.568 -0.4440 -0.0277 -0.1867
14860TIP3    H166071   5.935   3.254   0.475  0.9932 -3.2129 -0.2222
14860TIP3    H266072   5.871   3.246   0.611 -0.6948 -0.2507 -0.7555
14861TIP3   OH266073   1.842   6.317   5.296 -0.1783 -0.4173 -0.1582
14861TIP3    H166074   1.872   6.262   5.224 -0.6275 -0.5433 -0.2515
14861TIP3    H266075   1.896   6.290   5.371  0.1821 -0.3914 -0.4089
14862TIP3   OH266076   0.613   4.747  15.227 -0.3658  0.1014 -0.6738
14862TIP3    H166077   0.619   4.655  15.254 -1.2810 -0.3089 -1.7830
14862TIP3    H266078   0.544   4.784  15.282 -1.7580 -0.5592 -1.9014
14863TIP3   OH266079   6.509   3.120  15.840 -0.0413  0.6991  0.2549
14863TIP3    H166080   6.498   3.177  15.763  1.1392  0.0462 -0.4290
14863TIP3    H266081   6.513   3.181  15.914  0.0866  1.4429 -0.3451
14864TIP3   OH266082   5.846   0.405   3.602  0.2954 -0.1106  0.1033
14864TIP3    H166083   5.877   0.479   3.654  0.2298  0.9896 -1.3520
14864TIP3    H266084   5.915   0.390   3.538 -1.2616  1.2037 -2.0281
14865TIP3   OH266085   4.102   3.606   1.964 -0.0960  0.5084  0.0615
14865TIP3    H166086   4.090   3.514   1.986  0.6885  0.3538 -0.1381
14865TIP3    H266087   4.046   3.619   1.887 -0.7128  0.3741  0.4720
14866TIP3   OH266088   0.285   4.864   0.979 -0.6560 -0.1044  0.1484
14866TIP3    H166089   0.219   4.847   0.913 -0.2283 -1.3432  0.0219
14866TIP3    H266090   0.265   4.804   1.051  0.5056 -0.7477 -0.0299
14867TIP3   OH266091   6.322   6.283   1.583 -0.2071  0.0992  0.0654
14867TIP3    H166092   6.240   6.307   1.541 -1.2083  2.5373  3.0002
14867TIP3    H266093   6.382   6.354   1.561 -0.7201  1.3664  2.3712
14868TIP3   OH266094   1.620   5.318  11.167  0.4072 -0.3849 -0.0568
14868TIP3    H166095   1.709   5.285  11.181  0.9956  0.7612 -0.9315
14868TIP3    H266096   1.572   5.244  11.132  1.6289 -0.4472 -1.7542
14869TIP3   OH266097   4.837   4.361   5.124 -0.3550 -0.3223  0.1000
14869TIP3    H166098   4.852   4.274   5.161 -1.5774 -0.3876  0.4950
14869TIP3    H266099   4.803   4.412   5.198 -0.4442  0.2482 -0.3352
14870TIP3   OH266100   5.893   6.216   0.646 -0.0663 -0.5197 -0.3003
14870TIP3    H166101   5.890   6.190   0.553 -0.0608 -0.7804 -0.2283
14870TIP3    H266102   5.938   6.301   0.645  0.2580 -0.6906 -0.5013
14871TIP3   OH266103   0.611   4.749   3.625  0.3815  0.1632 -0.4587
14871TIP3    H166104   0.527   4.711   3.598 -1.2283  2.4547  0.9614
14871TIP3    H266105   0.612   4.836   3.585 -0.8716  2.6223  4.0942
14872TIP3   OH266106   3.089   3.004  12.863  0.0716  0.5122  0.0269
14872TIP3    H166107   3.001   3.038  12.877 -0.2561  0.3033 -1.4030
14872TIP3    H266108   3.076   2.916  12.828  0.8589  0.3389  0.1446
14873TIP3   OH266109   6.242   4.486  16.386 -0.4334  0.4265  0.6283
14873TIP3    H166110   6.337   4.476  16.385 -0.5914 -1.2037 -0.2767
14873TIP3    H266111   6.225   4.561  16.329  0.1737 -1.0343 -1.5620
14874TIP3   OH266112   4.311   3.855  16.262 -0.6938  0.0130  0.0015
14874TIP3    H166113   4.338   3.764  16.271  0.1088  0.3343  1.1096
14874TIP3    H266114   4.353   3.900  16.335 -1.9885  1.0807  0.1336
14875TIP3   OH266115   6.468   3.669   0.952  0.2775 -0.4468 -0.6790
14875TIP3    H166116   6.474   3.574   0.964 -1.2376 -0.7112 -1.8026
14875TIP3    H266117   6.541   3.690   0.893  0.6956 -0.8861 -0.3250
14876TIP3   OH266118   1.118   2.355  12.549 -0.1608  0.0440  0.7496
14876TIP3    H166119   1.122   2.327  12.458 -1.5457  0.1049  0.6488
14876TIP3    H266120   1.071   2.438  12.547 -0.2120  0.0457  1.5152
14877TIP3   OH266121   5.616   0.401  14.251 -0.3180 -0.0814 -0.0455
14877TIP3    H166122   5.666   0.335  14.203  0.2825  0.1929  0.1909
14877TIP3    H266123   5.672   0.424  14.325  0.4041  2.1453 -1.2016
14878TIP3   OH266124   3.310   0.802  10.885 -0.0340  0.3064 -0.1802
14878TIP3    H166125   3.403   0.778  10.884  0.4980  2.0898  1.0109
14878TIP3    H266126   3.264   0.724  10.854  1.4426 -2.4696  3.8694
14879TIP3   OH266127   6.222   0.824  10.946  0.2319  0.2228 -0.4060
14879TIP3    H166128   6.292   0.759  10.953 -0.4269 -0.4036  0.5561
14879TIP3    H266129   6.164   0.790  10.878  0.1244  0.0282 -0.2183
14880TIP3   OH266130   0.551   3.732  14.621  0.0110 -0.4031  0.2040
14880TIP3    H166131   0.462   3.712  14.592 -0.0270 -1.0842  0.7594
14880TIP3    H266132   0.557   3.695  14.709  0.6891  0.0732  0.3697
14881TIP3   OH266133   5.312   3.858   4.417  0.2863  0.4292 -0.2769
14881TIP3    H166134   5.380   3.837   4.353  0.2482 -1.5562  0.2805
14881TIP3    H266135   5.330   3.800   4.491 -1.6022  0.3613  0.1752
14882TIP3   OH266136   5.982   6.795   5.477 -0.0302  0.2083 -0.2358
14882TIP3    H166137   6.035   6.719   5.499  0.3696 -0.1336 -2.1532
14882TIP3    H266138   5.903   6.786   5.530 -0.7652 -2.5094 -1.5967
14883TIP3   OH266139   1.262   6.448   4.856  0.3583  0.0696  0.3805
14883TIP3    H166140   1.352   6.453   4.827 -0.6490 -0.8932 -3.4159
14883TIP3    H266141   1.214   6.508   4.799 -1.7449 -1.4277  0.4244
14884TIP3   OH266142   0.005   0.504  16.576  0.7148 -0.1171 -0.2753
14884TIP3    H166143  -0.006   0.593  16.541  1.7879 -0.4832 -1.6420
14884TIP3    H266144   0.091   0.477  16.544 -0.2957 -2.2811 -1.3680
14885TIP3   OH266145   4.856   4.387  12.658  0.1913  0.4052 -0.4417
14885TIP3    H166146   4.767   4.388  12.624  1.0946  0.8329 -2.9955
14885TIP3    H266147   4.900   4.320  12.606  0.5524 -2.6572  3.3204
14886TIP3   OH266148   3.659   4.395  12.687 -0.4053 -0.3831  0.3837
14886TIP3    H166149   3.565   4.397  12.674 -0.3238 -0.1682 -0.1868
14886TIP3    H266150   3.684   4.486  12.699 -0.1279 -0.3297 -0.5311
14887TIP3   OH266151   5.507   2.641   0.702  0.0285 -0.2081 -0.1886
14887TIP3    H166152   5.453   2.562   0.703 -0.7305  0.2887 -0.9929
14887TIP3    H266153   5.458   2.704   0.755  0.7240 -0.3109  0.6153
14888TIP3   OH266154   2.353   4.540  13.037 -0.0304 -0.0607 -0.4645
14888TIP3    H166155   2.277   4.594  13.011 -0.6503 -0.8889 -0.4125
14888TIP3    H266156   2.345   4.532  13.132  0.9312  1.0214 -0.2698
14889TIP3   OH266157   6.790   4.801  12.038  0.1872 -0.1000 -0.1592
14889TIP3    H166158   6.810   4.770  12.126 -1.0752 -0.7952 -0.0943
14889TIP3    H266159   6.807   4.895  12.042 -1.1953  0.1420  1.2687
14890TIP3   OH266160   2.895   2.732  15.093  0.1366 -0.8741  0.7090
14890TIP3    H166161   2.807   2.727  15.057  0.6423  0.7035 -0.8915
14890TIP3    H266162   2.881   2.745  15.187 -1.3572 -0.2091  0.4264
14891TIP3   OH266163   1.798   5.523   3.304 -0.0919  0.3708  0.1716
14891TIP3    H166164   1.751   5.606   3.309 -0.2709  0.2059  3.9105
14891TIP3    H266165   1.740   5.459   3.345  1.8858 -0.5637  1.7282
14892TIP3   OH266166   5.293   3.802  17.254  0.0866 -0.0117  0.1634
14892TIP3    H166167   5.218   3.857  17.273  0.1278  0.6465 -1.4623
14892TIP3    H266168   5.295   3.739  17.326 -2.2919 -0.3397  0.0205
14893TIP3   OH266169   0.758   1.758  12.054  0.5913  0.4626  0.5022
14893TIP3    H166170   0.702   1.835  12.046  0.3845  0.4772  1.8742
14893TIP3    H266171   0.777   1.733  11.964 -1.6095  0.4637 -0.0107
14894TIP3   OH266172   0.967   1.246   3.329  0.7326 -0.7486  0.0212
14894TIP3    H166173   1.034   1.310   3.353 -0.3623  0.9658 -1.2623
14894TIP3    H266174   0.937   1.273   3.243 -2.0162 -1.0778  0.7827
14895TIP3   OH266175   3.091   6.432   6.852 -0.1204  0.2478  0.0239
14895TIP3    H166176   3.131   6.358   6.898 -0.8752 -1.2389 -1.5738
14895TIP3    H266177   3.164   6.491   6.834  0.6916 -0.5787  0.5003
14896TIP3   OH266178   1.008   3.871   5.069  0.6431 -0.0348 -0.4561
14896TIP3    H166179   1.094   3.873   5.026  0.4664  1.7887 -0.7958
14896TIP3    H266180   0.977   3.961   5.064 -1.0948 -0.5739  0.0953
14897TIP3   OH266181   1.397   4.909   2.262  0.4274 -0.4063  0.3645
14897TIP3    H166182   1.481   4.953   2.251  0.9953 -1.3443  0.7698
14897TIP3    H266183   1.396   4.881   2.354 -0.1736 -0.6965  0.2754
14898TIP3   OH266184   0.981   1.503   6.978  0.5600 -0.1187 -0.1010
14898TIP3    H166185   0.999   1.455   6.897 -0.8070 -0.4166 -0.2520
14898TIP3    H266186   1.036   1.461   7.044  0.4402 -0.9609 -0.5276
14899TIP3   OH266187   4.139   2.013  12.048 -0.1660  0.0361 -0.4407
14899TIP3    H166188   4.167   1.948  12.113  1.6224 -0.4400 -1.6174
14899TIP3    H266189   4.159   1.973  11.964  3.0194  2.8341 -1.2183
14900TIP3   OH266190   1.686   2.244   0.500 -0.1430 -0.2348 -0.0264
14900TIP3    H166191   1.616   2.276   0.444  1.1226 -0.4624 -1.8074
14900TIP3    H266192   1.642   2.218   0.582 -1.7245  2.1953 -0.0353
14901TIP3   OH266193   4.672   5.088  12.168  0.1643  0.0751  0.1936
14901TIP3    H166194   4.679   5.001  12.209  0.5154  0.9900  2.1635
14901TIP3    H266195   4.577   5.102  12.160  0.1007 -1.0628 -1.4979
14902TIP3   OH266196   4.002   1.104  13.431  0.1816  0.0996  0.7162
14902TIP3    H166197   3.938   1.143  13.372  0.4606 -0.8235 -0.2105
14902TIP3    H266198   4.044   1.179  13.474 -0.9808  0.7380  0.7925
14903TIP3   OH266199   6.251   2.730   5.391  0.2525 -0.2159 -0.6272
14903TIP3    H166200   6.286   2.750   5.305  0.2673 -0.1172 -0.5980
14903TIP3    H266201   6.311   2.770   5.453  1.2173 -1.7567 -0.5076
14904TIP3   OH266202   3.133   0.383   0.972  0.0513 -0.4073 -0.1982
14904TIP3    H166203   3.204   0.376   0.907 -1.3189 -0.3765 -1.7554
14904TIP3    H266204   3.126   0.477   0.990 -0.5316 -0.2546 -1.1563
14905TIP3   OH266205   1.397   0.911  14.547  0.3403 -0.1315 -0.1563
14905TIP3    H166206   1.375   0.999  14.578 -0.7307 -0.6520  0.6545
14905TIP3    H266207   1.419   0.922  14.455  0.8761  1.0772  0.1025
14906TIP3   OH266208   1.024   5.786  10.586 -0.4352 -0.7623 -0.3462
14906TIP3    H166209   0.991   5.772  10.675  0.2471  1.6404  0.3578
14906TIP3    H266210   1.066   5.703  10.563  0.0439 -1.2129  1.8862
14907TIP3   OH266211   6.177   0.157   0.438 -0.1626 -0.2693  0.2831
14907TIP3    H166212   6.162   0.251   0.434  0.5698 -0.1657 -0.0753
14907TIP3    H266213   6.092   0.121   0.465 -0.8701  0.3543 -1.0301
14908TIP3   OH266214   4.931   4.554   6.026  0.1102  0.6587  0.4078
14908TIP3    H166215   4.860   4.558   5.962 -1.2527  1.4825  1.8811
14908TIP3    H266216   4.889   4.575   6.109  1.7568 -0.6437  1.6351
14909TIP3   OH266217   6.621   6.774  12.401 -0.3213  0.0226  0.1791
14909TIP3    H166218   6.526   6.775  12.407 -0.4912 -1.9935 -1.2304
14909TIP3    H266219   6.644   6.682  12.390  1.8174  0.4391  0.6162
14910TIP3   OH266220   2.761   1.340  13.591  0.4572  0.0312  0.2038
14910TIP3    H166221   2.785   1.409  13.653  1.1637  0.4958 -0.5621
14910TIP3    H266222   2.685   1.375  13.545 -0.1983 -0.4023  0.9356
14911TIP3   OH266223   0.115   0.338  15.047 -0.0652  0.5442 -0.3701
14911TIP3    H166224   0.037   0.387  15.021  0.7563  1.8063 -0.5818
14911TIP3    H266225   0.170   0.337  14.968  0.0527 -0.5162 -0.2895
14912TIP3   OH266226   3.892   1.124  16.624  0.1335 -0.4873 -0.1012
14912TIP3    H166227   3.891   1.146  16.531 -1.4300 -0.0038  0.0029
14912TIP3    H266228   3.820   1.174  16.661 -1.2604 -3.0141  0.8140
14913TIP3   OH266229   3.021   3.663   1.717 -0.0118  0.6141 -0.1072
14913TIP3    H166230   3.068   3.679   1.799  0.7958  0.2672 -0.4891
14913TIP3    H266231   2.990   3.573   1.725 -1.6501  1.2147  0.6343
14914TIP3   OH266232   6.143   6.615  15.648 -0.2771 -0.3524  0.0056
14914TIP3    H166233   6.110   6.599  15.737  0.9090 -2.1154  0.1967
14914TIP3    H266234   6.188   6.699  15.653 -1.0424  0.0195  0.8275
14915TIP3   OH266235   4.329   2.520  13.257 -0.7305  0.2621  0.2444
14915TIP3    H166236   4.398   2.574  13.296  0.4345 -0.9018 -0.1395
14915TIP3    H266237   4.250   2.575  13.262  0.3200  1.8550  0.1817
14916TIP3   OH266238   5.046   3.905   2.730 -0.1000  0.1795  0.4085
14916TIP3    H166239   5.041   3.810   2.722 -1.3356  0.3451 -1.2522
14916TIP3    H266240   4.955   3.932   2.745  0.2927  1.0862  1.2546
14917TIP3   OH266241   2.257   5.744   5.798 -0.2750 -0.3249 -0.3134
14917TIP3    H166242   2.209   5.756   5.881 -1.7787 -0.8573 -1.0581
14917TIP3    H266243   2.232   5.820   5.745  2.0991  0.9772  0.2982
14918TIP3   OH266244   1.981   1.455  12.621  0.6878  0.0921  0.0920
14918TIP3    H166245   1.966   1.533  12.674  1.7457  0.8258 -0.6425
14918TIP3    H266246   1.986   1.383  12.684  1.2580  0.8451  0.9268
14919TIP3   OH266247   3.930   1.424   3.673 -0.3465 -0.6613  0.9036
14919TIP3    H166248   3.968   1.433   3.585 -0.4143 -1.5617  0.7688
14919TIP3    H266249   3.973   1.491   3.725  0.4682 -0.8066  0.4320
14920TIP3   OH266250   1.923   4.030  15.322  0.4233 -0.4689 -0.3588
14920TIP3    H166251   1.978   4.015  15.246 -0.5952 -0.6708 -1.0672
14920TIP3    H266252   1.876   4.111  15.303  3.4257  2.0665  2.0044
14921TIP3   OH266253   0.832   2.863  15.456  0.2559 -0.3307  0.0273
14921TIP3    H166254   0.810   2.899  15.542 -1.1379  1.3186 -0.9517
14921TIP3    H266255   0.906   2.805  15.473 -0.4448 -0.6453  2.4410
14922TIP3   OH266256   2.136   5.572  11.442  0.2414 -0.0777  0.5664
14922TIP3    H166257   2.162   5.650  11.393 -1.6882  1.3274  1.5964
14922TIP3    H266258   2.097   5.607  11.522 -1.1828 -2.0716  0.8176
14923TIP3   OH266259   4.464   6.236   0.550  0.3772 -0.4321  0.7883
14923TIP3    H166260   4.448   6.167   0.485 -1.8314  0.6174  0.1118
14923TIP3    H266261   4.522   6.298   0.506  1.5324 -1.3188  1.0266
14924TIP3   OH266262   3.950   6.493  13.709 -0.0700 -0.2725  0.7742
14924TIP3    H166263   3.913   6.574  13.745 -3.0486 -0.3138 -1.7500
14924TIP3    H266264   3.919   6.424  13.766 -0.0379  0.0909  1.2360
14925TIP3   OH266265   2.559   0.118   2.635  0.7710  0.5859 -0.2644
14925TIP3    H166266   2.613   0.150   2.563 -2.0695  0.1524 -2.8094
14925TIP3    H266267   2.530   0.197   2.681  0.6798  1.0760 -1.1419
14926TIP3   OH266268   5.776   4.020   2.920  0.0386  0.0957  0.5111
14926TIP3    H166269   5.704   4.045   2.978 -2.4461 -0.6373 -2.0243
14926TIP3    H266270   5.798   4.101   2.874 -2.5336 -0.4982 -2.0293
14927TIP3   OH266271   1.908   6.291   4.601  0.6146  0.5535 -0.0605
14927TIP3    H166272   1.824   6.285   4.647  0.9550  0.3127  0.5404
14927TIP3    H266273   1.908   6.216   4.541 -0.3490  1.5386 -1.3582
14928TIP3   OH266274   5.559   2.628   4.301  0.2279 -0.3640  0.1674
14928TIP3    H166275   5.619   2.605   4.230 -0.1901 -1.7155  0.2284
14928TIP3    H266276   5.558   2.551   4.357 -0.4259  0.2159  0.9762
14929TIP3   OH266277   6.665   0.670   4.764  0.2204  0.9809 -0.1402
14929TIP3    H166278   6.740   0.631   4.718  1.3334 -1.1670  3.1399
14929TIP3    H266279   6.652   0.754   4.720  3.7181  0.8955 -1.7173
14930TIP3   OH266280   0.667   0.477   2.545 -0.4675 -0.5761 -0.2482
14930TIP3    H166281   0.674   0.382   2.532  2.9871 -0.4500 -0.2998
14930TIP3    H266282   0.617   0.487   2.625  0.5757 -2.5723  0.7254
14931TIP3   OH266283   5.008   4.546  16.573 -0.2053  0.4570  0.3069
14931TIP3    H166284   5.008   4.600  16.652  0.3550  1.1192 -0.1380
14931TIP3    H266285   5.011   4.456  16.606  2.7685  0.7233  1.0882
14932TIP3   OH266286   6.235   5.155   0.913 -0.2915 -0.3706  0.3756
14932TIP3    H166287   6.157   5.122   0.957 -0.3560  0.8304  1.1922
14932TIP3    H266288   6.305   5.149   0.978  0.2439 -1.1140 -0.2410
14933TIP3   OH266289   6.788   1.819  14.419  0.5194  0.4075  0.3087
14933TIP3    H166290   6.735   1.802  14.341 -0.9747 -0.6154  1.4710
14933TIP3    H266291   6.843   1.741  14.427 -0.4286 -0.2223  1.0687
14934TIP3   OH266292   2.203   4.492   5.577  0.6863 -0.3605  0.3874
14934TIP3    H166293   2.199   4.416   5.634 -0.3517  0.0960  0.9449
14934TIP3    H266294   2.193   4.456   5.489 -1.1403 -0.7827  0.7247
14935TIP3   OH266295   6.255   6.149  12.327 -1.3304 -0.7440 -0.2031
14935TIP3    H166296   6.295   6.165  12.242  0.1494 -1.3023  0.3515
14935TIP3    H266297   6.163   6.172  12.316 -1.1039 -0.5765 -1.8694
14936TIP3   OH266298   4.952   5.623   4.535 -0.6474 -0.2706  0.7791
14936TIP3    H166299   4.899   5.583   4.466  0.6444  0.1020 -0.4677
14936TIP3    H266300   5.016   5.556   4.558  3.1224  1.5932 -3.0261
14937TIP3   OH266301   5.073   3.146  11.353  0.3074  0.4383 -0.7133
14937TIP3    H166302   5.071   3.185  11.265 -0.4588 -0.2782 -1.0279
14937TIP3    H266303   5.161   3.111  11.362  0.4346  0.6390 -1.1450
14938TIP3   OH266304   3.598   4.831   4.248  0.0354 -0.5251 -0.1155
14938TIP3    H166305   3.655   4.761   4.281  0.1328  0.3487  1.7013
14938TIP3    H266306   3.512   4.790   4.238  0.4015 -1.2316 -0.4199
14939TIP3   OH266307   1.066   4.041   3.822  0.1895 -0.7234  0.0105
14939TIP3    H166308   1.031   4.015   3.737 -2.1472  1.4679  0.1596
14939TIP3    H266309   1.004   4.006   3.885 -0.1887  0.7889  0.5136
14940TIP3   OH266310   4.617   4.085  12.554  0.3545  0.0804 -0.1273
14940TIP3    H166311   4.612   4.071  12.460 -0.3901  2.8282 -0.5856
14940TIP3    H266312   4.541   4.039  12.590  0.4234 -0.6518 -0.9184
14941TIP3   OH266313   5.029   2.724  16.075 -0.2179 -0.6994 -0.6198
14941TIP3    H166314   5.111   2.762  16.043 -1.6998  1.7914 -1.6873
14941TIP3    H266315   5.052   2.685  16.159  1.7792  1.2333 -0.1886
14942TIP3   OH266316   1.684   4.994   4.542 -0.1071  0.4021  0.0997
14942TIP3    H166317   1.617   5.060   4.563 -0.0403  0.9216 -1.2079
14942TIP3    H266318   1.766   5.033   4.572 -0.2026  0.4349  0.3202
14943TIP3   OH266319   2.345   5.634   0.862 -0.2641  0.5017 -0.2428
14943TIP3    H166320   2.308   5.563   0.915  0.4061  0.4825  0.2127
14943TIP3    H266321   2.322   5.611   0.772 -1.2112  0.4114  0.0096
14944TIP3   OH266322   5.597   1.776   4.849 -0.4244  0.3184 -0.8144
14944TIP3    H166323   5.611   1.716   4.923  1.1592  0.8937 -0.6084
14944TIP3    H266324   5.599   1.863   4.889  0.0353  0.6144 -1.4796
14945TIP3   OH266325   3.742   1.744  14.403  0.6249 -0.1938 -0.1057
14945TIP3    H166326   3.775   1.774  14.488 -1.4358  0.0540  0.6619
14945TIP3    H266327   3.688   1.817  14.372 -0.3749 -1.1237 -0.5992
14946TIP3   OH266328   4.744   6.638   1.956  0.0892  0.1424  0.2082
14946TIP3    H166329   4.653   6.655   1.931 -0.1659 -1.1019  0.2253
14946TIP3    H266330   4.792   6.639   1.873 -0.1271 -0.2344  0.0725
14947TIP3   OH266331   2.010   4.385   0.031  0.1143 -0.0931  0.2992
14947TIP3    H166332   2.093   4.421  -0.000 -1.5564  1.0202 -3.5270
14947TIP3    H266333   2.007   4.407   0.124  3.3463  1.2235  0.2218
14948TIP3   OH266334   1.112   6.748   4.430  0.2822 -0.3069  0.8442
14948TIP3    H166335   1.061   6.706   4.361  0.8500 -1.2713  0.9922
14948TIP3    H266336   1.060   6.825   4.455 -0.6408 -0.7565  0.3636
14949TIP3   OH266337   4.454   5.847   5.274  0.4922 -0.4089 -0.0870
14949TIP3    H166338   4.414   5.849   5.188  0.2451 -1.1413  0.0120
14949TIP3    H266339   4.387   5.884   5.332  1.4067  2.1089 -0.4829
14950TIP3   OH266340   6.068   4.423  10.644 -0.1199  0.3183  0.3717
14950TIP3    H166341   5.989   4.430  10.590 -0.1177 -0.5006  0.2593
14950TIP3    H266342   6.041   4.456  10.730 -0.9852 -1.2373  0.7325
14951TIP3   OH266343   6.224   2.612   0.066  0.0327  0.4307 -0.1417
14951TIP3    H166344   6.182   2.684   0.018  0.2248  0.7388  0.1408
14951TIP3    H266345   6.152   2.563   0.104 -0.0940  0.6014 -0.1607
14952TIP3   OH266346   1.186   1.988   0.560 -0.1080  0.2064  0.1723
14952TIP3    H166347   1.217   2.067   0.515 -0.9451  0.2088 -0.4240
14952TIP3    H266348   1.131   1.944   0.495 -0.1927 -0.5255  0.7300
14953TIP3   OH266349   1.956   5.805   2.821 -0.2094 -0.0174  0.0578
14953TIP3    H166350   1.925   5.821   2.910  1.3967  3.3203  0.1808
14953TIP3    H266351   1.993   5.889   2.794 -0.5746 -0.9143 -3.7670
14954TIP3   OH266352   3.725   0.231   2.699  0.1925  0.0523  0.2738
14954TIP3    H166353   3.688   0.251   2.785 -0.5932 -0.6771  0.1250
14954TIP3    H266354   3.770   0.311   2.673 -0.4194  0.6285  0.9273
14955TIP3   OH266355   6.814   2.652   3.436  0.4680 -0.0607  0.0798
14955TIP3    H166356   6.788   2.735   3.395 -0.5121 -1.4345 -2.3200
14955TIP3    H266357   6.736   2.596   3.428  1.0332 -1.1794  1.8061
14956TIP3   OH266358   5.979   5.928   1.602 -0.0795  0.1285  0.3549
14956TIP3    H166359   5.948   5.873   1.530  1.1900  0.0887 -0.1799
14956TIP3    H266360   6.015   6.005   1.560  1.0916 -0.1022  0.9056
14957TIP3   OH266361   5.084   3.777  11.930  0.1153  0.2474 -0.0583
14957TIP3    H166362   5.166   3.786  11.882  0.0316  0.5450 -0.1438
14957TIP3    H266363   5.096   3.697  11.982 -0.3123 -0.8810 -1.6021
14958TIP3   OH266364   4.844   6.509   4.334 -0.2899  0.2127  0.1865
14958TIP3    H166365   4.792   6.573   4.286 -0.2901  2.4228  2.8634
14958TIP3    H266366   4.808   6.424   4.309 -0.6226  1.1897 -3.1441
14959TIP3   OH266367   0.461   5.871  12.810 -0.3939 -0.1119  0.6561
14959TIP3    H166368   0.521   5.857  12.737 -0.9263 -0.2149  0.2336
14959TIP3    H266369   0.450   5.784  12.849 -0.3259 -0.1039  0.6952
14960TIP3   OH266370   2.257   4.134   0.463  0.4599  0.4096 -0.4585
14960TIP3    H166371   2.278   4.215   0.510 -0.3789  0.6164 -0.4156
14960TIP3    H266372   2.166   4.117   0.486  0.1482  0.3133 -1.7113
14961TIP3   OH266373   2.776   2.895   0.318  0.0926  0.4107 -0.1517
14961TIP3    H166374   2.688   2.932   0.312  0.0258  0.0318 -2.6937
14961TIP3    H266375   2.762   2.802   0.338 -0.1127  0.3352 -0.6317
14962TIP3   OH266376   4.242   3.273   1.086 -0.3140  0.5201 -0.8053
14962TIP3    H166377   4.319   3.327   1.069  0.0503  0.1289 -0.4373
14962TIP3    H266378   4.258   3.192   1.037  0.4269 -0.3367  0.7629
14963TIP3   OH266379   4.529   2.927   4.088 -0.2890 -0.2988 -0.1015
14963TIP3    H166380   4.524   3.005   4.144 -0.8742 -0.6487  0.3385
14963TIP3    H266381   4.622   2.906   4.084 -0.2520 -0.3266  0.8208
14964TIP3   OH266382   4.705   2.092   4.526  0.3140 -0.2520  1.0466
14964TIP3    H166383   4.740   2.091   4.615  1.2953  0.3971  0.6826
14964TIP3    H266384   4.782   2.078   4.470 -0.2078 -0.1262  0.2864
14965TIP3   OH266385   5.853   4.864   6.753  0.0420  0.0666  0.0939
14965TIP3    H166386   5.814   4.912   6.680 -2.7274 -1.8660  0.1479
14965TIP3    H266387   5.910   4.928   6.796  0.3028  1.8227 -2.5878
14966TIP3   OH266388   1.992   1.563   5.829  0.2411 -0.1397 -0.0054
14966TIP3    H166389   1.950   1.488   5.786 -1.2182  1.0979 -0.8332
14966TIP3    H266390   1.923   1.603   5.880  0.8150  1.0614 -0.1426
14967TIP3   OH266391   1.446   4.018   5.719  0.0361 -0.1017  0.7148
14967TIP3    H166392   1.395   3.986   5.793 -0.8323 -1.3840 -0.3813
14967TIP3    H266393   1.393   3.997   5.642  1.1530  0.6819 -0.3197
14968TIP3   OH266394   1.761   6.004  12.855 -0.6944 -0.1123 -0.1523
14968TIP3    H166395   1.791   5.994  12.945  0.6000 -0.7940 -0.6325
14968TIP3    H266396   1.722   6.091  12.852  0.1373  0.3179  0.8295
14969TIP3   OH266397   6.246   6.452  13.888  0.0105 -0.4331 -0.2490
14969TIP3    H166398   6.196   6.461  13.969 -1.4878  0.5894 -1.2207
14969TIP3    H266399   6.276   6.362  13.888 -0.9569 -0.7904  0.8892
14970TIP3   OH266400   3.855   5.148   2.439  0.2118  0.0018  0.0728
14970TIP3    H166401   3.805   5.096   2.376 -1.2121 -0.8016  1.7809
14970TIP3    H266402   3.941   5.106   2.442 -0.3375 -1.1630  0.0833
14971TIP3   OH266403   2.239   3.368   4.230  0.0100 -0.4884  0.0108
14971TIP3    H166404   2.321   3.354   4.183  1.0488 -1.1206  1.8905
14971TIP3    H266405   2.226   3.463   4.228  1.4291 -0.2537  0.6546
14972TIP3   OH266406   1.944   3.721   3.334 -0.2564 -0.0266 -0.3873
14972TIP3    H166407   2.016   3.754   3.387  0.6444 -2.8330  0.3063
14972TIP3    H266408   1.953   3.766   3.251  0.0484  2.3532  0.8488
14973TIP3   OH266409   0.467   4.016   5.755  0.4823 -0.3087  0.1050
14973TIP3    H166410   0.464   4.075   5.830  1.3733 -0.2232  0.0870
14973TIP3    H266411   0.377   3.988   5.743  0.1868  0.3700  0.6568
14974TIP3   OH266412   2.302   1.713  12.615 -0.1980  0.6057  0.2027
14974TIP3    H166413   2.253   1.665  12.549  0.6444 -0.9913  0.7051
14974TIP3    H266414   2.308   1.802  12.580 -0.0804 -0.1125 -1.6903
14975TIP3   OH266415   0.216   3.570  16.368  0.1690 -0.3484 -0.6564
14975TIP3    H166416   0.202   3.662  16.391  2.1857  0.2660 -1.7011
14975TIP3    H266417   0.293   3.570  16.311  1.2659 -2.8536  0.6379
14976TIP3   OH266418   0.049   1.235   5.375  0.5876 -0.1224  0.1828
14976TIP3    H166419   0.049   1.299   5.446  0.6308 -1.0279  1.0143
14976TIP3    H266420   0.025   1.286   5.297  0.0726  0.7969  0.9226
14977TIP3   OH266421   6.447   1.528  12.118 -0.3207 -0.2518  0.1338
14977TIP3    H166422   6.499   1.599  12.080  1.1736 -1.0877  0.5316
14977TIP3    H266423   6.479   1.449  12.075 -1.7156 -0.7505 -0.0442
14978TIP3   OH266424   0.227   0.062   4.202 -0.6098  0.4172 -0.5892
14978TIP3    H166425   0.163  -0.007   4.184  0.8202 -1.2202  0.3148
14978TIP3    H266426   0.310   0.026   4.174  0.6932  0.4192  2.8002
14979TIP3   OH266427   3.808   2.200  14.474  0.2252  0.3181  0.0855
14979TIP3    H166428   3.751   2.127  14.496  0.8797 -0.1224  0.3770
14979TIP3    H266429   3.806   2.205  14.378 -0.7075  0.6529  0.1182
14980TIP3   OH266430   3.693   5.892   4.351 -0.2996 -0.0269 -0.6159
14980TIP3    H166431   3.696   5.977   4.395  1.0750 -0.3374 -0.0803
14980TIP3    H266432   3.746   5.905   4.272  0.3934 -0.5302 -0.2436
14981TIP3   OH266433   5.244   6.465   4.221 -0.2386 -0.0949 -0.6528
14981TIP3    H166434   5.273   6.471   4.130 -1.6403 -0.7065 -1.1650
14981TIP3    H266435   5.171   6.525   4.228 -0.5320 -0.5049 -0.0923
14982TIP3   OH266436   5.254   4.871  11.891 -0.4262 -0.4158  0.0468
14982TIP3    H166437   5.185   4.869  11.958  1.0841  0.6822  1.7460
14982TIP3    H266438   5.276   4.779  11.876 -0.6113 -0.6930  1.3160
14983TIP3   OH266439   3.848   5.184  17.083 -0.3942  0.3569  0.1498
14983TIP3    H166440   3.886   5.226  17.161  0.9752  0.7304 -0.6718
14983TIP3    H266441   3.836   5.256  17.021 -0.3602 -0.0962 -0.3942
14984TIP3   OH266442   3.937   3.954  15.377  0.2121  0.0251  0.2843
14984TIP3    H166443   3.891   3.908  15.447 -0.4083 -0.3082 -0.3362
14984TIP3    H266444   3.949   4.043  15.411  3.3264 -1.0108  2.4121
14985TIP3   OH266445   2.942   3.838  14.364  0.4764 -0.2062  0.1004
14985TIP3    H166446   2.859   3.879  14.339 -0.1135 -0.3443  1.7187
14985TIP3    H266447   2.998   3.911  14.390 -0.0739 -0.2687  1.5621
14986TIP3   OH266448   4.074   4.930   1.198 -0.2406 -0.1708 -0.2890
14986TIP3    H166449   4.038   4.911   1.111  0.4788 -2.1915 -0.2099
14986TIP3    H266450   4.054   5.022   1.213 -0.2249  0.2810 -2.6685
14987TIP3   OH266451   3.602   5.588  11.346 -0.4209 -0.2677  0.7496
14987TIP3    H166452   3.644   5.585  11.260  0.3849 -0.5462  1.1425
14987TIP3    H266453   3.517   5.548  11.332 -0.2205 -0.4937  0.1218
14988TIP3   OH266454   5.759   5.087   2.609  0.3042  0.2385 -0.1370
14988TIP3    H166455   5.746   4.994   2.629  0.1771  0.3765  0.4218
14988TIP3    H266456   5.727   5.133   2.686 -1.4673  0.8409 -1.1762
14989TIP3   OH266457   0.686   1.759   6.229 -0.4928 -0.3974 -0.0365
14989TIP3    H166458   0.638   1.727   6.305 -0.4701  0.2405  0.2545
14989TIP3    H266459   0.776   1.731   6.244 -0.2907  0.5634  0.6733
14990TIP3   OH266460   0.617   3.090  17.089 -0.2199  0.4225  0.1863
14990TIP3    H166461   0.571   3.076  17.171 -0.1016  0.3427  0.2399
14990TIP3    H266462   0.556   3.058  17.022 -0.9393  1.8844  0.1223
14991TIP3   OH266463   0.209   5.563   5.344  0.0760  0.0132 -0.2589
14991TIP3    H166464   0.141   5.560   5.277 -0.7384  0.3361  0.5211
14991TIP3    H266465   0.162   5.582   5.425  1.2242  1.5631  0.1064
14992TIP3   OH266466   5.976   0.387   4.126 -0.2584  0.0607 -0.2880
14992TIP3    H166467   6.036   0.443   4.077  2.3891 -2.1530  0.2066
14992TIP3    H266468   5.930   0.337   4.059  0.7216 -0.3950 -0.6431
14993TIP3   OH266469   1.517   0.067   2.238 -0.2161  0.8247  0.2079
14993TIP3    H166470   1.604   0.094   2.268 -0.1854  0.3272  0.5860
14993TIP3    H266471   1.512  -0.026   2.262 -0.7216  0.7681 -0.1144
14994TIP3   OH266472   0.827   2.706   5.630 -0.3729  0.2537  0.2186
14994TIP3    H166473   0.853   2.781   5.684  1.6886  0.7761 -1.3704
14994TIP3    H266474   0.850   2.732   5.541 -1.3192 -1.5787 -0.6155
14995TIP3   OH266475   5.649   5.096   1.545 -0.4202  0.0470  0.2196
14995TIP3    H166476   5.739   5.125   1.560 -0.3922 -0.4617  1.1053
14995TIP3    H266477   5.656   5.036   1.471  0.0019 -0.1605  0.4233
14996TIP3   OH266478   1.050   4.900   5.617 -0.3789  0.0043 -0.2835
14996TIP3    H166479   1.008   4.903   5.531 -0.2131 -1.1626 -0.4263
14996TIP3    H266480   1.058   4.806   5.636  1.4996  0.1828  0.0506
14997TIP3   OH266481   6.662   6.255  12.067 -0.0819 -0.7182 -0.7045
14997TIP3    H166482   6.666   6.341  12.026 -1.8970 -0.2382  0.0489
14997TIP3    H266483   6.736   6.255  12.128 -0.5837  0.6823 -0.0495
14998TIP3   OH266484   1.356   5.043   5.180  0.2902 -0.5628 -0.4031
14998TIP3    H166485   1.269   5.028   5.144  0.2168 -1.7790  0.2005
14998TIP3    H266486   1.415   5.027   5.106 -0.0060  0.8202 -0.9577
14999TIP3   OH266487   0.972   2.446   4.559  0.2721  0.0114  0.6287
14999TIP3    H166488   0.987   2.422   4.650 -0.5937 -0.6737  0.6094
14999TIP3    H266489   0.985   2.541   4.556  0.5033  0.0089  1.4190
15000TIP3   OH266490   1.023   5.566   2.265 -0.9092 -0.1645 -0.5070
15000TIP3    H166491   0.976   5.546   2.184  0.0448 -2.2704 -0.6105
15000TIP3    H266492   1.115   5.549   2.244 -0.5016  0.5273  0.6587
15001TIP3   OH266493   1.061   5.282   0.324 -0.2480 -0.1824 -0.2378
15001TIP3    H166494   0.991   5.336   0.363 -0.5710 -0.8038  0.0587
15001TIP3    H266495   1.101   5.339   0.259  0.2086  0.8371  0.8914
15002TIP3   OH266496   2.051   3.584   5.481  0.0843  0.0963  0.1954
15002TIP3    H166497   1.969   3.618   5.520 -0.0165 -0.9196  0.8987
15002TIP3    H266498   2.059   3.631   5.398 -1.5000 -0.1613 -0.1344
15003TIP3   OH266499   2.733   5.546  12.453  0.3181 -0.4118 -0.0697
15003TIP3    H166500   2.706   5.552  12.544  0.0953 -0.3389 -0.1403
15003TIP3    H266501   2.823   5.579  12.453  1.0433 -2.2677  0.4532
15004TIP3   OH266502   2.276   5.449   1.040  0.3579 -0.3554 -0.7346
15004TIP3    H166503   2.290   5.478   1.131  1.8626  2.2237 -1.6684
15004TIP3    H266504   2.182   5.433   1.035  0.1078  0.2481  1.0879
15005TIP3   OH266505   5.004   0.783  12.935  0.2043 -0.3547 -0.0328
15005TIP3    H166506   5.004   0.763  13.029  2.2411 -3.5038 -0.5681
15005TIP3    H266507   5.022   0.878  12.931 -0.2252 -0.0708  2.7236
15006TIP3   OH266508   2.534   6.373  13.020  0.3882 -0.4838  0.4515
15006TIP3    H166509   2.550   6.281  12.999 -0.0032 -0.9975  2.2367
15006TIP3    H266510   2.439   6.379  13.032  0.6568 -0.6104  3.3518
15007TIP3   OH266511   4.676   6.457   1.626  0.2550  0.2824  0.0096
15007TIP3    H166512   4.616   6.463   1.700  1.6154  0.0492  1.1902
15007TIP3    H266513   4.665   6.368   1.593 -2.2733  1.1822 -1.8350
15008TIP3   OH266514   3.506   5.744  15.363 -0.0903  0.2416  0.0580
15008TIP3    H166515   3.522   5.730  15.270 -0.2597  1.4299 -0.1641
15008TIP3    H266516   3.454   5.825  15.367 -0.2020  0.1334  1.1710
15009TIP3   OH266517   1.319   2.310  13.333 -0.2478  0.7496 -0.7688
15009TIP3    H166518   1.290   2.246  13.398  1.9342  1.2181  0.7814
15009TIP3    H266519   1.402   2.273  13.300  0.1341  1.9071 -1.1437
15010TIP3   OH266520   6.460   2.280  13.404 -0.0650 -0.1580  0.6474
15010TIP3    H166521   6.521   2.207  13.412  2.9817  1.9588 -1.0726
15010TIP3    H266522   6.439   2.283  13.311  1.8244  2.4039  0.1744
15011TIP3   OH266523   2.592   0.749  15.542  0.3292  0.2601  0.0355
15011TIP3    H166524   2.655   0.739  15.470  0.6907 -2.4416  0.6275
15011TIP3    H266525   2.507   0.755  15.499  0.4522 -2.1732 -0.6789
15012TIP3   OH266526   6.666   6.429   4.226 -0.4118 -0.4522  0.3824
15012TIP3    H166527   6.723   6.455   4.153 -0.7434  0.9912  0.6142
15012TIP3    H266528   6.605   6.366   4.187 -1.1146  0.9218 -0.8216
15013TIP3   OH266529   2.288   0.945  16.006  0.4576  0.1766  0.1306
15013TIP3    H166530   2.292   0.926  16.100  0.3671 -1.3863 -0.1481
15013TIP3    H266531   2.371   0.988  15.986  0.6006  0.2509  0.8631
15014TIP3   OH266532   6.350   0.061   3.996 -0.3657 -0.0905  0.5009
15014TIP3    H166533   6.384   0.143   4.032 -2.3428  0.9593  0.1521
15014TIP3    H266534   6.261   0.083   3.968 -0.1911 -1.7988 -1.6706
15015TIP3   OH266535   3.375   5.919   1.152 -0.7285 -0.3712 -0.1295
15015TIP3    H166536   3.440   5.929   1.082  0.0887  1.6118  0.8086
15015TIP3    H266537   3.424   5.881   1.225 -1.4254 -1.8459 -0.4008
15016TIP3   OH266538   3.106   2.579   2.452 -0.2946  0.0240  0.3325
15016TIP3    H166539   3.040   2.544   2.393  0.9673 -1.8586 -0.0613
15016TIP3    H266540   3.185   2.528   2.432  1.1481  1.8425  1.1179
15017TIP3   OH266541   0.634   0.546   1.606 -0.9307  0.4052 -0.1927
15017TIP3    H166542   0.597   0.462   1.579  1.6814 -1.2239  0.8201
15017TIP3    H266543   0.639   0.540   1.702 -0.4601  1.5996 -0.1261
15018TIP3   OH266544   3.820   6.723  11.754  0.2702 -0.4748  0.9353
15018TIP3    H166545   3.770   6.678  11.822  0.3498  0.8685  1.9279
15018TIP3    H266546   3.782   6.810  11.750  0.8869 -0.2409 -0.1009
15019TIP3   OH266547   2.120   2.313  17.295 -0.0812 -0.7902  0.0310
15019TIP3    H166548   2.170   2.236  17.320 -2.5354 -1.8738  2.0409
15019TIP3    H266549   2.099   2.356  17.378 -1.6115  0.1466 -0.7929
15020TIP3   OH266550   1.173   6.338   3.853 -0.0461  0.2889 -0.7887
15020TIP3    H166551   1.225   6.356   3.932  0.4816 -1.0415 -0.8059
15020TIP3    H266552   1.179   6.243   3.842 -1.4645  0.2616 -1.5134
15021TIP3   OH266553   3.782   5.343   0.694 -0.1303 -0.3892 -0.3392
15021TIP3    H166554   3.853   5.325   0.756  0.3281  0.9580 -0.4479
15021TIP3    H266555   3.749   5.256   0.670  0.2776 -0.9649  1.0932
15022TIP3   OH266556   2.337   5.044   1.069 -1.0229 -0.5827 -0.6470
15022TIP3    H166557   2.343   5.022   0.976 -2.3034  0.3732 -0.9891
15022TIP3    H266558   2.346   4.961   1.115 -1.0401 -1.1578 -1.6641
15023TIP3   OH266559   5.889   6.550   1.073  0.3540  0.0520 -0.2504
15023TIP3    H166560   5.951   6.555   1.000  0.6265  2.7006  0.0709
15023TIP3    H266561   5.811   6.509   1.035  1.1151 -0.2656 -1.5467
15024TIP3   OH266562   4.181   6.553  15.151 -0.5831 -0.5467 -0.0835
15024TIP3    H166563   4.268   6.593  15.157  0.4938 -2.4751 -1.6222
15024TIP3    H266564   4.124   6.624  15.121 -0.1405  1.3877  3.2306
15025TIP3   OH266565   4.251   3.009   4.956  0.3071 -0.3118  0.1947
15025TIP3    H166566   4.327   3.053   4.918  0.1122  0.4315  0.6359
15025TIP3    H266567   4.287   2.955   5.027  0.5328 -0.7660 -0.2619
15026TIP3   OH266568   1.913   2.059   0.235  0.2307  0.0287 -0.1706
15026TIP3    H166569   1.880   2.063   0.325 -0.2804  1.6618 -0.3900
15026TIP3    H266570   1.966   1.979   0.232 -0.0311 -0.2439  1.4757
15027TIP3   OH266571   3.459   2.699   0.823  0.1382 -0.1684 -0.7622
15027TIP3    H166572   3.376   2.731   0.859  1.5318  1.0632  1.6460
15027TIP3    H266573   3.489   2.769   0.765 -0.1788 -0.3185 -1.1099
15028TIP3   OH266574   2.901   2.875   2.767  0.3118  0.0089  0.1082
15028TIP3    H166575   2.993   2.882   2.792  0.2345 -0.1059  0.4246
15028TIP3    H266576   2.896   2.920   2.683  0.9040 -1.0155 -0.5134
15029TIP3   OH266577   1.034   1.216  12.224  0.0250  0.1132  0.0989
15029TIP3    H166578   1.122   1.252  12.234  0.3670 -0.8153  0.5976
15029TIP3    H266579   0.992   1.231  12.309  0.7607 -2.1385  0.9186
15030TIP3   OH266580   5.588   0.106   2.354  0.0049  0.1710  0.4825
15030TIP3    H166581   5.578   0.182   2.412 -0.4640  1.0653 -0.7147
15030TIP3    H266582   5.560   0.032   2.407  0.7810  0.7789  1.7896
15031TIP3   OH266583   4.920   3.724   1.621 -0.1753 -0.6320 -0.3272
15031TIP3    H166584   4.867   3.798   1.590 -2.0886 -2.0594 -0.6903
15031TIP3    H266585   5.004   3.734   1.577 -0.4153  1.2573 -0.4420
15032TIP3   OH266586   4.829   5.544   2.433  0.1283 -0.1933  0.2388
15032TIP3    H166587   4.766   5.526   2.503  0.7718  1.0216  1.1640
15032TIP3    H266588   4.911   5.504   2.464  0.7991  1.6033  0.9310
15033TIP3   OH266589   6.014   3.774   6.234 -0.3274 -0.3264  0.0893
15033TIP3    H166590   5.941   3.751   6.176 -0.5689  1.0043 -0.1691
15033TIP3    H266591   6.004   3.715   6.309 -0.0035 -2.0850 -1.1990
15034TIP3   OH266592   0.821   3.459   4.349  0.1394  0.6757  0.1250
15034TIP3    H166593   0.872   3.454   4.268  0.1870 -0.4495  0.2091
15034TIP3    H266594   0.826   3.551   4.374 -0.5436  1.2187 -1.5770
15035TIP3   OH266595   4.548   0.948   0.663 -0.6725 -0.0084  0.2266
15035TIP3    H166596   4.538   0.963   0.758  0.7287  0.9235  0.2655
15035TIP3    H266597   4.459   0.944   0.630 -1.2530 -2.4792  1.8648
15036TIP3   OH266598   6.359   3.885  12.997  0.0883  0.2396 -0.2731
15036TIP3    H166599   6.334   3.862  13.087  0.8121  2.4623  0.5757
15036TIP3    H266600   6.449   3.915  13.004  0.6919 -0.9653 -2.0609
15037TIP3   OH266601   3.098   4.785  15.188  0.1428 -0.2496  0.2128
15037TIP3    H166602   3.129   4.876  15.193  0.3875 -0.3246  0.0343
15037TIP3    H266603   3.166   4.734  15.231 -0.8248 -0.1554  1.9489
15038TIP3   OH266604   2.512   0.593   5.028 -0.5656 -0.4587  0.0528
15038TIP3    H166605   2.562   0.645   4.966 -0.0991 -0.9290  0.0333
15038TIP3    H266606   2.422   0.595   4.994 -0.5712  0.3856  0.0942
15039TIP3   OH266607   5.482   0.395  11.678  0.6652  0.2701 -0.5808
15039TIP3    H166608   5.544   0.326  11.701  1.1397  0.0058 -2.4776
15039TIP3    H266609   5.488   0.457  11.750  0.5385 -1.4362  0.9768
15040TIP3   OH266610   2.763   1.561   1.532  0.1126 -0.1485 -0.4577
15040TIP3    H166611   2.747   1.599   1.446  1.0479 -2.1160 -1.5749
15040TIP3    H266612   2.817   1.626   1.577 -2.0229  1.7832 -0.5644
15041TIP3   OH266613   3.799   3.100  13.423 -0.0633  0.0073  0.2202
15041TIP3    H166614   3.704   3.088  13.426  0.1687 -2.2932  0.1417
15041TIP3    H266615   3.814   3.158  13.349 -1.3862  0.0585 -0.0287
15042TIP3   OH266616   1.428   3.659   2.763  0.0381 -0.3349 -0.3724
15042TIP3    H166617   1.446   3.752   2.747  1.5692 -0.4509  0.4813
15042TIP3    H266618   1.433   3.619   2.676 -2.4725  0.6133 -1.0348
15043TIP3   OH266619   3.733   1.291   5.551  0.1057 -0.9366  0.2438
15043TIP3    H166620   3.674   1.354   5.510  1.0181 -0.8784 -1.0489
15043TIP3    H266621   3.732   1.314   5.644 -1.6815 -0.7860  0.2273
15044TIP3   OH266622   6.128   1.150   5.681 -0.6116 -0.2659 -0.0826
15044TIP3    H166623   6.064   1.122   5.615 -0.3479 -0.8700 -0.0842
15044TIP3    H266624   6.103   1.241   5.701 -1.6045 -0.5555  0.0709
15045TIP3   OH266625   2.401   5.855   2.330  0.0373 -0.1266  0.1397
15045TIP3    H166626   2.491   5.858   2.363  0.1160  0.8284 -0.1445
15045TIP3    H266627   2.362   5.938   2.357  0.8125  1.8658 -4.0807
15046TIP3   OH266628   2.834   1.208  12.162 -0.1970 -0.4197  0.5465
15046TIP3    H166629   2.848   1.230  12.070  0.2380 -1.0359  0.4612
15046TIP3    H266630   2.771   1.135  12.160  0.0531 -0.6408  0.7235
15047TIP3   OH266631   1.517   1.231  12.606 -0.3576 -0.2289 -0.2108
15047TIP3    H166632   1.481   1.201  12.689  0.1997 -0.0250  0.1122
15047TIP3    H266633   1.587   1.292  12.631 -0.9290  0.7038 -0.8486
15048TIP3   OH266634   3.156   0.263  13.528  0.1806  0.6159  0.4939
15048TIP3    H166635   3.210   0.256  13.449  0.2060  0.3424  0.5339
15048TIP3    H266636   3.079   0.210  13.509  0.2853  0.3735  0.7333
15049TIP3   OH266637   6.313   3.703   5.908  0.1039 -0.6594  0.3224
15049TIP3    H166638   6.268   3.628   5.946 -0.4415 -0.1728  0.6456
15049TIP3    H266639   6.367   3.738   5.979 -1.3753  0.6161  0.8681
15050TIP3   OH266640   1.510   2.190  15.373 -0.2544 -0.1185 -0.6170
15050TIP3    H166641   1.519   2.208  15.466  0.1852 -1.8942 -0.2762
15050TIP3    H266642   1.585   2.135  15.352 -1.3247 -1.2652 -1.5984
15051TIP3   OH266643   5.535   4.244   5.344 -0.1076  0.5472  0.0255
15051TIP3    H166644   5.566   4.186   5.274 -1.6072 -1.5236  0.9492
15051TIP3    H266645   5.615   4.275   5.387  0.9154 -2.8968  1.0110
15052TIP3   OH266646   6.513   2.210  14.646 -0.2472  0.1047 -0.3124
15052TIP3    H166647   6.450   2.140  14.664 -0.4025  0.2931 -0.1219
15052TIP3    H266648   6.459   2.284  14.617  0.0853 -0.7815 -3.5343
15053TIP3   OH266649   1.814   1.667  13.304  0.4776  0.4592  0.4376
15053TIP3    H166650   1.770   1.646  13.386  0.8846 -0.7837  0.3604
15053TIP3    H266651   1.782   1.754  13.281 -0.7036  0.2459  1.1930
15054TIP3   OH266652   6.108   0.082   5.252  0.7126 -0.2420 -0.1810
15054TIP3    H166653   6.061   0.064   5.334  1.5976 -1.3309  0.1180
15054TIP3    H266654   6.150   0.167   5.267  1.2165 -0.6238  0.6775
15055TIP3   OH266655   5.862   1.787   6.008 -0.0985  0.3117  0.0126
15055TIP3    H166656   5.947   1.753   6.034  0.3959  1.8686  0.5458
15055TIP3    H266657   5.800   1.743   6.067  0.3453 -0.6618 -0.2266
15056TIP3   OH266658   1.518   5.385   0.781  0.4217 -0.0797  0.0047
15056TIP3    H166659   1.587   5.322   0.799 -0.3149 -1.2825 -1.2153
15056TIP3    H266660   1.440   5.349   0.825 -0.1394 -0.3460 -1.1680
15057TIP3   OH266661   6.253   4.017   0.459 -0.7786 -0.4066  0.6889
15057TIP3    H166662   6.217   4.052   0.378 -1.2348  0.6484  1.3234
15057TIP3    H266663   6.200   3.939   0.477 -0.8785 -0.4672  0.1431
15058TIP3   OH266664   3.848   4.651  15.251  0.1197  1.0109 -0.0654
15058TIP3    H166665   3.854   4.586  15.321  0.2322  0.3153 -0.7118
15058TIP3    H266666   3.938   4.664  15.221  0.2187  2.1377  0.6429
15059TIP3   OH266667   2.467   2.886  16.489  0.5782 -0.1280  0.1438
15059TIP3    H166668   2.529   2.957  16.506  0.4965  0.0753 -0.3665
15059TIP3    H266669   2.389   2.930  16.454  0.6616 -0.4924 -0.5213
15060TIP3   OH266670   6.151   1.937  15.160  0.3567 -0.4786  0.0218
15060TIP3    H166671   6.123   1.894  15.241 -0.8896  1.2548  0.5783
15060TIP3    H266672   6.246   1.929  15.161  0.4779  0.4313  2.2341
15061TIP3   OH266673   4.868   2.235  16.302  0.4131 -0.1702  0.4125
15061TIP3    H166674   4.841   2.327  16.307 -1.2842 -0.4945 -1.3975
15061TIP3    H266675   4.917   2.220  16.382 -0.0555  2.0685  1.1932
15062TIP3   OH266676   6.452   4.939   3.363 -0.0359 -0.1327 -0.4153
15062TIP3    H166677   6.529   4.910   3.315  1.0192  1.7829  0.0479
15062TIP3    H266678   6.440   5.030   3.337  0.9587  1.2262  3.2975
15063TIP3   OH266679   2.275   6.196  16.898 -0.9309  0.7121  0.7517
15063TIP3    H166680   2.282   6.285  16.866 -1.9048  0.3205 -0.6488
15063TIP3    H266681   2.181   6.182  16.910 -0.7678 -0.0205  1.2549
15064TIP3   OH266682   0.054   3.682  13.313  0.0921 -0.5947  0.1961
15064TIP3    H166683   0.145   3.690  13.341  0.2975  0.4549 -0.7196
15064TIP3    H266684   0.043   3.749  13.245 -1.2179 -1.0507 -0.0797
15065TIP3   OH266685   4.213   4.527  15.725 -0.4412  0.3455 -0.7555
15065TIP3    H166686   4.209   4.612  15.768  1.5012  0.3548 -0.5156
15065TIP3    H266687   4.267   4.473  15.783 -1.6371 -1.0711 -0.9007
15066TIP3   OH266688   5.250   1.067  10.965  0.1281  0.4392  0.2039
15066TIP3    H166689   5.256   1.141  10.904  0.6983 -1.7220 -2.6079
15066TIP3    H266690   5.296   1.096  11.043  2.8689  2.1139 -1.8502
15067TIP3   OH266691   0.043   3.865   3.622 -0.5480  0.0500 -0.2038
15067TIP3    H166692  -0.021   3.935   3.616  0.3220  0.8477 -0.4799
15067TIP3    H266693   0.001   3.790   3.581 -1.5411  0.3775  0.2032
15068TIP3   OH266694   3.103   2.814  12.677  0.3121 -0.1471  0.0973
15068TIP3    H166695   3.083   2.721  12.691  2.1914 -0.7553 -0.8394
15068TIP3    H266696   3.046   2.840  12.605 -0.2347 -0.5668  0.3732
15069TIP3   OH266697   4.476   0.945  16.696 -0.3637  0.0057  0.2585
15069TIP3    H166698   4.542   0.997  16.651  0.6659  0.2403  1.9764
15069TIP3    H266699   4.510   0.934  16.785 -2.2686 -0.5444  0.9645
15070TIP3   OH266700   4.550   2.405  15.637 -0.1791 -0.1731 -0.3011
15070TIP3    H166701   4.645   2.410  15.645 -0.3271  1.1463  1.1905
15070TIP3    H266702   4.519   2.404  15.727 -1.5957 -0.1897 -0.7689
15071TIP3   OH266703   1.929   4.307  15.907 -0.3891 -0.0844 -0.1169
15071TIP3    H166704   1.877   4.258  15.970  0.9039 -2.5657 -0.8329
15071TIP3    H266705   1.982   4.241  15.863  0.2281  1.7808 -2.4114
15072TIP3   OH266706   6.471   3.326  14.478 -0.1302  0.1442 -0.2475
15072TIP3    H166707   6.432   3.288  14.557 -0.9551 -0.4235 -0.9071
15072TIP3    H266708   6.395   3.353  14.425  0.4027  0.1801 -1.0038
15073TIP3   OH266709   5.595   2.828   4.474 -0.2438  0.2508  0.1852
15073TIP3    H166710   5.591   2.748   4.420  1.0827 -0.6016  1.3095
15073TIP3    H266711   5.641   2.891   4.419  0.3252 -0.3312 -0.0144
15074TIP3   OH266712   2.774   0.586   3.310 -0.4761  0.0814 -0.3313
15074TIP3    H166713   2.842   0.543   3.259  0.3420 -0.0949  0.8764
15074TIP3    H266714   2.725   0.637   3.246  2.1232  1.9571 -0.9899
15075TIP3   OH266715   4.163   6.596   0.998  0.4952  0.5367 -0.5245
15075TIP3    H166716   4.104   6.543   1.051  1.1122 -0.3913 -0.7415
15075TIP3    H266717   4.218   6.641   1.062 -2.7065  4.3206 -0.0960
15076TIP3   OH266718   5.883   5.397   1.529  0.2610  0.1231  0.2466
15076TIP3    H166719   5.901   5.307   1.556  2.3353  0.5198  0.3430
15076TIP3    H266720   5.912   5.402   1.438 -1.3493  0.3125 -0.2952
15077TIP3   OH266721   1.877   6.520  15.343  0.1750  0.3804 -0.2570
15077TIP3    H166722   1.881   6.570  15.261 -0.0044  1.0724  0.1537
15077TIP3    H266723   1.951   6.459  15.337  1.6928  2.1050  0.1547
15078TIP3   OH266724   5.530   6.514   3.272 -0.9080 -0.1775 -0.4743
15078TIP3    H166725   5.578   6.588   3.238 -0.8467 -0.3051 -0.6649
15078TIP3    H266726   5.520   6.532   3.366 -0.5891 -0.0974 -0.4567
15079TIP3   OH266727   1.557   2.693   4.293  0.0101  0.5175 -0.0296
15079TIP3    H166728   1.571   2.787   4.283  0.1266  0.3518 -1.7255
15079TIP3    H266729   1.465   2.680   4.271 -0.4164  0.4037  1.7141
15080TIP3   OH266730   5.511   5.086  11.936 -0.1019 -0.6685  0.3888
15080TIP3    H166731   5.417   5.099  11.941  0.1435  2.4033 -0.4334
15080TIP3    H266732   5.548   5.165  11.977  2.1082 -1.7781  0.6640
15081TIP3   OH266733   1.485   0.590   6.001 -0.1682  0.4599 -0.5934
15081TIP3    H166734   1.578   0.568   5.994 -0.4503 -0.8662 -0.4677
15081TIP3    H266735   1.455   0.543   6.079 -0.9538  0.8373 -0.6570
15082TIP3   OH266736   4.800   6.081   0.423 -0.4843 -0.6814  0.7382
15082TIP3    H166737   4.772   6.167   0.454  1.3602 -0.3619  1.6468
15082TIP3    H266738   4.762   6.019   0.485 -3.4295 -0.7685 -0.9963
15083TIP3   OH266739   1.738   4.729   4.100  0.2481 -0.6410 -0.2228
15083TIP3    H166740   1.795   4.663   4.139  1.6622  0.8453  0.3520
15083TIP3    H266741   1.759   4.810   4.147 -2.0586  0.0778 -0.2855
15084TIP3   OH266742   3.942   1.428  15.155 -0.0067  0.0499  0.1356
15084TIP3    H166743   3.969   1.465  15.239 -0.1950  0.3693  0.0583
15084TIP3    H266744   3.949   1.333  15.167  2.6566  0.1081 -0.3575
15085TIP3   OH266745   5.359   4.303  14.792 -0.8602  0.0261  0.2631
15085TIP3    H166746   5.308   4.250  14.854 -0.9174 -0.1115  0.0965
15085TIP3    H266747   5.294   4.344  14.736 -0.8685  0.8774  0.8659
15086TIP3   OH266748   3.585   2.365  12.296  0.0870  0.2895  0.7126
15086TIP3    H166749   3.622   2.383  12.209 -0.5992  0.0772  0.3701
15086TIP3    H266750   3.609   2.442  12.348  0.7943  0.2694  0.4340
15087TIP3   OH266751   1.318   3.193   0.394 -0.5438  0.6830  0.1150
15087TIP3    H166752   1.325   3.286   0.369  3.9710  0.5904  0.3015
15087TIP3    H266753   1.327   3.145   0.312  0.9965  0.4793  0.3628
15088TIP3   OH266754   5.330   1.275  13.554 -0.0941 -0.7686 -0.3499
15088TIP3    H166755   5.402   1.212  13.557  0.2475 -0.4108 -0.8536
15088TIP3    H266756   5.341   1.328  13.633  0.4644 -0.4280 -0.6515
15089TIP3   OH266757   3.155   1.716   0.442 -0.5712  0.2566  0.3862
15089TIP3    H166758   3.121   1.757   0.362  0.3694 -1.1995 -0.8042
15089TIP3    H266759   3.096   1.643   0.459 -0.7081  0.4998  0.9859
15090TIP3   OH266760   6.232   5.383  13.958  0.2909  0.3029 -0.1070
15090TIP3    H166761   6.181   5.394  13.878  0.1038 -0.5457 -0.1140
15090TIP3    H266762   6.186   5.313  14.006  2.2643 -1.5605 -0.7912
15091TIP3   OH266763   3.026   3.229  11.234  0.4201  0.1535  0.2263
15091TIP3    H166764   3.041   3.205  11.142  0.1660  0.0914  0.2015
15091TIP3    H266765   2.931   3.226  11.244  0.5056 -1.2821  0.8716
15092TIP3   OH266766   1.928   3.380   3.065 -0.2251  0.1783  0.2781
15092TIP3    H166767   1.907   3.290   3.089 -2.9132  0.8297  0.6922
15092TIP3    H266768   1.866   3.402   2.995 -0.9558  2.2273  1.4547
15093TIP3   OH266769   4.206   2.953   5.846 -0.2829  0.8600  0.0456
15093TIP3    H166770   4.215   3.048   5.855  0.4670  0.7002  1.1687
15093TIP3    H266771   4.199   2.921   5.936  2.1054 -0.3902 -0.1483
15094TIP3   OH266772   1.580   2.610  14.444 -0.2945 -0.4126 -0.2367
15094TIP3    H166773   1.660   2.621  14.496 -1.1031 -1.0638  1.1890
15094TIP3    H266774   1.531   2.691  14.458  0.9742  0.9465 -2.8152
15095TIP3   OH266775   3.348   0.125  11.459 -0.0767  0.0154 -0.5740
15095TIP3    H166776   3.279   0.160  11.402  0.0647  1.0681 -0.1256
15095TIP3    H266777   3.427   0.173  11.432 -0.1504  1.0858  0.9772
15096TIP3   OH266778   5.130   0.502   4.422 -0.0220 -0.3139 -0.6094
15096TIP3    H166779   5.108   0.414   4.455  3.4734 -0.5377  1.6250
15096TIP3    H266780   5.076   0.561   4.475 -1.4715 -1.0073 -1.2531
15097TIP3   OH266781   5.961   1.171  14.179 -0.5329 -0.1697 -0.6490
15097TIP3    H166782   5.968   1.083  14.217  0.9188  0.1748 -0.0517
15097TIP3    H266783   5.879   1.169  14.130 -0.0969 -2.1663 -1.4191
15098TIP3   OH266784   0.532   1.313  14.904 -0.0570 -0.3947 -0.4694
15098TIP3    H166785   0.446   1.328  14.866 -0.2153 -0.7428 -0.2546
15098TIP3    H266786   0.565   1.235  14.858 -0.2758 -0.8537  0.1506
15099TIP3   OH266787   3.517   0.580  17.105 -0.3983 -0.2612  0.3862
15099TIP3    H166788   3.575   0.516  17.065 -0.0292 -0.4540  1.2117
15099TIP3    H266789   3.433   0.535  17.111  0.0472 -0.9494  1.6508
15100TIP3   OH266790   1.210   6.476   5.656 -0.4619 -0.0203 -0.0936
15100TIP3    H166791   1.208   6.511   5.745 -0.5568 -0.0264 -0.0936
15100TIP3    H266792   1.210   6.381   5.669 -0.6538 -0.0220 -0.1044
15101TIP3   OH266793   3.096   2.078  13.759  0.4886  0.6926 -0.6448
15101TIP3    H166794   3.172   2.020  13.767 -0.9327 -1.4032 -1.4112
15101TIP3    H266795   3.059   2.081  13.847  0.9158  0.9218 -0.4736
15102TIP3   OH266796   0.110   5.636   4.725  0.4597  0.1081  0.0958
15102TIP3    H166797   0.021   5.663   4.702 -0.1086 -0.8534  1.0988
15102TIP3    H266798   0.125   5.674   4.812  0.5157 -0.8529  0.5128
15103TIP3   OH266799   4.072   2.514  16.481  0.2754  0.3991  0.4594
15103TIP3    H166800   4.096   2.532  16.572 -0.1863  0.4923  0.5632
15103TIP3    H266801   4.111   2.586  16.431 -1.6658  1.8112  0.8840
15104TIP3   OH266802   4.239   1.560   4.989 -0.4641  0.0106  0.5361
15104TIP3    H166803   4.325   1.517   4.987 -0.3313  0.2100  1.3023
15104TIP3    H266804   4.222   1.584   4.898  0.6243  0.5993  0.4613
15105TIP3   OH266805   5.165   0.862  14.180  0.1065 -0.5330  0.0966
15105TIP3    H166806   5.189   0.769  14.180  0.2679 -0.6109 -2.9412
15105TIP3    H266807   5.098   0.869  14.111  0.5307  1.6872 -0.1547
15106TIP3   OH266808   6.713   6.264  12.652  0.4598  0.3099  0.0958
15106TIP3    H166809   6.786   6.326  12.641  0.0265  0.9296  0.6725
15106TIP3    H266810   6.661   6.275  12.572  1.8380 -1.3094 -1.0992
15107TIP3   OH266811   3.016   0.353  11.553  0.8207 -0.0251 -0.3742
15107TIP3    H166812   3.049   0.380  11.639  0.2835 -0.3649 -0.0577
15107TIP3    H266813   2.987   0.435  11.512  3.1735  0.4946 -1.1797
15108TIP3   OH266814   6.472   6.586   2.290 -0.2266 -0.3979  0.0953
15108TIP3    H166815   6.522   6.509   2.318 -1.2915 -1.8825 -1.8652
15108TIP3    H266816   6.498   6.600   2.199  1.4644  2.9004  0.9194
15109TIP3   OH266817   2.926   5.418   3.978  0.3170  0.2726 -0.2575
15109TIP3    H166818   3.005   5.447   3.933  2.6436 -1.2325  2.5261
15109TIP3    H266819   2.952   5.410   4.070 -2.7397 -1.5011  0.6086
15110TIP3   OH266820   2.493   6.361  11.598 -0.0578  0.4160 -0.2050
15110TIP3    H166821   2.438   6.319  11.665 -0.6664  1.5368  0.0125
15110TIP3    H266822   2.577   6.374  11.642  0.0113 -0.1699 -0.1429
15111TIP3   OH266823   5.786   1.111  12.315 -0.7716  0.5439 -0.3254
15111TIP3    H166824   5.862   1.109  12.373 -1.4674 -1.9584  0.6102
15111TIP3    H266825   5.731   1.180  12.351  0.2803  1.2401 -0.0014
15112TIP3   OH266826   1.262   2.663  14.443  0.2415  0.3568  0.1190
15112TIP3    H166827   1.242   2.590  14.502 -1.0948 -0.1659 -0.9323
15112TIP3    H266828   1.311   2.724  14.497  2.0181 -1.6096  0.8475
15113TIP3   OH266829   2.347   1.440  12.647 -0.0413 -0.4143  0.6702
15113TIP3    H166830   2.427   1.448  12.699  1.1435 -1.0783 -0.9413
15113TIP3    H266831   2.291   1.511  12.678  0.9681 -0.2308  2.1894
15114TIP3   OH266832   4.459   6.098   5.912 -0.1238 -0.0275 -0.2719
15114TIP3    H166833   4.525   6.048   5.959 -0.4370  0.2271  0.4630
15114TIP3    H266834   4.380   6.044   5.915 -1.0086  1.2192  2.1597
15115TIP3   OH266835   1.700   6.083   2.276 -0.2516  0.0088 -0.1991
15115TIP3    H166836   1.620   6.130   2.297  0.4490  1.0491  0.2543
15115TIP3    H266837   1.672   6.007   2.225 -1.6010 -0.1704  0.7685
15116TIP3   OH266838   5.201   3.858  15.189  0.0759  0.2018  0.6225
15116TIP3    H166839   5.206   3.762  15.189  0.7741  0.2381  0.7510
15116TIP3    H266840   5.279   3.886  15.142 -2.1402  0.6198 -3.2558
15117TIP3   OH266841   4.321   5.779   3.493 -0.8662 -0.1926  0.1148
15117TIP3    H166842   4.230   5.805   3.508 -0.6417  1.6101 -1.2581
15117TIP3    H266843   4.369   5.861   3.489  1.0939 -1.1395  2.0317
15118TIP3   OH266844   4.931   6.563  13.812 -0.0332  0.3319  0.0843
15118TIP3    H166845   4.888   6.644  13.838 -3.2494 -0.8951 -0.9826
15118TIP3    H266846   4.887   6.495  13.863  1.6578 -0.9306 -0.0353
15119TIP3   OH266847   6.624   4.287   1.615  0.2132  0.6222 -0.3127
15119TIP3    H166848   6.558   4.247   1.558  0.6953 -1.0862  0.2725
15119TIP3    H266849   6.646   4.370   1.571 -2.2578  1.2295 -0.5354
15120TIP3   OH266850   0.188   0.219   3.915  0.0293  0.8614 -0.1418
15120TIP3    H166851   0.277   0.185   3.910 -0.4779 -0.4076 -1.1146
15120TIP3    H266852   0.182   0.260   4.001  1.7880  1.6790 -0.3636
15121TIP3   OH266853   5.900   2.869  11.418 -0.2376 -0.4974  0.0783
15121TIP3    H166854   5.849   2.906  11.346  2.5464  0.0190 -1.7689
15121TIP3    H266855   5.892   2.934  11.488 -2.3970 -0.6563  0.0692
15122TIP3   OH266856   3.749   4.639   5.019  0.1535 -0.5254  0.1532
15122TIP3    H166857   3.805   4.689   4.959 -0.9789 -0.4251 -0.8392
15122TIP3    H266858   3.771   4.674   5.106  0.4473  0.6627 -0.3783
15123TIP3   OH266859   6.372   2.256   4.307 -1.2365 -0.1806  0.4061
15123TIP3    H166860   6.440   2.269   4.373 -0.4239 -1.4736 -0.1351
15123TIP3    H266861   6.305   2.204   4.352 -1.5246  0.4347  0.7078
15124TIP3   OH266862   6.343   2.408  14.589 -0.1382  0.3960  0.4480
15124TIP3    H166863   6.275   2.385  14.525  1.4681 -1.3812 -0.7277
15124TIP3    H266864   6.295   2.430  14.668 -2.1563  1.4027 -0.9708
15125TIP3   OH266865   1.948   5.638   5.065  0.0766 -0.1176  0.0884
15125TIP3    H166866   1.955   5.636   4.969 -1.1625 -1.1566 -0.0143
15125TIP3    H266867   1.914   5.551   5.088  1.3869 -0.2855  1.5809
15126TIP3   OH266868   2.138   2.016   4.141 -0.4057 -0.1503 -0.5612
15126TIP3    H166869   2.070   1.951   4.127 -0.0572 -0.8567  0.8479
15126TIP3    H266870   2.199   2.003   4.068  0.4241 -2.4337  0.4497
15127TIP3   OH266871   4.585   3.660   4.799  0.1667  0.6245  0.4113
15127TIP3    H166872   4.674   3.658   4.765  0.5046  2.6455  1.0908
15127TIP3    H266873   4.587   3.724   4.870 -1.3511 -0.8324  1.8837
15128TIP3   OH266874   6.716   2.814   4.989 -0.3624 -0.4644 -0.1750
15128TIP3    H166875   6.767   2.835   4.911 -1.4726  0.5608 -0.6617
15128TIP3    H266876   6.781   2.801   5.058  0.6026 -0.5576 -1.0806
15129TIP3   OH266877   0.610   0.296  12.383  0.2395  0.2129  0.3005
15129TIP3    H166878   0.659   0.335  12.311 -0.0061  1.8578  0.9935
15129TIP3    H266879   0.538   0.249  12.340  1.3743 -0.7598 -0.6192
15130TIP3   OH266880   0.963   5.061   6.469 -0.4163  0.1460 -0.2306
15130TIP3    H166881   0.934   4.983   6.516 -0.1930 -0.2983 -0.8163
15130TIP3    H266882   0.891   5.123   6.479 -0.7094 -0.2291  0.0192
15131TIP3   OH266883   2.462   6.093  12.940  0.3342 -0.1133 -0.4431
15131TIP3    H166884   2.460   6.081  12.845  1.6738 -0.8126 -0.3987
15131TIP3    H266885   2.369   6.096  12.965 -0.0439 -0.8561 -1.6579
15132TIP3   OH266886   4.055   4.199   5.472 -0.2450 -0.1595  0.1237
15132TIP3    H166887   4.129   4.259   5.482 -0.3917 -0.1716  1.3761
15132TIP3    H266888   4.018   4.221   5.387  0.0928  1.0962  0.2859
15133TIP3   OH266889   0.416   0.802   2.743 -0.0573 -0.1566  0.5768
15133TIP3    H166890   0.491   0.860   2.758  0.7787 -0.7086 -1.1921
15133TIP3    H266891   0.346   0.861   2.715  0.4180  0.1536  0.0043
15134TIP3   OH266892   2.372   4.696   3.059 -0.1836  0.4206 -0.0310
15134TIP3    H166893   2.380   4.626   2.994  0.7789  0.3674  0.1273
15134TIP3    H266894   2.335   4.770   3.010 -0.2798  0.1125 -0.4290
15135TIP3   OH266895   4.466   6.548  16.338 -0.5006  0.4208  0.0408
15135TIP3    H166896   4.491   6.519  16.250 -0.8838 -0.2054  0.1325
15135TIP3    H266897   4.436   6.639  16.325 -1.6167 -0.0152 -0.6779
15136TIP3   OH266898   2.248   3.320  16.496  0.5695  0.8625  0.0845
15136TIP3    H166899   2.266   3.349  16.407 -1.4792 -1.4469 -1.2161
15136TIP3    H266900   2.153   3.322  16.504  0.6402 -0.0861  1.8090
15137TIP3   OH266901   1.440   3.882  11.385  0.1088  0.2472  0.0262
15137TIP3    H166902   1.375   3.886  11.314  1.7612 -0.3596 -1.5984
15137TIP3    H266903   1.487   3.965  11.379 -1.9994  1.7998  2.8145
15138TIP3   OH266904   3.083   3.415  14.604  0.2130  0.0147  0.0876
15138TIP3    H166905   3.051   3.339  14.556 -0.1720 -0.3596  0.9046
15138TIP3    H266906   3.117   3.474  14.537  0.8253 -1.0159 -0.5322
15139TIP3   OH266907   6.741   3.524  14.676 -0.1416  0.2035 -0.3991
15139TIP3    H166908   6.681   3.449  14.669  0.0887  0.0662 -1.0078
15139TIP3    H266909   6.749   3.540  14.770 -0.9412  0.0676 -0.2970
15140TIP3   OH266910   5.550   5.443  14.017  0.0132  0.2759 -0.7839
15140TIP3    H166911   5.586   5.530  14.034  0.6173 -0.4855  2.6044
15140TIP3    H266912   5.470   5.439  14.070 -2.4982  0.1403 -4.2191
15141TIP3   OH266913   2.860   0.058   1.498 -0.0349 -0.1520 -0.4530
15141TIP3    H166914   2.814   0.017   1.426 -0.2869 -0.4615 -0.1156
15141TIP3    H266915   2.793   0.073   1.565  0.3173 -0.4512 -0.0283
15142TIP3   OH266916   0.331   1.225   4.679 -0.0906  0.1769 -0.1945
15142TIP3    H166917   0.335   1.137   4.715  1.2236 -0.1746 -1.1369
15142TIP3    H266918   0.237   1.245   4.676 -0.3493 -0.7137  1.0991
15143TIP3   OH266919   5.444   0.028   6.530  0.4815  0.1781  0.5229
15143TIP3    H166920   5.408  -0.039   6.472 -2.7477  1.8264  0.4113
15143TIP3    H266921   5.449  -0.014   6.616 -0.3337 -0.5785  0.2146
15144TIP3   OH266922   6.053   1.491  12.394 -0.8672  0.0664  0.1673
15144TIP3    H166923   5.957   1.498  12.396 -0.8243  0.6293  0.8437
15144TIP3    H266924   6.071   1.402  12.423 -1.1957 -0.1171 -0.1868
15145TIP3   OH266925   6.160   1.016  13.088  0.4681 -0.4510  0.2522
15145TIP3    H166926   6.183   0.957  13.161  2.3762  1.4118  1.2900
15145TIP3    H266927   6.118   1.091  13.130 -0.7480 -0.4685 -0.8891
15146TIP3   OH266928   4.458   5.479   0.658  0.0515  0.1660 -0.0635
15146TIP3    H166929   4.386   5.501   0.599  0.4750  1.3166 -0.1901
15146TIP3    H266930   4.416   5.458   0.741 -0.4330  1.4760  0.0569
15147TIP3   OH266931   0.521   0.816  11.952  0.2400 -0.0665 -1.2354
15147TIP3    H166932   0.429   0.797  11.934  0.2322 -0.8830 -0.4175
15147TIP3    H266933   0.518   0.891  12.012  0.0241 -1.1084  0.0924
15148TIP3   OH266934   5.477   0.468   4.944 -0.2513  0.4245  0.0892
15148TIP3    H166935   5.406   0.502   4.890 -1.2044 -1.9752 -0.2588
15148TIP3    H266936   5.448   0.484   5.034 -0.7569  0.3509 -0.0604
15149TIP3   OH266937   1.231   5.026  16.964  0.1545  0.1060 -0.2152
15149TIP3    H166938   1.237   5.012  17.059 -1.8551 -1.5296 -0.2697
15149TIP3    H266939   1.147   5.068  16.951 -0.2377 -0.9767 -1.3696
15150TIP3   OH266940   4.462   1.247  13.478 -0.3931  0.1271  0.3751
15150TIP3    H166941   4.544   1.212  13.442  0.5130  0.2794  2.2091
15150TIP3    H266942   4.452   1.204  13.562 -2.7671 -0.6267 -0.2230
15151TIP3   OH266943   1.868   3.814   5.026 -0.5753  0.0610 -0.2991
15151TIP3    H166944   1.857   3.906   5.001  0.6373  0.7389  1.4654
15151TIP3    H266945   1.781   3.787   5.055 -0.7271  0.9581  0.1078
15152TIP3   OH266946   1.277   1.285  11.927 -0.1363  0.1664  0.2505
15152TIP3    H166947   1.253   1.324  12.011  1.3084  1.7265 -0.0130
15152TIP3    H266948   1.202   1.300  11.870 -0.4674  0.5583  0.7835
15153TIP3   OH266949   1.660   5.794  13.560 -0.3542 -0.1626  0.3122
15153TIP3    H166950   1.610   5.859  13.510  0.5834  0.2025 -0.1864
15153TIP3    H266951   1.651   5.713  13.509  0.7981  0.2644 -0.6299
15154TIP3   OH266952   3.575   3.137   3.853 -0.0672 -0.1591  0.2268
15154TIP3    H166953   3.513   3.065   3.844 -0.6100  0.3730 -0.4680
15154TIP3    H266954   3.530   3.201   3.908  0.7346 -0.6812  1.5185
15155TIP3   OH266955   1.821   6.734   2.790  0.4565  0.0916  0.3863
15155TIP3    H166956   1.798   6.756   2.881  0.6989  0.8223  0.2794
15155TIP3    H266957   1.776   6.800   2.738 -0.3634 -0.8171 -0.0978
15156TIP3   OH266958   6.071   0.800   2.139 -0.4587  0.0457  0.2139
15156TIP3    H166959   6.062   0.894   2.157 -1.9652 -0.0991  0.3055
15156TIP3    H266960   6.143   0.771   2.196 -2.0928  0.5092  2.6265
15157TIP3   OH266961   2.291   2.817  11.038 -0.0315 -0.4436 -0.0576
15157TIP3    H166962   2.350   2.846  10.968 -1.6552  0.2925 -1.1806
15157TIP3    H266963   2.278   2.895  11.092  1.1636 -0.9911  1.0905
15158TIP3   OH266964   0.368   6.103  13.943 -0.0757 -0.0251 -0.3647
15158TIP3    H166965   0.354   6.026  13.998  1.3907  0.7543  1.2132
15158TIP3    H266966   0.443   6.079  13.888 -0.6985 -0.3263 -1.0876
15159TIP3   OH266967   4.731   3.581   3.878 -0.1447  0.0047  0.4190
15159TIP3    H166968   4.709   3.505   3.826  0.5983 -0.4462  0.7431
15159TIP3    H266969   4.748   3.650   3.814 -0.5226 -0.1814  0.1164
15160TIP3   OH266970   2.332   2.654  14.858  0.0869  0.0049 -0.1627
15160TIP3    H166971   2.354   2.681  14.947  0.5265  2.3599 -0.9072
15160TIP3    H266972   2.297   2.565  14.867 -0.7066  0.5163  2.4368
15161TIP3   OH266973   5.193   3.077   4.104  0.2139 -0.4101  0.5351
15161TIP3    H166974   5.210   3.137   4.176 -0.7334  0.9284 -0.3155
15161TIP3    H266975   5.137   3.009   4.143  0.7644 -0.4196  1.3440
15162TIP3   OH266976   1.202   4.061   5.547  0.5226 -0.2116  0.3843
15162TIP3    H166977   1.146   4.071   5.470  0.7078  0.1973  0.3045
15162TIP3    H266978   1.209   4.149   5.583 -0.0188 -0.4909  1.1941
15163TIP3   OH266979   1.489   5.491  11.664 -0.8126 -0.0637 -0.4220
15163TIP3    H166980   1.477   5.427  11.595 -0.5454 -0.1897 -0.3530
15163TIP3    H266981   1.583   5.512  11.662 -1.0487  1.0140 -1.0502
15164TIP3   OH266982   0.987   2.801  14.630  0.4051 -0.2258  0.7416
15164TIP3    H166983   0.981   2.866  14.559 -0.5195  0.0164  1.0253
15164TIP3    H266984   1.010   2.719  14.586 -0.9399 -0.2564  0.0368
15165TIP3   OH266985   1.697   5.697   2.726  0.0726  0.0276 -0.2502
15165TIP3    H166986   1.790   5.718   2.729  0.2371 -0.2847 -1.9623
15165TIP3    H266987   1.671   5.715   2.635 -1.9945  1.9075  0.6076
15166TIP3   OH266988   0.095   2.998  12.975 -0.9351  0.0367 -0.5032
15166TIP3    H166989   0.060   2.923  13.023 -1.0592 -0.1625 -0.8970
15166TIP3    H266990   0.105   3.067  13.040  2.0670 -1.2349  0.5605
15167TIP3   OH266991   3.223   4.544  11.644  0.1002 -0.4815  0.3869
15167TIP3    H166992   3.133   4.511  11.649 -0.0961  0.0386  0.3659
15167TIP3    H266993   3.244   4.569  11.734 -0.9540  2.4132 -0.0349
15168TIP3   OH266994   1.887   2.661   3.950  0.7046 -0.7744 -0.2787
15168TIP3    H166995   1.794   2.651   3.931  0.8375 -1.8765 -0.4086
15168TIP3    H266996   1.895   2.641   4.043  0.7591 -0.2187 -0.1564
15169TIP3   OH266997   2.820   2.958  16.415  0.5681  0.8422 -0.3027
15169TIP3    H166998   2.797   3.046  16.447 -2.0861 -0.1949  0.9861
15169TIP3    H266999   2.760   2.943  16.342  0.0260 -0.3744  0.3585
15170TIP3   OH267000   3.358   0.695   2.254  0.0680  0.5543  0.1314
15170TIP3    H167001   3.351   0.635   2.180 -0.3171 -0.3559  0.8867
15170TIP3    H267002   3.281   0.677   2.307  2.0927 -1.4596  2.6608
15171TIP3   OH267003   6.319   5.971  11.883 -0.0658  0.1852 -0.4079
15171TIP3    H167004   6.269   5.890  11.885 -1.5328  1.0722  0.3171
15171TIP3    H267005   6.405   5.945  11.850 -0.5580 -1.6184 -0.3769
15172TIP3   OH267006   2.891   2.583  16.272  0.0275  0.2488 -0.4563
15172TIP3    H167007   2.934   2.523  16.211 -0.6425 -0.9173  0.1674
15172TIP3    H267008   2.798   2.576  16.251 -0.2471 -0.3884  0.8472
15173TIP3   OH267009   4.392   2.975  15.920  0.3610  0.4588 -0.4520
15173TIP3    H167010   4.403   2.881  15.936 -1.0144  0.0663 -1.6268
15173TIP3    H267011   4.480   3.007  15.900  1.6138  0.2751  3.8051
15174TIP3   OH267012   0.536   4.942  14.188 -0.2246 -0.2661 -0.3288
15174TIP3    H167013   0.610   4.988  14.149  0.1304  1.2455  1.9227
15174TIP3    H267014   0.509   4.879  14.122  0.7054  1.6664 -2.7005
15175TIP3   OH267015   5.441   3.532  14.120  0.3908 -0.0310  0.2310
15175TIP3    H167016   5.460   3.626  14.109 -1.2003  0.3030  0.1291
15175TIP3    H267017   5.401   3.506  14.037  2.6628 -1.3455 -0.5433
15176TIP3   OH267018   4.316   4.572   5.204 -0.0291  0.5343  0.3336
15176TIP3    H167019   4.408   4.547   5.195  0.3345  1.9020  0.0256
15176TIP3    H267020   4.292   4.607   5.118 -1.3741 -1.4071 -0.1375
15177TIP3   OH267021   2.357   3.464   3.587  0.3927 -0.1940 -0.1294
15177TIP3    H167022   2.404   3.381   3.598 -1.3467 -1.0807  1.1136
15177TIP3    H267023   2.282   3.442   3.532 -0.5139  0.3337  0.8439
15178TIP3   OH267024   4.497   5.032  11.679  0.3110  0.2571 -0.1425
15178TIP3    H167025   4.588   5.057  11.660  0.4543  0.7926  1.1471
15178TIP3    H267026   4.480   4.958  11.621  1.1149  0.9945 -1.3812
15179TIP3   OH267027   0.843   5.209   5.411  0.9016  0.8899  0.0425
15179TIP3    H167028   0.915   5.272   5.421  0.9705  0.6261  1.3555
15179TIP3    H267029   0.826   5.177   5.500 -0.0616  0.0767 -0.4122
15180TIP3   OH267030   5.319   6.440   3.962 -1.1167 -0.1987 -0.3489
15180TIP3    H167031   5.311   6.507   3.895  1.6783 -0.4304 -1.0679
15180TIP3    H267032   5.377   6.374   3.923 -0.4229 -0.9655  1.8247
15181TIP3   OH267033   1.912   6.436   0.504  0.4629  0.0304  0.3591
15181TIP3    H167034   1.994   6.477   0.477  0.9328 -1.3754 -0.4450
15181TIP3    H267035   1.846   6.473   0.444  1.0396 -1.0370 -0.9803
15182TIP3   OH267036   5.719   0.890   5.548 -0.0501 -0.2317 -0.3039
15182TIP3    H167037   5.723   0.977   5.587  0.1326 -0.6229  0.5733
15182TIP3    H267038   5.794   0.844   5.585 -0.7265 -1.0849  0.0466
15183TIP3   OH267039   2.709   6.805  13.280  0.4557  0.0174 -0.9666
15183TIP3    H167040   2.733   6.784  13.370 -1.0396  0.2926 -0.4645
15183TIP3    H267041   2.699   6.720  13.237 -1.0545 -0.2292 -0.2155
15184TIP3   OH267042   0.905   1.910   5.128  0.2391 -0.1947  0.6861
15184TIP3    H167043   0.950   1.827   5.145  1.4715  0.4352  0.5928
15184TIP3    H267044   0.963   1.977   5.162 -0.8909  0.6352  1.0473
15185TIP3   OH267045   0.238   5.106   1.095  0.5086 -0.9402 -0.1537
15185TIP3    H167046   0.274   5.018   1.083 -0.1444 -1.2051 -0.1911
15185TIP3    H267047   0.235   5.143   1.006 -1.7889 -1.9098 -0.5465
15186TIP3   OH267048   6.239   2.093  16.384  0.5080  0.0347 -0.0278
15186TIP3    H167049   6.305   2.024  16.374  1.1771  0.5826  0.4953
15186TIP3    H267050   6.157   2.051  16.359  1.1942 -0.3594 -1.7748
15187TIP3   OH267051   0.029   4.163   3.137  0.4097  0.0333 -0.8849
15187TIP3    H167052   0.120   4.133   3.145  0.1538 -0.2148  2.4617
15187TIP3    H267053   0.037   4.255   3.111  1.5392 -0.3795 -2.0884
15188TIP3   OH267054   2.625   3.239  11.513 -0.1420  0.1365  0.0887
15188TIP3    H167055   2.694   3.306  11.514 -0.8345  0.8800 -0.7021
15188TIP3    H267056   2.653   3.175  11.579  1.3501  0.3743 -0.2687
15189TIP3   OH267057   1.719   6.365  15.613  0.0134  0.3804  0.1673
15189TIP3    H167058   1.801   6.414  15.605  1.1558 -1.4806 -0.1840
15189TIP3    H267059   1.651   6.432  15.619  1.6278  1.9896  1.3931
15190TIP3   OH267060   3.483   0.054  13.339 -0.2011  0.4030  0.8527
15190TIP3    H167061   3.554   0.064  13.276 -0.1463 -1.2961  0.6149
15190TIP3    H267062   3.404   0.082  13.291  0.0478  0.5879  0.5460
15191TIP3   OH267063   2.596   6.353  16.618  0.7066  1.0055 -0.0493
15191TIP3    H167064   2.584   6.432  16.564 -0.9360  1.1771  0.5139
15191TIP3    H267065   2.634   6.385  16.699 -0.7910  1.3877  0.5330
15192TIP3   OH267066   4.806   1.769  13.257  0.0274 -0.3512 -0.0519
15192TIP3    H167067   4.818   1.737  13.168  1.6040  1.8221 -0.7035
15192TIP3    H267068   4.895   1.784  13.290 -0.5176  2.9379  0.2477
15193TIP3   OH267069   4.880   2.691   4.251  0.2167  0.2498 -0.3191
15193TIP3    H167070   4.889   2.685   4.346  0.5513  1.0487 -0.2852
15193TIP3    H267071   4.913   2.779   4.230  0.1881  0.0641 -1.1760
15194TIP3   OH267072   1.553   5.769  14.381 -0.1125 -0.3685 -0.2883
15194TIP3    H167073   1.559   5.721  14.463  0.6964 -1.5742 -1.0271
15194TIP3    H267074   1.463   5.802  14.379 -0.3890 -1.0409  0.6764
15195TIP3   OH267075   1.345   2.567  12.014  0.0582 -0.1633 -0.1238
15195TIP3    H167076   1.380   2.485  11.977  0.5501  0.9895 -2.3718
15195TIP3    H267077   1.352   2.555  12.109 -1.6176 -3.4555 -0.2495
15196TIP3   OH267078   4.546   2.274   1.643 -0.3258  0.0074  0.4519
15196TIP3    H167079   4.626   2.240   1.603  0.1415  0.2850  1.1250
15196TIP3    H267080   4.480   2.206   1.628  0.0883 -0.3134  0.0722
15197TIP3   OH267081   6.115   4.606  13.924 -0.4322  0.5917 -0.0396
15197TIP3    H167082   6.186   4.670  13.924 -0.5730  0.7732  0.9448
15197TIP3    H267083   6.058   4.633  13.852  0.5649  0.3483 -0.9370
15198TIP3   OH267084   2.164   1.213  11.826 -0.0115 -0.1703 -0.1235
15198TIP3    H167085   2.122   1.134  11.791 -0.3071 -0.6008  1.1295
15198TIP3    H267086   2.156   1.203  11.921  1.9868  0.2451  0.1260
15199TIP3   OH267087   2.371   5.946  12.686 -0.1637 -0.1856 -0.3080
15199TIP3    H167088   2.398   5.969  12.597  3.1933 -1.8270  0.1553
15199TIP3    H267089   2.313   5.870  12.674  1.7400 -1.5911 -1.0892
15200TIP3   OH267090   1.933   3.541   0.214  0.3718 -0.3007 -0.0195
15200TIP3    H167091   1.970   3.544   0.302  0.6896 -0.3759 -0.1511
15200TIP3    H267092   1.893   3.628   0.202  2.7913  0.7932 -0.8536
15201TIP3   OH267093   0.508   5.537   4.946  0.4205 -0.2000 -0.4750
15201TIP3    H167094   0.538   5.478   5.015  0.8501 -0.1491 -0.6128
15201TIP3    H267095   0.571   5.525   4.876 -0.7256 -1.1915 -1.3785
15202TIP3   OH267096   6.412   4.161  14.559 -0.7855 -0.2869  0.5766
15202TIP3    H167097   6.337   4.150  14.501 -0.9029  1.4759  0.3659
15202TIP3    H267098   6.470   4.222  14.512 -0.1835 -0.0142  1.6528
15203TIP3   OH267099   3.848   4.293   2.701 -0.0656  0.0481  0.0923
15203TIP3    H167100   3.841   4.226   2.769 -0.3127 -0.7681 -0.7225
15203TIP3    H267101   3.885   4.369   2.746  0.3239 -0.6645  1.0022
15204TIP3   OH267102   4.972   1.088   4.120  0.0171 -0.2398  0.2172
15204TIP3    H167103   4.881   1.061   4.107  0.2143 -1.4966  1.2900
15204TIP3    H267104   5.022   1.007   4.116  0.9320  0.2691  0.9852
15205TIP3   OH267105   3.092   0.909   4.173 -0.1620  0.1217 -0.3611
15205TIP3    H167106   3.138   0.853   4.235  0.4172  0.0153 -0.8810
15205TIP3    H267107   3.160   0.967   4.138 -0.6173  0.6561 -0.3744
15206TIP3   OH267108   2.297   1.577  16.683  0.4128  0.4353 -0.4020
15206TIP3    H167109   2.273   1.655  16.732 -1.3228 -0.1913 -0.2016
15206TIP3    H267110   2.389   1.591  16.660  0.7771  1.5386  1.5041
15207TIP3   OH267111   2.680   1.863  12.422  0.1160  0.5347  0.4149
15207TIP3    H167112   2.732   1.908  12.356 -0.9686  0.3238 -0.6058
15207TIP3    H267113   2.718   1.775  12.426  0.5237  0.7100  0.4667
15208TIP3   OH267114   0.909   1.913  15.614 -0.0674  0.2185 -0.0341
15208TIP3    H167115   0.920   1.835  15.559  0.5228  0.5212 -0.3520
15208TIP3    H267116   0.844   1.965  15.567 -0.3383 -0.0015  0.0930
15209TIP3   OH267117   0.337   4.577   4.784 -0.1893  0.0395 -0.9397
15209TIP3    H167118   0.283   4.511   4.827 -1.5552  1.0225 -1.0478
15209TIP3    H267119   0.381   4.530   4.714 -1.3723 -0.7170 -1.2104
15210TIP3   OH267120   3.808   5.154   1.948  0.1629 -0.6472  0.3065
15210TIP3    H167121   3.734   5.101   1.919 -0.3276  0.7413 -1.1117
15210TIP3    H267122   3.830   5.209   1.873  1.5991  0.1280  1.2301
15211TIP3   OH267123   1.615   1.192   3.838 -0.0884  0.4698  0.1633
15211TIP3    H167124   1.627   1.196   3.743 -0.6730 -1.2400 -0.0108
15211TIP3    H267125   1.688   1.243   3.873 -0.4435  2.0160 -1.2129
15212TIP3   OH267126   1.563   2.535  16.260  0.2341 -0.0426  0.0323
15212TIP3    H167127   1.599   2.539  16.349  1.2131  1.6464 -0.3908
15212TIP3    H267128   1.469   2.551  16.271  0.4584  0.9285  0.7350
15213TIP3   OH267129   6.714   2.307  10.597 -0.1775 -0.3217 -0.3418
15213TIP3    H167130   6.750   2.259  10.672 -1.1950  0.2442  0.5311
15213TIP3    H267131   6.789   2.356  10.562 -0.1569  1.2709  1.7855
15214TIP3   OH267132   3.580   6.100   2.277  0.1221  0.6212 -0.4310
15214TIP3    H167133   3.569   6.005   2.282  1.8195  0.4431  0.4212
15214TIP3    H267134   3.505   6.135   2.326  1.5462 -0.4171  2.7191
15215TIP3   OH267135   1.636   2.593   1.179  0.1524 -0.2415  0.9364
15215TIP3    H167136   1.676   2.607   1.265  0.0247 -0.1960  0.9886
15215TIP3    H267137   1.686   2.649   1.120  2.2679 -2.5232  0.3952
15216TIP3   OH267138   1.924   2.994   0.969  0.5621 -0.0920  0.1554
15216TIP3    H167139   1.958   3.062   1.026  0.9868 -0.0054 -0.1922
15216TIP3    H267140   2.001   2.947   0.938  0.3571 -0.0512 -0.4464
15217TIP3   OH267141   0.460   3.397  14.786 -0.1319  0.9045 -0.1135
15217TIP3    H167142   0.455   3.420  14.694 -0.3359 -0.0278 -0.3416
15217TIP3    H267143   0.530   3.331  14.791 -0.4896  0.5473  0.3111
15218TIP3   OH267144   2.462   3.575  10.772 -0.0161  0.2365 -0.2034
15218TIP3    H167145   2.552   3.603  10.785 -0.3218  0.8484  0.7399
15218TIP3    H267146   2.410   3.645  10.813 -0.8280 -1.8237  2.5495
15219TIP3   OH267147   6.280   5.894  16.955 -0.1815  0.1988 -0.3126
15219TIP3    H167148   6.324   5.819  16.916 -0.3254  0.8972 -1.8962
15219TIP3    H267149   6.338   5.968  16.938 -1.2319  0.8764 -1.0626
15220TIP3   OH267150   0.998   4.394  14.076  0.1590 -0.0916 -0.5892
15220TIP3    H167151   1.078   4.445  14.068  0.1477  0.1428  0.5940
15220TIP3    H267152   1.027   4.305  14.095  0.1698  0.4018  2.0365
15221TIP3   OH267153   2.173   5.213  16.166  0.3349  0.0111 -0.1215
15221TIP3    H167154   2.224   5.260  16.232  1.4219 -0.5364 -0.5497
15221TIP3    H267155   2.184   5.120  16.189 -0.1417 -0.1279 -0.4505
15222TIP3   OH267156   5.294   6.726   0.640  0.5373 -0.1029 -0.1369
15222TIP3    H167157   5.236   6.802   0.640  0.4260 -0.1321  1.5675
15222TIP3    H267158   5.376   6.759   0.677  0.9224 -0.5188 -0.6157
15223TIP3   OH267159   4.510   4.598  14.749 -0.3440  0.2761 -0.6042
15223TIP3    H167160   4.539   4.566  14.835 -0.3644 -1.4642 -1.2098
15223TIP3    H267161   4.425   4.639  14.767  0.1029  0.8455  0.3473
15224TIP3   OH267162   3.434   4.060  13.306  0.3411  0.3772  0.1615
15224TIP3    H167163   3.438   4.134  13.245  0.1794  1.8887  1.8855
15224TIP3    H267164   3.525   4.049  13.336  0.3502 -0.0766 -0.0310
15225TIP3   OH267165   5.801   4.441   3.598  0.1164  0.1502 -0.4701
15225TIP3    H167166   5.871   4.430   3.534 -0.3516  0.6558 -1.0900
15225TIP3    H267167   5.740   4.369   3.580 -0.8706  1.2597 -1.7602
15226TIP3   OH267168   1.016   2.109   3.226 -0.2772 -0.2799 -0.0203
15226TIP3    H167169   0.956   2.110   3.301 -0.3038  1.0064 -0.0399
15226TIP3    H267170   1.097   2.073   3.261 -0.7906 -1.2530  0.2124
15227TIP3   OH267171   5.240   0.514  14.772  0.0928 -0.1872  0.3808
15227TIP3    H167172   5.262   0.510  14.679  1.1228 -0.0168  0.6067
15227TIP3    H267173   5.257   0.426  14.805 -2.3550 -0.8702 -0.0104
15228TIP3   OH267174   3.728   6.226  15.722  0.1260  0.4137 -0.0342
15228TIP3    H167175   3.679   6.153  15.759  1.4944 -0.1489  0.7691
15228TIP3    H267176   3.716   6.219  15.628  1.1693 -1.5781 -0.0679
15229TIP3   OH267177   3.150   3.252   4.926  0.2202 -0.1857  0.8692
15229TIP3    H167178   3.234   3.219   4.893  0.2919 -0.8377  1.6796
15229TIP3    H267179   3.143   3.340   4.889  1.2889 -0.1035  0.8370
15230TIP3   OH267180   1.973   5.681  11.643  0.1173 -0.6911  0.3134
15230TIP3    H167181   1.920   5.624  11.698 -1.8278  0.3665 -0.3631
15230TIP3    H267182   2.019   5.738  11.705 -1.0207 -0.3758  0.8926
15231TIP3   OH267183   4.026   5.823  17.244  0.0178 -0.2484 -0.3553
15231TIP3    H167184   4.109   5.807  17.198  1.1256  0.1163  1.4249
15231TIP3    H267185   4.006   5.914  17.225  0.6233 -0.0142  0.1114
15232TIP3   OH267186   0.561   0.567   1.226 -0.2407  0.4633 -0.2441
15232TIP3    H167187   0.503   0.636   1.257  0.6856  1.1973 -0.0997
15232TIP3    H267188   0.518   0.486   1.254  0.3992  1.0445  2.8419
15233TIP3   OH267189   3.956   0.387   4.631  0.1791 -0.5747 -0.2196
15233TIP3    H167190   3.928   0.444   4.560  0.6431 -2.4467 -2.0179
15233TIP3    H267191   3.874   0.351   4.666 -0.0191 -0.1568 -0.2436
15234TIP3   OH267192   5.082   2.454   0.494  0.3137 -0.4294  0.1551
15234TIP3    H167193   5.135   2.408   0.560 -1.3613 -2.1343  0.3829
15234TIP3    H267194   4.997   2.465   0.536  0.3399  1.9747 -0.3306
15235TIP3   OH267195   5.691   2.086   1.330 -0.0243 -0.8009 -0.3532
15235TIP3    H167196   5.720   2.039   1.408  1.6314 -1.6721 -1.4448
15235TIP3    H267197   5.598   2.102   1.345  0.3559 -0.4678  2.0234
15236TIP3   OH267198   4.706   3.614   1.423  0.2563 -0.3072  0.4987
15236TIP3    H167199   4.645   3.685   1.402  0.4419  0.0029  0.9923
15236TIP3    H267200   4.687   3.592   1.514  0.9032 -0.1786  0.6702
15237TIP3   OH267201   5.516   2.016   1.038  0.9384  0.4364 -0.1874
15237TIP3    H167202   5.523   2.110   1.055  1.1416  0.3203  0.3747
15237TIP3    H267203   5.601   1.980   1.065  0.1730 -0.1902  1.4992
15238TIP3   OH267204   3.040   3.151  12.539 -0.4569  0.2337 -0.7615
15238TIP3    H167205   3.027   3.216  12.470 -0.4342  1.8209  0.6581
15238TIP3    H267206   2.968   3.167  12.601 -1.4711 -2.2659 -1.1891
15239TIP3   OH267207   1.826   3.364   5.072  0.4423  0.6364  0.3036
15239TIP3    H167208   1.886   3.336   5.003  1.3600  0.4601  1.1455
15239TIP3    H267209   1.835   3.298   5.140 -1.3589  0.1501  0.1210
15240TIP3   OH267210   0.828   3.794   3.505 -0.0482 -0.3306 -0.0443
15240TIP3    H167211   0.867   3.730   3.446  1.1966 -0.3358  0.7460
15240TIP3    H267212   0.841   3.758   3.593  1.8876  1.5286  0.5336
15241TIP3   OH267213   3.216   6.335  11.871 -0.4661  0.4918  0.0006
15241TIP3    H167214   3.247   6.417  11.833  0.3116  0.4271  0.4754
15241TIP3    H267215   3.170   6.291  11.800  0.1104  0.8185 -0.5844
15242TIP3   OH267216   1.326   2.130   2.390 -0.1854  0.3917  0.1079
15242TIP3    H167217   1.276   2.144   2.470 -1.9348 -0.3151 -0.8079
15242TIP3    H267218   1.283   2.184   2.324  1.4971  1.3104 -0.2952
15243TIP3   OH267219   5.423   1.708   2.804  0.0910 -0.1103  0.0408
15243TIP3    H167220   5.424   1.651   2.880  2.9323  0.3327  0.4694
15243TIP3    H267221   5.508   1.692   2.761 -0.9330  0.4920 -2.3934
15244TIP3   OH267222   4.120   1.838   6.357 -1.0315  0.2172 -0.5845
15244TIP3    H167223   4.195   1.778   6.354 -0.6116  0.6683  0.5347
15244TIP3    H267224   4.157   1.924   6.338 -0.6680  0.9398  2.7988
15245TIP3   OH267225   5.323   5.069  13.828  0.1958  0.3506  0.2371
15245TIP3    H167226   5.333   5.161  13.803 -0.0824  0.3214  0.0100
15245TIP3    H267227   5.249   5.069  13.888  0.2967  0.2975  0.3600
15246TIP3   OH267228   4.381   6.309  16.725 -0.4701  0.2811 -0.3110
15246TIP3    H167229   4.287   6.328  16.730 -0.5216  0.2426 -1.0057
15246TIP3    H267230   4.421   6.390  16.693 -0.5741 -0.3787 -2.3150
15247TIP3   OH267231   3.555   6.807   6.104  0.4378 -0.0025  0.7027
15247TIP3    H167232   3.539   6.789   6.011  0.2951 -1.2356  0.9608
15247TIP3    H267233   3.638   6.763   6.123  1.7456  2.2124  0.6098
15248TIP3   OH267234   1.408   3.168   2.027  0.0300 -0.6433 -1.0615
15248TIP3    H167235   1.480   3.130   2.078 -0.7299 -0.2068  0.3731
15248TIP3    H267236   1.426   3.262   2.026 -1.1658 -0.3661  0.4103
15249TIP3   OH267237   3.731   4.629   0.003  0.5171  0.0881 -0.6556
15249TIP3    H167238   3.791   4.639  -0.071  1.3189 -0.1316 -0.0618
15249TIP3    H267239   3.789   4.628   0.080 -0.2706  0.0523 -0.0484
15250TIP3   OH267240   2.038   2.298  11.449  0.3567  0.2922 -0.0651
15250TIP3    H167241   2.013   2.346  11.370 -1.2270  0.5173  0.5237
15250TIP3    H267242   2.020   2.207  11.429 -0.5518  0.4041  0.1914
15251TIP3   OH267243   4.765   4.902  12.351  0.2735 -0.2291  0.4667
15251TIP3    H167244   4.790   4.950  12.429  0.8749 -1.5114  1.0955
15251TIP3    H267245   4.827   4.828  12.347 -0.6557 -0.9979 -0.4020
15252TIP3   OH267246   1.225   4.575   2.678 -0.1904  0.1887  0.1899
15252TIP3    H167247   1.254   4.545   2.592  1.0519  2.6483 -0.3422
15252TIP3    H267248   1.305   4.584   2.729 -0.9461 -1.7076  1.8641
15253TIP3   OH267249   6.583   5.439   4.671 -0.1610  0.4999 -0.8936
15253TIP3    H167250   6.596   5.501   4.599  1.0896  1.0394 -0.2168
15253TIP3    H267251   6.502   5.467   4.713  0.1074  1.3386 -0.9281
15254TIP3   OH267252   5.474   4.892   5.273 -0.1968 -0.5800  0.2655
15254TIP3    H167253   5.516   4.830   5.215  0.9327 -0.1272  0.5788
15254TIP3    H267254   5.546   4.938   5.316 -1.0073  0.0381  1.0061
15255TIP3   OH267255   5.231   6.809   3.656  0.4214 -0.2699 -0.3439
15255TIP3    H167256   5.179   6.842   3.729 -0.3112  0.4004 -1.1493
15255TIP3    H267257   5.187   6.728   3.630 -1.4129  1.2304 -2.2214
15256TIP3   OH267258   0.244   5.038   4.351 -0.0654 -0.4098 -0.5331
15256TIP3    H167259   0.203   5.090   4.419  0.1202  0.2428 -0.9037
15256TIP3    H267260   0.252   4.950   4.388  2.2394  0.4409  1.2427
15257TIP3   OH267261   6.780   2.555   0.235 -0.4446 -0.3242  0.4542
15257TIP3    H167262   6.856   2.572   0.290 -0.4293 -0.0260  0.3434
15257TIP3    H267263   6.716   2.621   0.261 -0.5721 -0.4151  0.3722
15258TIP3   OH267264   3.869   5.884  12.362 -0.1348 -0.2138 -0.0065
15258TIP3    H167265   3.947   5.837  12.392  0.0957  1.2313  1.8519
15258TIP3    H267266   3.893   5.976  12.368 -1.7041  0.2323 -0.2233
15259TIP3   OH267267   6.445   3.789   2.052 -0.1279 -0.3566 -0.2156
15259TIP3    H167268   6.417   3.717   1.995  0.0118 -2.4133  2.1330
15259TIP3    H267269   6.540   3.789   2.044 -0.1955  0.4604 -1.1821
15260TIP3   OH267270   3.458   4.254  12.401 -0.0290  0.2351  0.0582
15260TIP3    H167271   3.494   4.171  12.368  2.1363  0.3862  1.7986
15260TIP3    H267272   3.371   4.232  12.434  0.3762 -1.2785  0.1772
15261TIP3   OH267273   2.991   4.938  14.812 -0.1853 -0.0006  0.3488
15261TIP3    H167274   2.977   4.925  14.718 -1.4045 -0.4598  0.5869
15261TIP3    H267275   2.924   4.885  14.855  0.6142 -0.1160  1.4985
15262TIP3   OH267276   4.641   0.423  14.312 -0.0119 -0.3806 -0.3183
15262TIP3    H167277   4.608   0.468  14.390 -0.3859 -0.6477 -0.3230
15262TIP3    H267278   4.677   0.341  14.346 -2.7619 -1.8716 -0.7125
15263TIP3   OH267279   3.085   3.762  11.705  0.3094  0.0500 -0.1577
15263TIP3    H167280   3.092   3.668  11.724 -0.2929 -0.2266 -1.2217
15263TIP3    H267281   2.993   3.774  11.680  0.3301  0.9691  0.1698
15264TIP3   OH267282   2.029   3.102  12.072 -0.1470  0.0142  0.6765
15264TIP3    H167283   2.021   3.092  11.977  1.9202  3.9084 -0.1121
15264TIP3    H267284   2.116   3.068  12.092 -0.3925 -0.3671  1.1035
15265TIP3   OH267285   5.787   6.051  15.142  0.1388 -0.1155 -0.3575
15265TIP3    H167286   5.718   6.115  15.158  0.4401  0.1758 -0.1988
15265TIP3    H267287   5.750   5.991  15.078 -0.8818 -0.9380  0.9421
15266TIP3   OH267288   4.087   1.605   0.220  0.5254 -0.0639 -0.4981
15266TIP3    H167289   4.054   1.663   0.151 -0.6149  1.4066  1.1748
15266TIP3    H267290   4.051   1.519   0.199 -0.2355  0.4652 -1.4472
15267TIP3   OH267291   3.304   0.232   3.229 -0.0223  0.4359 -0.5554
15267TIP3    H167292   3.300   0.236   3.324  0.2023 -0.8249 -0.4707
15267TIP3    H267293   3.383   0.181   3.211 -0.0654  0.6585 -1.4155
15268TIP3   OH267294   2.645   4.092   5.536  0.1944  0.2884  0.5537
15268TIP3    H167295   2.633   4.168   5.592  0.1133  0.2938  0.5292
15268TIP3    H267296   2.710   4.120   5.472  0.8328  0.0393  1.0865
15269TIP3   OH267297   6.432   6.504  12.498 -0.2297  0.4342  0.1781
15269TIP3    H167298   6.528   6.498  12.490 -0.4016 -1.2236 -1.1330
15269TIP3    H267299   6.415   6.484  12.590  0.6044 -1.3442  0.0052
15270TIP3   OH267300   6.080   1.944   5.520 -0.4791  0.1559 -0.8437
15270TIP3    H167301   6.094   1.931   5.614 -1.7071 -0.4384 -0.7283
15270TIP3    H267302   6.161   1.986   5.490 -0.8757  2.2608  0.8251
15271TIP3   OH267303   6.208   6.224  15.682 -0.0370  0.2387 -0.0929
15271TIP3    H167304   6.178   6.134  15.667  2.8271 -1.2801  2.2888
15271TIP3    H267305   6.173   6.248  15.767  0.2533  0.8940 -0.1495
15272TIP3   OH267306   5.526   6.784  16.314 -0.2947 -0.1707  0.2445
15272TIP3    H167307   5.598   6.764  16.373  1.1359  0.2185 -1.3214
15272TIP3    H267308   5.477   6.702  16.306 -0.7850 -0.1259  2.2540
15273TIP3   OH267309   0.508   5.594   1.130  0.2075  0.0264  0.0646
15273TIP3    H167310   0.479   5.670   1.180 -0.1249  0.6155 -0.9966
15273TIP3    H267311   0.482   5.613   1.040  1.4279 -0.6945 -0.4656
15274TIP3   OH267312   0.680   5.319   5.060 -0.5742  0.7171 -0.1610
15274TIP3    H167313   0.663   5.257   4.990 -2.9936 -0.0893  1.0394
15274TIP3    H267314   0.617   5.297   5.128  1.3274  1.7762  2.1028
15275TIP3   OH267315   4.965   3.920   4.722  0.0526 -0.6241 -0.1031
15275TIP3    H167316   4.932   3.978   4.791  0.7399  0.0705 -0.3487
15275TIP3    H267317   5.054   3.950   4.706  0.5696 -2.0014  0.0362
15276TIP3   OH267318   1.517   1.121   0.767 -0.5687 -0.5977 -0.2347
15276TIP3    H167319   1.605   1.132   0.732 -0.9618 -0.7433 -1.3202
15276TIP3    H267320   1.517   1.034   0.807  0.5635  0.4553  2.2842
15277TIP3   OH267321   1.720   0.764  15.872 -0.0406 -0.1731  0.4995
15277TIP3    H167322   1.760   0.819  15.805  0.5281 -0.3173  0.7153
15277TIP3    H267323   1.738   0.675  15.844  1.3271 -0.2435  1.4828
15278TIP3   OH267324   2.187   4.467  15.084 -0.4687 -0.3912  0.3149
15278TIP3    H167325   2.135   4.398  15.043 -0.3219 -0.5307  0.3617
15278TIP3    H267326   2.165   4.547  15.035 -1.4404 -0.2620  0.9416
15279TIP3   OH267327   0.813   0.959   3.737 -0.3908  0.1400 -0.1386
15279TIP3    H167328   0.764   0.878   3.720  0.2005 -0.4093  0.6771
15279TIP3    H267329   0.758   1.008   3.798 -0.6822  0.2963 -0.5205
15280TIP3   OH267330   1.351   2.560   3.656  0.2364  0.4884  0.0042
15280TIP3    H167331   1.354   2.571   3.561 -1.8278  0.5007 -0.1042
15280TIP3    H267332   1.414   2.490   3.675  0.6375  0.4586 -1.3568
15281TIP3   OH267333   2.296   3.850  10.606 -0.0846 -0.4867  0.4322
15281TIP3    H167334   2.313   3.777  10.546 -0.6753  0.0616 -0.4304
15281TIP3    H267335   2.205   3.875  10.588  0.8422  2.1400 -1.1967
15282TIP3   OH267336   3.186   2.791  13.551 -0.3695 -0.0035  0.4472
15282TIP3    H167337   3.129   2.740  13.609 -0.4992  0.3561  0.6442
15282TIP3    H267338   3.268   2.742  13.549 -0.2564  0.1317  1.1872
15283TIP3   OH267339   0.943   5.004  14.236  0.5066  0.0082 -0.4032
15283TIP3    H167340   0.897   4.925  14.209 -2.5869  1.3493  0.5440
15283TIP3    H267341   0.892   5.076  14.200  0.8388  1.6543  2.1156
15284TIP3   OH267342   2.078   4.709   4.539  0.7403  0.5920  0.0500
15284TIP3    H167343   2.005   4.739   4.592  1.8278 -0.5546  2.3471
15284TIP3    H267344   2.155   4.750   4.580  1.8751 -2.2868  1.0463
15285TIP3   OH267345   5.754   1.805   0.818 -0.1676  0.3035  0.2175
15285TIP3    H167346   5.777   1.849   0.899  0.0282  0.2585  0.1869
15285TIP3    H267347   5.837   1.774   0.783 -0.3658 -0.6106  0.5390
15286TIP3   OH267348   4.951   1.347  11.642 -0.0284 -0.1951 -0.2396
15286TIP3    H167349   4.938   1.301  11.725 -0.8210  1.5585  0.6788
15286TIP3    H267350   4.890   1.421  11.646  1.4988  1.2121 -1.4001
15287TIP3   OH267351   3.663   5.248   5.648  0.6227 -0.2486  0.0454
15287TIP3    H167352   3.755   5.268   5.661  0.1660  0.6306  2.4372
15287TIP3    H267353   3.619   5.333   5.647 -0.2620 -0.6922 -0.0523
15288TIP3   OH267354   4.621   1.524  14.878  0.0913 -0.6951 -0.5177
15288TIP3    H167355   4.640   1.499  14.969 -0.3742  0.4169 -0.0945
15288TIP3    H267356   4.584   1.445  14.839  0.4786 -1.2506  0.1995
15289TIP3   OH267357   6.309   6.485   0.146  0.5253 -0.4205  0.0217
15289TIP3    H167358   6.391   6.438   0.162  0.2280 -1.2154 -0.7139
15289TIP3    H267359   6.296   6.479   0.051  1.5102  2.9084 -0.4497
15290TIP3   OH267360   1.526   6.198   1.110 -0.2654 -0.1907 -0.0809
15290TIP3    H167361   1.442   6.165   1.077 -0.2738  1.1820 -1.5551
15290TIP3    H267362   1.560   6.252   1.039  1.8203 -0.5853  0.5493
15291TIP3   OH267363   0.348   6.460   0.374  0.1192  0.1535  0.2164
15291TIP3    H167364   0.389   6.522   0.435  0.3821  0.1371  0.0593
15291TIP3    H267365   0.370   6.495   0.287  2.0970 -1.3106  0.0744
15292TIP3   OH267366   5.936   0.901  13.386 -0.2054  0.2621 -0.3941
15292TIP3    H167367   5.885   0.888  13.306 -0.3023 -0.0491 -0.2868
15292TIP3    H267368   5.881   0.864  13.455 -0.6246  1.5524 -0.0185
15293TIP3   OH267369   2.624   2.823  13.606  0.0949  0.2127  0.1416
15293TIP3    H167370   2.599   2.760  13.672  2.0846 -1.5214 -0.6637
15293TIP3    H267371   2.692   2.877  13.647  0.3382  0.0455 -0.0382
15294TIP3   OH267372   5.365   4.046  15.043  0.3316 -0.6102  0.5367
15294TIP3    H167373   5.426   4.037  14.970  1.1672 -0.1607  1.1573
15294TIP3    H267374   5.279   4.060  15.001  0.9690  0.8458 -0.3856
15295TIP3   OH267375   3.856   5.419  17.248  0.5174 -0.5352  0.4558
15295TIP3    H167376   3.925   5.398  17.310  1.6186  0.0172 -0.5357
15295TIP3    H267377   3.775   5.412  17.298  1.0607 -3.5089  1.0941
15296TIP3   OH267378   3.115   6.808   4.466 -0.3170 -0.1848  0.4471
15296TIP3    H167379   3.060   6.735   4.496  1.0715 -1.6710 -0.3991
15296TIP3    H267380   3.157   6.841   4.545 -0.4642 -0.7663  0.7778
15297TIP3   OH267381   4.813   0.688  14.252 -0.2272 -0.5222 -0.0925
15297TIP3    H167382   4.733   0.696  14.199 -0.2587  1.8675  0.2223
15297TIP3    H267383   4.783   0.658  14.337 -0.5441 -1.3531 -0.4816
15298TIP3   OH267384   2.800   3.296  16.953  0.7793  0.5003 -0.2812
15298TIP3    H167385   2.723   3.248  16.984  0.9040  0.0817 -0.6094
15298TIP3    H267386   2.773   3.336  16.871 -0.0334  2.8749  1.0477
15299TIP3   OH267387   3.623   0.282   2.968 -0.2409  0.3445  0.0913
15299TIP3    H167388   3.609   0.321   3.054 -0.3719 -0.4508  0.4468
15299TIP3    H267389   3.536   0.251   2.942  0.0898 -0.9428  0.4494
15300TIP3   OH267390   0.174   4.085  16.691 -0.6338 -0.0579  0.2240
15300TIP3    H167391   0.133   4.157  16.644 -2.6113 -0.7174  0.8529
15300TIP3    H267392   0.106   4.052  16.750  0.4064 -2.0205  0.4247
15301TIP3   OH267393   3.198   5.063  15.172  0.0869 -0.5297  0.1374
15301TIP3    H167394   3.165   5.120  15.242  1.3907 -0.0659  0.4060
15301TIP3    H267395   3.276   5.023  15.209  0.1784 -1.1325 -0.6832
15302TIP3   OH267396   4.251   5.405  16.531  0.3747 -0.0229  0.0611
15302TIP3    H167397   4.307   5.344  16.483 -0.3288 -0.9641  0.4061
15302TIP3    H267398   4.309   5.478  16.553  0.5724  0.8380 -2.8407
15303TIP3   OH267399   2.782   2.920   1.732  0.5644  0.2905 -0.1009
15303TIP3    H167400   2.863   2.959   1.764  0.4296  0.6357 -0.1741
15303TIP3    H267401   2.713   2.975   1.769  0.3461 -0.2046  0.2463
15304TIP3   OH267402   5.348   0.221   4.253 -0.2507 -0.0061 -0.1737
15304TIP3    H167403   5.313   0.205   4.166  0.4228 -1.2950 -0.2299
15304TIP3    H267404   5.418   0.157   4.263 -0.8690 -0.4489  1.6502
15305TIP3   OH267405   6.365   3.461  10.937  0.5837 -0.0452  0.3230
15305TIP3    H167406   6.337   3.530  10.997  0.1870  0.8323 -0.8383
15305TIP3    H267407   6.454   3.485  10.913  0.2533  0.3925 -0.5102
15306TIP3   OH267408   2.176   4.559   5.897  0.5165  0.1654 -0.3512
15306TIP3    H167409   2.213   4.538   5.983  2.9193  0.2307 -1.3068
15306TIP3    H267410   2.188   4.480   5.845 -0.9764  0.1064 -0.6627
15307TIP3   OH267411   6.354   2.351   1.407 -0.1068 -0.2257 -0.6698
15307TIP3    H167412   6.259   2.363   1.408 -0.2215 -0.8966  1.3743
15307TIP3    H267413   6.366   2.256   1.402  0.4563 -0.1532 -0.7227
15308TIP3   OH267414   0.268   6.155   5.264  0.0294 -0.1119  0.1638
15308TIP3    H167415   0.193   6.142   5.206 -1.4095  1.4660  1.5473
15308TIP3    H267416   0.241   6.117   5.347  1.1119 -0.2616  0.4638
15309TIP3   OH267417   4.038   2.178  10.768  0.5992  0.4562  0.0420
15309TIP3    H167418   3.972   2.146  10.706  2.0094 -0.6764 -0.9211
15309TIP3    H267419   4.070   2.259  10.730 -0.5566  1.2998  0.7788
15310TIP3   OH267420   4.978   2.555   1.898  0.1032 -0.1348  0.1197
15310TIP3    H167421   4.951   2.606   1.821  1.4737  0.4184 -0.0152
15310TIP3    H267422   4.929   2.473   1.890 -0.9123  0.5056 -0.5303
15311TIP3   OH267423   1.010   0.708  13.186 -0.4583  0.6469 -0.1875
15311TIP3    H167424   0.933   0.727  13.238 -0.5530 -0.1361 -0.0289
15311TIP3    H267425   0.997   0.618  13.156  0.7852  0.1924  0.5604
15312TIP3   OH267426   0.200   5.672  11.785 -0.0513  0.2274 -0.4995
15312TIP3    H167427   0.234   5.714  11.705 -0.2965 -0.4454 -0.9625
15312TIP3    H267428   0.192   5.580  11.762  2.1634 -0.4280  1.0607
15313TIP3   OH267429   3.107   3.176   0.956 -0.7542  0.2447 -0.2158
15313TIP3    H167430   3.174   3.141   1.015 -0.6822 -1.1736 -1.0931
15313TIP3    H267431   3.032   3.195   1.013 -0.0439  0.6671  0.5958
15314TIP3   OH267432   1.067   0.897  15.914  0.0614 -0.2162  0.0062
15314TIP3    H167433   1.151   0.887  15.871 -0.5815 -2.1027 -0.9161
15314TIP3    H267434   1.010   0.937  15.848 -0.1826 -0.4870  0.0460
15315TIP3   OH267435   3.014   6.446  12.753  0.4352  0.3616 -0.1622
15315TIP3    H167436   2.921   6.464  12.739  0.1837 -0.5636  0.2520
15315TIP3    H267437   3.048   6.425  12.666  0.5996  2.0977 -0.5607
15316TIP3   OH267438   2.448   3.095  12.998  0.3267  0.3035  0.3664
15316TIP3    H167439   2.406   3.159  13.056 -1.2533 -0.1780 -0.1820
15316TIP3    H267440   2.476   3.025  13.057 -0.2650  0.3280  0.6913
15317TIP3   OH267441   4.731   0.078   6.227  0.3681 -0.2435 -0.2681
15317TIP3    H167442   4.648   0.033   6.245 -0.8178  1.4317 -1.2517
15317TIP3    H267443   4.730   0.153   6.287  0.6570  0.3875 -1.0441
15318TIP3   OH267444   0.402   0.022  11.012  0.0964  0.0086  0.1739
15318TIP3    H167445   0.473  -0.038  10.992 -0.6382 -0.6755 -0.4517
15318TIP3    H267446   0.323  -0.032  11.006 -0.4416  0.6201  1.3998
15319TIP3   OH267447   1.782   1.675  10.800 -0.3815  0.0368  0.3895
15319TIP3    H167448   1.746   1.586  10.793  1.3868 -0.9337  2.2904
15319TIP3    H267449   1.803   1.684  10.893  1.3415  1.6750 -0.1081
15320TIP3   OH267450   5.702   5.601  12.063  0.3033 -0.0428  0.6208
15320TIP3    H167451   5.655   5.628  11.984 -0.0994 -0.4098  0.7298
15320TIP3    H267452   5.749   5.679  12.091  0.7397  0.0000 -0.1886
15321TIP3   OH267453   3.985   1.155  15.169  0.4817  0.0484 -0.0088
15321TIP3    H167454   4.050   1.104  15.219  1.5817 -1.0307 -2.3519
15321TIP3    H267455   3.926   1.089  15.133  1.0179  0.5162 -1.8560
15322TIP3   OH267456   5.073   2.261   0.213  0.6507 -0.3909 -0.1857
15322TIP3    H167457   5.154   2.312   0.215  0.8063 -0.6512  2.0272
15322TIP3    H267458   5.087   2.191   0.277 -1.4963 -0.1560  0.6183
15323TIP3   OH267459   4.966   5.555   2.761 -0.2164  0.0039 -0.4341
15323TIP3    H167460   5.033   5.522   2.822 -0.3021  0.8829  0.1501
15323TIP3    H267461   4.886   5.511   2.789  0.0300 -0.7526 -0.8850
15324TIP3   OH267462   5.762   6.641  12.879  0.0185  0.2630 -0.1277
15324TIP3    H167463   5.762   6.621  12.785  1.4050  1.4848 -0.4194
15324TIP3    H267464   5.695   6.583  12.916 -1.8802  1.0624 -2.1243
15325TIP3   OH267465   2.400   4.394   4.086  0.6685 -0.0706  0.7388
15325TIP3    H167466   2.393   4.354   4.173  0.2193  0.3751  0.9136
15325TIP3    H267467   2.310   4.400   4.056  0.8106 -0.0416  0.3180
15326TIP3   OH267468   0.647   2.843  14.609 -0.1195  0.3097 -0.1410
15326TIP3    H167469   0.643   2.886  14.523  0.7481  1.6996  0.4739
15326TIP3    H267470   0.739   2.847  14.633 -0.4053  0.2497  0.9963
15327TIP3   OH267471   2.024   0.378   3.185 -0.3017 -0.2682 -0.1974
15327TIP3    H167472   1.931   0.375   3.205 -0.3349  1.1035 -0.0457
15327TIP3    H267473   2.028   0.404   3.093 -0.0663  0.2747 -0.0372
15328TIP3   OH267474   1.135   0.657   4.551 -0.0002  0.4004 -0.6011
15328TIP3    H167475   1.182   0.678   4.631 -0.4071  2.1772 -0.7839
15328TIP3    H267476   1.044   0.683   4.569 -0.7249 -1.7972 -0.6888
15329TIP3   OH267477   1.918   3.457   3.330 -0.0097  0.2918 -0.1828
15329TIP3    H167478   1.920   3.553   3.326  0.9069  0.2727 -0.6155
15329TIP3    H267479   1.951   3.430   3.244 -2.6254 -0.4440 -1.0525
15330TIP3   OH267480   4.598   5.634  17.224 -0.6164  0.0269  0.2915
15330TIP3    H167481   4.603   5.611  17.131  0.1240  0.8380  0.1062
15330TIP3    H267482   4.671   5.695  17.237  0.5027 -1.5245  1.8449
15331TIP3   OH267483   3.651   2.278  10.844 -0.2596  0.2440  0.1956
15331TIP3    H167484   3.699   2.237  10.772  4.4526  0.8243  2.6248
15331TIP3    H267485   3.662   2.372  10.830 -0.0781  0.3774  1.1650
15332TIP3   OH267486   5.946   6.363  11.662 -0.6226  0.3878  0.3776
15332TIP3    H167487   5.912   6.374  11.751 -0.9103  0.8009  0.2191
15332TIP3    H267488   5.938   6.449  11.622 -1.3893 -0.0083 -0.3616
15333TIP3   OH267489   2.208   0.673  16.420  0.4463 -0.1876  1.0015
15333TIP3    H167490   2.287   0.631  16.454  1.2044 -0.2171 -0.7094
15333TIP3    H267491   2.182   0.618  16.346 -0.9357  0.0781  1.2757
15334TIP3   OH267492   1.368   2.535  10.830 -0.0348 -0.0324  0.3253
15334TIP3    H167493   1.365   2.617  10.783 -0.4085  0.9609  1.9927
15334TIP3    H267494   1.424   2.553  10.906 -0.3780 -1.2211  0.8896
15335TIP3   OH267495   0.211   1.696   4.546  0.6934  0.0367 -0.2197
15335TIP3    H167496   0.116   1.710   4.538  0.6605  1.5703  2.0084
15335TIP3    H267497   0.249   1.778   4.515  1.2490 -0.1798 -0.1054
15336TIP3   OH267498   4.186   6.450   4.461  0.4698  0.4887  0.4108
15336TIP3    H167499   4.217   6.426   4.374 -0.9373 -0.4864  0.1291
15336TIP3    H267500   4.175   6.366   4.506  2.3236  1.0264  1.9765
15337TIP3   OH267501   5.481   4.888   0.463 -0.3035 -0.1323  0.2440
15337TIP3    H167502   5.496   4.814   0.405  1.1667  0.9334 -0.8105
15337TIP3    H267503   5.401   4.866   0.510 -0.3863 -1.9691 -0.6807
15338TIP3   OH267504   0.419   0.570   0.225  0.1494  0.2996 -0.1258
15338TIP3    H167505   0.482   0.564   0.297  0.8030  1.1225 -0.6113
15338TIP3    H267506   0.465   0.619   0.157 -1.5417  2.3247  0.0738
15339TIP3   OH267507   3.251   2.186  13.228 -0.5309 -0.0614 -0.4636
15339TIP3    H167508   3.255   2.132  13.149  1.6214  0.8017 -1.0224
15339TIP3    H267509   3.218   2.127  13.295 -1.2965 -1.1484 -1.7307
15340TIP3   OH267510   5.272   3.852  13.288 -0.2704  0.2876  0.3040
15340TIP3    H167511   5.303   3.836  13.376 -0.1323 -3.6707 -0.3033
15340TIP3    H267512   5.347   3.833  13.231 -1.4948 -1.5037 -0.8041
15341TIP3   OH267513   6.020   5.313   0.467  0.2004 -0.0398 -0.2494
15341TIP3    H167514   6.050   5.227   0.496  0.2570 -0.3570 -1.2016
15341TIP3    H267515   5.925   5.307   0.468  0.1636  0.4516  1.2812
15342TIP3   OH267516   3.936   4.670  17.058  0.4937  0.6536  0.0847
15342TIP3    H167517   3.958   4.620  16.979  1.3366  0.6244  0.3266
15342TIP3    H267518   3.894   4.749  17.025  1.5728  1.0275 -0.4509
15343TIP3   OH267519   0.807   0.331  15.961  0.2533  0.2241  0.0071
15343TIP3    H167520   0.767   0.394  16.021 -0.9512 -0.2360 -0.2746
15343TIP3    H267521   0.756   0.251  15.974 -0.7983  0.4121 -2.4000
15344TIP3   OH267522   0.244   0.437   5.242  0.0097  0.5412  0.2617
15344TIP3    H167523   0.223   0.374   5.311 -2.2502  0.9804  0.0553
15344TIP3    H267524   0.176   0.424   5.177  0.4307  2.1160 -0.5359
15345TIP3   OH267525   3.236   2.812   6.397  0.1972 -0.5026 -0.1124
15345TIP3    H167526   3.189   2.841   6.475  0.2236 -2.8760  0.8774
15345TIP3    H267527   3.329   2.826   6.418  0.1362  0.6345 -0.5284
15346TIP3   OH267528   4.600   0.870  11.176 -0.2323 -0.2421  0.4992
15346TIP3    H167529   4.521   0.829  11.209  0.4820 -1.5135  0.6934
15346TIP3    H267530   4.572   0.958  11.149 -1.7751 -0.8015  0.1783
15347TIP3   OH267531   0.162   5.896   3.086  0.0161  0.1004 -1.0744
15347TIP3    H167532   0.070   5.921   3.079  0.0276  0.2248 -0.7824
15347TIP3    H267533   0.161   5.801   3.097 -0.0637  0.0683 -1.3450
15348TIP3   OH267534   3.818   2.238  14.217  0.2140 -0.0668 -0.0563
15348TIP3    H167535   3.892   2.260  14.160 -0.2788 -0.3954 -0.8376
15348TIP3    H267536   3.744   2.229  14.158 -0.3250 -0.3690  0.6500
15349TIP3   OH267537   0.181   0.130  14.449 -0.2052 -0.4466 -0.3272
15349TIP3    H167538   0.085   0.129  14.453 -0.4036  0.5914 -2.9378
15349TIP3    H267539   0.203   0.222  14.432  1.1374 -0.9134 -1.2564
15350TIP3   OH267540   4.840   2.755  11.937  0.1857 -0.0694 -0.1879
15350TIP3    H167541   4.772   2.734  11.872 -0.6728  1.3305  0.2043
15350TIP3    H267542   4.814   2.708  12.016 -0.0201  0.0257 -0.1994
15351TIP3   OH267543   6.472   2.642  14.645 -0.2487  0.0823 -0.0124
15351TIP3    H167544   6.555   2.608  14.614 -0.0355 -0.4259  1.0563
15351TIP3    H267545   6.416   2.565  14.655 -1.2510  0.5237 -1.8005
15352TIP3   OH267546   2.037   3.557  14.544  0.3097  0.0743  0.3878
15352TIP3    H167547   2.085   3.512  14.474 -0.7966 -1.9085  0.8198
15352TIP3    H267548   1.945   3.548  14.518 -0.0865 -0.2266  1.8098
15353TIP3   OH267549   4.746   2.560  15.247 -0.3369  0.6066 -0.2043
15353TIP3    H167550   4.742   2.468  15.223 -0.1141  0.9646 -1.7391
15353TIP3    H267551   4.798   2.562  15.327 -1.6751 -0.7258  0.7362
15354TIP3   OH267552   4.117   3.183  16.735  0.5043 -0.5685  0.0787
15354TIP3    H167553   4.023   3.189  16.717  0.5675 -2.5904 -1.2150
15354TIP3    H267554   4.145   3.274  16.743 -1.5982  0.0866  0.8181
15355TIP3   OH267555   3.784   6.325   0.580 -0.4354  0.3989  0.0868
15355TIP3    H167556   3.837   6.370   0.646 -0.9499  0.5166  0.4184
15355TIP3    H267557   3.791   6.380   0.502 -0.1213  0.4461  0.1436
15356TIP3   OH267558   6.165   4.886  15.816  0.2796 -0.8097  0.7523
15356TIP3    H167559   6.229   4.948  15.850  0.4153 -0.9946  0.8323
15356TIP3    H267560   6.193   4.801  15.849  0.1724 -0.9344  0.5270
15357TIP3   OH267561   0.496   3.472   1.779 -0.3339  0.0233  0.6744
15357TIP3    H167562   0.515   3.379   1.774 -0.1045  0.1360 -0.8546
15357TIP3    H267563   0.464   3.495   1.692 -0.1017  1.4316  0.9365
15358TIP3   OH267564   6.644   5.101  16.628 -0.0772  0.3620 -0.3865
15358TIP3    H167565   6.641   5.095  16.723 -0.0952 -0.7455 -0.4429
15358TIP3    H267566   6.678   5.016  16.600 -0.0255  0.6946 -1.3644
15359TIP3   OH267567   5.027   3.689  17.016 -0.4936  0.0535 -0.1595
15359TIP3    H167568   5.122   3.678  17.010 -0.6628 -1.2761 -0.6287
15359TIP3    H267569   5.016   3.759  17.080  0.7830 -0.2642  0.4526
15360TIP3   OH267570   1.359   4.884  11.829  0.9314  0.3762  0.2410
15360TIP3    H167571   1.442   4.856  11.791  0.5623 -1.0889  0.4536
15360TIP3    H267572   1.303   4.807  11.824  0.5173  0.4250  2.7690
15361TIP3   OH267573   6.676   2.564  15.222  0.5481  0.4583 -0.2769
15361TIP3    H167574   6.662   2.658  15.232 -1.6831  0.1376  0.2507
15361TIP3    H267575   6.725   2.539  15.301 -0.4412  0.9251  0.5208
15362TIP3   OH267576   1.274   3.175   2.881  0.4387  0.4011 -0.1270
15362TIP3    H167577   1.334   3.101   2.871 -1.1427 -0.8588 -0.7079
15362TIP3    H267578   1.324   3.251   2.851  1.4262 -0.7505 -1.5233
15363TIP3   OH267579   5.151   1.856  14.089  0.5315  0.4250 -0.0711
15363TIP3    H167580   5.138   1.896  14.003  2.6240 -0.6631 -0.9883
15363TIP3    H267581   5.147   1.762  14.072 -1.2884  0.1677  1.4842
15364TIP3   OH267582   2.236   4.882  12.117 -0.3394  0.5335  0.5238
15364TIP3    H167583   2.159   4.903  12.063 -1.4033 -1.0163  1.3702
15364TIP3    H267584   2.251   4.789  12.103  0.7938  0.6027  1.1451
15365TIP3   OH267585   4.542   1.301   3.050 -0.1836 -0.0011 -0.3737
15365TIP3    H167586   4.635   1.280   3.045 -0.0318  0.1124  1.3727
15365TIP3    H267587   4.538   1.396   3.049 -0.2719 -0.0040 -0.2397
15366TIP3   OH267588   5.079   2.661  13.159  1.1172 -0.1897 -0.2301
15366TIP3    H167589   5.101   2.665  13.066  0.9521  0.4984 -0.2399
15366TIP3    H267590   5.075   2.567  13.178  1.2772 -0.3351 -0.8848
15367TIP3   OH267591   2.566   4.412   1.850  0.4231 -1.0546  0.3374
15367TIP3    H167592   2.582   4.482   1.787 -0.7939 -1.1424 -0.0996
15367TIP3    H267593   2.625   4.430   1.923  0.2081  0.3506  0.1799
15368TIP3   OH267594   2.318   0.153   0.784 -0.5675  0.7227 -0.2675
15368TIP3    H167595   2.355   0.238   0.760  3.3320 -0.1300  2.0035
15368TIP3    H267596   2.319   0.152   0.879  0.3531 -2.1803 -0.2237
15369TIP3   OH267597   0.119   1.407  16.349  0.2129 -0.1780  0.3983
15369TIP3    H167598   0.076   1.345  16.408  1.6180 -3.8328 -2.0516
15369TIP3    H267599   0.213   1.390  16.362  0.5709 -0.6807 -2.3635
15370TIP3   OH267600   5.611   6.605  15.005  0.0539  0.1218 -0.2589
15370TIP3    H167601   5.651   6.682  15.046 -1.6829  0.7783  0.2820
15370TIP3    H267602   5.670   6.582  14.933 -0.1074  2.8675 -1.3753
15371TIP3   OH267603   1.026   4.202  14.634  0.6896 -0.1150 -0.0429
15371TIP3    H167604   0.944   4.186  14.587  0.3730  0.0689  0.4389
15371TIP3    H267605   1.090   4.221  14.565  0.8889 -2.4951 -0.6129
15372TIP3   OH267606   1.618   1.723   4.984  0.2252  0.1536 -0.3111
15372TIP3    H167607   1.538   1.671   4.984  0.2703  0.0622 -1.1087
15372TIP3    H267608   1.611   1.777   4.905 -0.6588  2.6794  1.3495
15373TIP3   OH267609   2.653   0.405   4.223 -0.3083  0.3718 -0.3354
15373TIP3    H167610   2.659   0.485   4.275 -0.0787  0.3285 -0.2942
15373TIP3    H267611   2.562   0.403   4.192 -0.4877  0.3133  0.1955
15374TIP3   OH267612   1.792   3.391  11.498 -0.2777  0.0781  0.0657
15374TIP3    H167613   1.697   3.395  11.503 -0.2549  0.0430  0.4926
15374TIP3    H267614   1.812   3.298  11.486 -0.2811  0.0504  0.2764
15375TIP3   OH267615   0.316   0.079  10.529  0.0341 -0.7371 -0.1296
15375TIP3    H167616   0.407   0.101  10.549  0.3073 -1.4160 -0.5732
15375TIP3    H267617   0.322  -0.002  10.478 -0.7989 -0.6041 -0.4562
15376TIP3   OH267618   4.534   5.636  15.358  0.0485  0.1873 -0.2028
15376TIP3    H167619   4.563   5.708  15.302 -0.4671 -0.2246 -1.0230
15376TIP3    H267620   4.449   5.611  15.323 -0.6432  0.3929  1.2349
15377TIP3   OH267621   5.154   0.331   4.705 -0.2355 -0.2911  0.3351
15377TIP3    H167622   5.119   0.318   4.792  0.5153 -2.5540  0.3595
15377TIP3    H267623   5.143   0.247   4.661 -1.8448  1.1167 -2.2783
15378TIP3   OH267624   6.611   0.591  14.807  0.6593  0.1717 -0.2688
15378TIP3    H167625   6.652   0.580  14.721  1.9419  2.9248 -0.1015
15378TIP3    H267626   6.666   0.538  14.866  1.7293  0.8231 -0.6566
15379TIP3   OH267627   6.537   2.313  16.318  0.1034  0.1230  0.4308
15379TIP3    H167628   6.539   2.236  16.261  0.2625  0.2552  0.2547
15379TIP3    H267629   6.446   2.344  16.313 -0.1317 -0.4344  1.0215
15380TIP3   OH267630   3.712   6.097   3.596  0.6478  0.0879  0.0862
15380TIP3    H167631   3.798   6.136   3.579  0.3823  1.2696  1.2881
15380TIP3    H267632   3.726   6.003   3.586  1.9338  0.3039 -0.3468
15381TIP3   OH267633   5.631   6.420   5.683 -0.0727 -0.2684 -0.5713
15381TIP3    H167634   5.651   6.479   5.755  0.8870 -0.4179 -0.7114
15381TIP3    H267635   5.643   6.473   5.604 -0.7433 -0.2144 -0.6470
15382TIP3   OH267636   4.771   1.675   3.161 -0.1996  0.1582 -0.0280
15382TIP3    H167637   4.864   1.685   3.180 -0.5457 -0.3995  2.2646
15382TIP3    H267638   4.768   1.610   3.091  1.2213  2.8683 -2.8966
15383TIP3   OH267639   5.561   6.069  14.063  0.1885 -0.4907  0.4093
15383TIP3    H167640   5.637   6.016  14.089  0.2417  0.0377  1.3796
15383TIP3    H267641   5.500   6.061  14.137 -0.1540  0.1171  0.1980
15384TIP3   OH267642   4.450   6.561  14.245  0.0434 -0.3132 -1.0107
15384TIP3    H167643   4.484   6.596  14.162 -0.5677 -0.2563 -1.2491
15384TIP3    H267644   4.482   6.621  14.312  0.7316 -0.4869 -1.1785
15385TIP3   OH267645   4.993   5.096  14.071  0.3957 -0.0343  0.2617
15385TIP3    H167646   4.996   5.137  13.985 -1.9923  0.3411  0.3041
15385TIP3    H267647   5.084   5.099  14.102  1.1048  0.8154 -1.7549
15386TIP3   OH267648   6.016   6.120  14.823 -0.3959  0.2430  0.6732
15386TIP3    H167649   6.060   6.180  14.763 -2.0716  0.6313 -0.2335
15386TIP3    H267650   5.958   6.067  14.767 -1.6082  0.2523  1.8580
15387TIP3   OH267651   0.839   1.141   0.269 -0.1765  0.1929  0.0890
15387TIP3    H167652   0.764   1.095   0.229  0.3906 -0.4406 -0.2794
15387TIP3    H267653   0.899   1.071   0.293 -0.0904  0.6424  1.2109
15388TIP3   OH267654   3.993   6.621   4.492 -0.9888  0.0488  0.4491
15388TIP3    H167655   4.072   6.569   4.477 -2.2888 -2.0941  0.6304
15388TIP3    H267656   4.003   6.697   4.434  0.7966 -0.6114 -0.1757
15389TIP3   OH267657   0.489   5.189  15.189 -0.0717 -0.7985  0.8857
15389TIP3    H167658   0.409   5.138  15.193 -1.3212  0.9989  0.2136
15389TIP3    H267659   0.477   5.258  15.255  0.8429 -0.4144  0.6691
15390TIP3   OH267660   5.132   0.982   1.024 -0.0426 -0.6989 -0.0089
15390TIP3    H167661   5.119   0.898   1.069  0.2787 -1.0199 -0.5003
15390TIP3    H267662   5.045   1.005   0.992 -0.5646  0.2272  1.9339
15391TIP3   OH267663   6.229   0.711  15.679 -0.2747 -0.5826 -0.1083
15391TIP3    H167664   6.158   0.668  15.630  0.2176 -0.1267 -1.2583
15391TIP3    H267665   6.223   0.674  15.767 -0.0270 -2.8491 -0.9677
15392TIP3   OH267666   5.452   5.718   0.437 -0.2302 -0.3946  0.6023
15392TIP3    H167667   5.457   5.764   0.521 -2.2651 -0.0321  0.5720
15392TIP3    H267668   5.359   5.717   0.416  0.1869 -0.9866 -1.3928
15393TIP3   OH267669   6.405   6.262  15.907  0.4277  0.1054 -0.0561
15393TIP3    H167670   6.477   6.291  15.963  0.1440 -0.3319  0.5376
15393TIP3    H267671   6.443   6.259  15.819  1.0456  0.1794  0.2071
15394TIP3   OH267672   0.176   4.317   5.833 -0.3915 -0.3606  0.3380
15394TIP3    H167673   0.126   4.292   5.756  0.2463  0.5209 -0.3956
15394TIP3    H267674   0.115   4.368   5.887 -0.8083 -0.8884  0.3673
15395TIP3   OH267675   5.379   3.389  15.809 -0.0955 -0.2691  0.4901
15395TIP3    H167676   5.377   3.397  15.714 -2.0001 -0.3245  0.4937
15395TIP3    H267677   5.431   3.464  15.839 -0.3475  0.3301 -0.5390
15396TIP3   OH267678   2.268   4.062  12.021  0.4091  0.3043 -0.0938
15396TIP3    H167679   2.328   4.119  12.069 -0.4157  1.8880 -0.8958
15396TIP3    H267680   2.183   4.076  12.062  0.0478  0.2612 -0.8191
15397TIP3   OH267681   4.526   0.607  16.734  0.8602 -0.3654 -0.2369
15397TIP3    H167682   4.533   0.677  16.669  0.8793 -0.1536 -0.0100
15397TIP3    H267683   4.524   0.653  16.818 -1.2117 -0.5010 -0.1575
15398TIP3   OH267684   4.296   1.787  12.296 -0.3881  0.0040  0.7683
15398TIP3    H167685   4.330   1.795  12.385 -0.3177  1.1980  0.6545
15398TIP3    H267686   4.210   1.829  12.299 -0.9197 -1.0145  0.5338
15399TIP3   OH267687   1.424   3.880  15.223 -0.1114  0.1414 -0.0598
15399TIP3    H167688   1.371   3.804  15.200 -0.3915  0.5609 -0.8597
15399TIP3    H267689   1.514   3.851  15.206 -0.1601 -0.2307  0.2985
15400TIP3   OH267690   3.681   0.757  16.507 -0.5236 -0.6009  0.1383
15400TIP3    H167691   3.755   0.737  16.448 -1.5860 -2.2327 -0.7328
15400TIP3    H267692   3.722   0.790  16.586  0.9439  2.5138 -1.7543
15401TIP3   OH267693   3.710   3.049   4.357  0.1644  0.7473 -0.0327
15401TIP3    H167694   3.756   3.130   4.335 -1.2773  1.7895  0.6408
15401TIP3    H267695   3.769   3.002   4.416  0.9363  1.3906 -0.2889
15402TIP3   OH267696   5.859   0.839  17.076 -0.0046  0.4788  0.2417
15402TIP3    H167697   5.849   0.772  17.008  2.2254  1.2866 -0.9659
15402TIP3    H267698   5.815   0.801  17.153  0.4810 -2.0139 -0.6153
15403TIP3   OH267699   4.395   5.321  13.758 -0.2295 -0.0531 -0.0210
15403TIP3    H167700   4.374   5.241  13.710  0.2732 -0.0881 -0.1831
15403TIP3    H267701   4.474   5.300  13.807  0.3532  0.5805 -0.6657
15404TIP3   OH267702   4.700   0.730   1.394 -0.6093 -0.6974 -0.0529
15404TIP3    H167703   4.615   0.729   1.351  0.3799  1.7000 -2.3220
15404TIP3    H267704   4.681   0.759   1.484 -2.2109 -0.7030 -0.3567
15405TIP3   OH267705   6.001   4.642  13.687  0.1229  0.5634 -0.0002
15405TIP3    H167706   6.012   4.696  13.608 -1.8742  0.2891 -0.5257
15405TIP3    H267707   5.983   4.555  13.654  1.0364  0.0384  0.8246
15406TIP3   OH267708   4.236   2.889   3.450  0.6074 -0.3718  0.1061
15406TIP3    H167709   4.188   2.910   3.531 -1.1874 -1.5765 -0.5697
15406TIP3    H267710   4.225   2.967   3.395  1.5344  0.3132  0.8730
15407TIP3   OH267711   1.867   6.296   3.094 -0.4304 -0.3375 -0.1569
15407TIP3    H167712   1.889   6.248   3.174  1.0952 -1.0902 -1.0012
15407TIP3    H267713   1.899   6.385   3.110  1.4239 -0.9033 -0.5552
15408TIP3   OH267714   4.577   5.937   5.618 -0.7858  0.0742  0.4941
15408TIP3    H167715   4.613   6.014   5.574  0.5165 -0.0177  1.3538
15408TIP3    H267716   4.490   5.927   5.580 -1.3140  2.4392  0.9188
15409TIP3   OH267717   2.184   2.616   1.519  0.3256  0.9892 -0.1828
15409TIP3    H167718   2.098   2.633   1.481 -0.1180 -0.3193  0.1946
15409TIP3    H267719   2.237   2.693   1.494 -0.2042  0.6605 -2.5972
15410TIP3   OH267720   4.989   3.699   2.543 -0.6017  0.2288 -0.0347
15410TIP3    H167721   5.053   3.724   2.476 -0.7896  1.3178  0.1744
15410TIP3    H267722   4.906   3.736   2.512 -0.9314 -0.2646  0.2263
15411TIP3   OH267723   6.583   6.234  12.922 -0.1607  0.6737 -0.4075
15411TIP3    H167724   6.519   6.233  12.851 -2.0351 -0.2334  1.1920
15411TIP3    H267725   6.542   6.286  12.991  0.6160 -0.3005  0.8385
15412TIP3   OH267726   3.591   1.739   1.494 -0.0970  0.5373 -0.2397
15412TIP3    H167727   3.683   1.742   1.518 -0.6111 -1.2041  2.3157
15412TIP3    H267728   3.544   1.738   1.578 -2.3000 -1.6291 -1.3744
15413TIP3   OH267729   4.955   0.259   2.681  0.7574  0.2385 -0.3586
15413TIP3    H167730   4.983   0.223   2.765  3.1452 -0.2077 -1.2599
15413TIP3    H267731   5.009   0.337   2.669  1.8211 -0.7232 -2.2557
15414TIP3   OH267732   3.210   4.259  16.932 -0.0280  0.0489 -0.2253
15414TIP3    H167733   3.256   4.275  16.850 -2.6149  0.7513 -1.6610
15414TIP3    H267734   3.192   4.165  16.932 -0.1177  0.0639 -0.5549
15415TIP3   OH267735   2.755   4.282  13.615 -0.1537  0.5844 -0.2308
15415TIP3    H167736   2.758   4.349  13.683 -2.1574  1.9146 -1.3407
15415TIP3    H267737   2.844   4.247  13.611  0.4583  1.7585  1.7525
15416TIP3   OH267738   2.128   4.402   5.298 -0.0564 -0.1031  0.2506
15416TIP3    H167739   2.186   4.374   5.227  0.5053  0.8719  0.3079
15416TIP3    H267740   2.090   4.321   5.332  2.3827 -0.9434  1.1700
15417TIP3   OH267741   4.461   5.047  15.644 -0.0747  0.0149  0.0736
15417TIP3    H167742   4.474   5.005  15.559 -1.8293  0.8045 -0.6432
15417TIP3    H267743   4.544   5.090  15.663  1.3321 -2.5636  0.1953
15418TIP3   OH267744   4.460   3.183  11.175  0.2233  0.1308 -0.0557
15418TIP3    H167745   4.518   3.175  11.250  0.1263 -1.1358 -0.0866
15418TIP3    H267746   4.470   3.100  11.128 -0.9207  0.2505 -0.5495
15419TIP3   OH267747   0.732   4.214   0.740  0.1300  0.4678 -0.1598
15419TIP3    H167748   0.644   4.246   0.719 -0.6719 -1.0681  0.6367
15419TIP3    H267749   0.763   4.274   0.808 -0.3836  0.8991 -0.2949
15420TIP3   OH267750   3.377   3.119  15.502 -0.5029  0.0995 -0.5581
15420TIP3    H167751   3.392   3.206  15.538 -0.4147  0.0659 -0.5136
15420TIP3    H267752   3.441   3.110  15.432  0.3316 -0.4074  0.2418
15421TIP3   OH267753   3.631   1.301  14.779 -0.1608  0.3113 -0.0917
15421TIP3    H167754   3.661   1.304  14.688 -0.2019 -0.0467 -0.1179
15421TIP3    H267755   3.677   1.373  14.822  0.5628 -0.0794 -0.1861
15422TIP3   OH267756   4.647   5.666   5.563 -0.5324  0.2350  0.3876
15422TIP3    H167757   4.633   5.682   5.470  0.7548 -0.4021  0.0582
15422TIP3    H267758   4.597   5.734   5.607  0.9789  2.2554 -0.8334
15423TIP3   OH267759   1.373   1.486  15.832 -0.0074 -0.7437  0.1724
15423TIP3    H167760   1.370   1.541  15.910  0.4649  0.2859 -0.5219
15423TIP3    H267761   1.432   1.415  15.855  0.2255 -0.3828  0.7102
15424TIP3   OH267762   0.304   5.494   2.130  0.1062  0.4684 -0.4120
15424TIP3    H167763   0.243   5.557   2.169 -1.4333 -0.2017 -1.6146
15424TIP3    H267764   0.286   5.499   2.036  0.0142 -1.6650 -0.5548
15425TIP3   OH267765   6.818   2.314  16.286  0.5917 -0.5094  0.2033
15425TIP3    H167766   6.840   2.253  16.357 -0.1128 -1.3149 -0.2723
15425TIP3    H267767   6.723   2.313  16.281  0.6443 -0.5831 -0.8802
15426TIP3   OH267768   5.298   3.372  11.487 -0.2511  0.4956 -0.2272
15426TIP3    H167769   5.261   3.292  11.525  0.6033 -0.3958 -1.1907
15426TIP3    H267770   5.255   3.443  11.534 -2.3304 -0.4936 -0.5326
15427TIP3   OH267771   1.309   5.648   4.796 -0.1479  0.3803 -0.0610
15427TIP3    H167772   1.311   5.558   4.762  0.6359 -0.2168  1.4559
15427TIP3    H267773   1.227   5.653   4.846 -0.5395  0.7562 -0.7237
15428TIP3   OH267774   2.683   1.954  15.701 -0.0525  0.2672  0.0396
15428TIP3    H167775   2.711   1.884  15.642 -1.6197 -2.4032  2.2242
15428TIP3    H267776   2.707   1.923  15.788 -0.2060  2.8220  1.0902
15429TIP3   OH267777   0.726   3.447   5.875  0.4373  0.0884  0.0378
15429TIP3    H167778   0.746   3.499   5.797 -1.1428 -0.3127 -0.6771
15429TIP3    H267779   0.757   3.500   5.948  0.6254  1.1410 -0.7842
15430TIP3   OH267780   1.772   6.399   1.895 -0.3866 -0.4644  0.4521
15430TIP3    H167781   1.865   6.416   1.913 -0.7008  1.2202  0.5851
15430TIP3    H267782   1.745   6.338   1.964  0.9170 -2.0388 -0.3496
15431TIP3   OH267783   0.063   6.729   5.401 -0.8334 -0.1654  0.1076
15431TIP3    H167784   0.023   6.642   5.401 -1.1779 -0.0661 -2.1124
15431TIP3    H267785   0.158   6.712   5.402 -0.8818 -0.4843  1.5511
15432TIP3   OH267786   3.406   5.740   0.144  0.0198 -0.2447 -0.1840
15432TIP3    H167787   3.464   5.770   0.214  0.1797  1.2567 -0.9180
15432TIP3    H267788   3.341   5.685   0.188  1.0743 -0.6724  0.8769
15433TIP3   OH267789   6.295   1.817   3.926 -0.1217 -0.2078 -0.4171
15433TIP3    H167790   6.218   1.867   3.953  0.6638 -0.3956  2.5518
15433TIP3    H267791   6.260   1.747   3.872 -1.8928  0.4469 -0.2057
15434TIP3   OH267792   5.563   5.817   1.204 -0.2069  0.1970  0.0664
15434TIP3    H167793   5.635   5.754   1.196  2.5405  2.2916  4.6581
15434TIP3    H267794   5.584   5.884   1.138  0.2118 -0.7544 -0.8021
15435TIP3   OH267795   2.863   1.756   3.187  0.0542  0.1082  0.1531
15435TIP3    H167796   2.920   1.692   3.229  1.9245  0.9902 -0.9212
15435TIP3    H267797   2.888   1.755   3.095 -0.4887  1.7227 -0.0537
15436TIP3   OH267798   5.762   0.862   2.033  0.2403 -0.2592  0.2923
15436TIP3    H167799   5.832   0.817   1.984  1.3725  0.4586  1.2158
15436TIP3    H267800   5.687   0.803   2.025  0.9945 -1.1557 -0.5548
15437TIP3   OH267801   1.963   0.586  11.008 -0.0580  0.0481 -0.0829
15437TIP3    H167802   1.979   0.496  10.980 -0.4376  0.0607 -0.3602
15437TIP3    H267803   1.982   0.587  11.101 -0.1033 -0.3334 -0.0696
15438TIP3   OH267804   2.107   1.955   2.062  0.2815 -0.0550  0.4524
15438TIP3    H167805   2.170   1.998   2.004  0.3653  0.0394  0.6134
15438TIP3    H267806   2.138   1.975   2.150 -0.7667  1.1897  0.5532
15439TIP3   OH267807   6.309   6.476  15.478 -0.1737  0.4476 -0.0486
15439TIP3    H167808   6.242   6.511  15.536  0.0745 -0.0289  0.5306
15439TIP3    H267809   6.299   6.527  15.397 -0.8408  0.7803  0.2339
15440TIP3   OH267810   4.461   4.247   5.372 -0.1657 -0.4069 -0.5770
15440TIP3    H167811   4.510   4.305   5.314  0.0339  0.4729  0.4489
15440TIP3    H267812   4.423   4.181   5.313  1.4369 -0.5588 -1.5099
15441TIP3   OH267813   2.135   1.350  15.423  0.2060 -0.3060  0.0283
15441TIP3    H167814   2.209   1.291  15.405  0.0292 -0.7731  0.8142
15441TIP3    H267815   2.062   1.292  15.443 -0.5322  0.1344 -1.2269
15442TIP3   OH267816   1.915   5.873  14.993 -0.4154 -0.0236 -0.3279
15442TIP3    H167817   1.934   5.967  14.984  0.4941 -0.2696 -1.1615
15442TIP3    H267818   1.828   5.870  15.033 -0.4060  1.1765 -0.1784
15443TIP3   OH267819   0.154   3.751   0.149  0.1833 -0.4006  0.1452
15443TIP3    H167820   0.119   3.663   0.161 -0.1176 -0.5472 -1.5124
15443TIP3    H267821   0.137   3.770   0.056  1.5192  0.8387  0.1331
15444TIP3   OH267822   2.227   4.274   2.418  0.5186  0.1421 -0.1691
15444TIP3    H167823   2.143   4.234   2.438  1.0266 -0.5347  0.6333
15444TIP3    H267824   2.274   4.207   2.368  1.2790 -0.1891  0.9755
15445TIP3   OH267825   5.908   2.973  12.675  0.2382  0.2097 -0.1954
15445TIP3    H167826   5.914   3.061  12.639  4.7696 -0.1360 -0.7868
15445TIP3    H267827   5.978   2.968  12.740 -0.3405 -2.7794  0.3649
15446TIP3   OH267828   3.356   1.209   4.775 -0.2965 -0.1382  0.4488
15446TIP3    H167829   3.420   1.272   4.743  0.2318 -0.1036  1.5309
15446TIP3    H267830   3.289   1.262   4.819  0.4039 -0.3194  1.8026
15447TIP3   OH267831   2.738   0.593  16.895 -0.0760  1.0114  0.5283
15447TIP3    H167832   2.825   0.623  16.920  0.4194 -0.2631  0.4232
15447TIP3    H267833   2.723   0.630  16.808  0.4546  1.0670  0.4595
15448TIP3   OH267834   3.026   5.405   4.225 -0.0256 -0.1527  0.4836
15448TIP3    H167835   3.112   5.385   4.260  2.4474  2.8298 -3.1221
15448TIP3    H267836   3.011   5.497   4.246 -2.0363 -0.3958  0.3865
15449TIP3   OH267837   4.599   6.154   4.762  0.1390 -0.4757 -0.2053
15449TIP3    H167838   4.616   6.248   4.747  2.3982 -1.0568 -2.0162
15449TIP3    H267839   4.687   6.116   4.769 -0.7543 -2.3188  1.8074
15450TIP3   OH267840   6.198   6.518  13.501  0.7456  0.1208 -0.0787
15450TIP3    H167841   6.235   6.555  13.420  0.3487 -0.7785 -0.6869
15450TIP3    H267842   6.212   6.424  13.493  0.9175  0.0393  1.0302
15451TIP3   OH267843   2.108   3.258   5.815 -0.5139 -0.2144  0.0702
15451TIP3    H167844   2.021   3.226   5.792 -1.3661  0.4495  2.1119
15451TIP3    H267845   2.140   3.195   5.880 -0.6991  1.0375  1.4270
15452TIP3   OH267846   6.781   5.913   3.397  0.0576 -0.1867  0.1612
15452TIP3    H167847   6.809   5.858   3.324  0.8450  2.3361 -1.5796
15452TIP3    H267848   6.849   5.903   3.463  0.3628 -0.9842 -0.2596
15453TIP3   OH267849   0.464   4.097   5.491  0.0570  0.4632 -0.1251
15453TIP3    H167850   0.503   4.063   5.410  0.5128  0.2142  0.1964
15453TIP3    H267851   0.460   4.021   5.549  0.2385  0.7636  0.2802
15454TIP3   OH267852   6.367   3.819  16.304 -0.4452  0.0617 -0.7438
15454TIP3    H167853   6.424   3.874  16.251 -2.0343  2.0481 -0.5209
15454TIP3    H267854   6.425   3.756  16.346  1.3044  0.8413 -1.9118
15455TIP3   OH267855   3.765   4.179  14.775 -0.1485  0.0428  0.0900
15455TIP3    H167856   3.759   4.222  14.860 -0.3060  0.6117 -0.2042
15455TIP3    H267857   3.718   4.096  14.787  1.3623 -0.7132  1.0628
15456TIP3   OH267858   4.860   1.829  17.046  0.1227  0.0276 -0.2277
15456TIP3    H167859   4.855   1.924  17.045 -1.1224 -0.0042  0.7487
15456TIP3    H267860   4.924   1.809  17.114  0.0364  0.1560 -0.1094
15457TIP3   OH267861   4.673   1.458  12.777 -0.4133 -0.6547  0.1557
15457TIP3    H167862   4.648   1.471  12.685 -0.8594 -1.3881  0.1671
15457TIP3    H267863   4.640   1.536  12.821  1.4508  0.6218 -0.5974
15458TIP3   OH267864   0.557   3.774   1.585  0.1153  0.3193  0.2021
15458TIP3    H167865   0.540   3.768   1.679  0.8739 -0.5632  0.2921
15458TIP3    H267866   0.505   3.703   1.547  0.5404  0.0805  0.0618
15459TIP3   OH267867   4.451   6.471   4.581  0.3066 -0.9095  0.2499
15459TIP3    H167868   4.470   6.548   4.633  1.9605 -0.9132 -0.2718
15459TIP3    H267869   4.358   6.476   4.562 -0.0668 -0.2545  2.1155
15460TIP3   OH267870   4.002   5.528  12.662 -0.3737 -0.6245  0.2894
15460TIP3    H167871   4.082   5.475  12.672 -0.3061 -0.7371 -0.7489
15460TIP3    H267872   4.000   5.583  12.741  0.4702 -0.9616  0.5617
15461TIP3   OH267873   5.689   6.232   3.864 -0.2343 -0.6875 -0.3968
15461TIP3    H167874   5.720   6.315   3.901 -0.3811 -1.0211  0.5271
15461TIP3    H267875   5.594   6.239   3.868 -0.2454 -0.9850 -0.1079
15462TIP3   OH267876   4.654   0.409  13.709 -0.4685  0.2399 -0.2581
15462TIP3    H167877   4.735   0.460  13.716 -0.3494  0.0211 -0.0318
15462TIP3    H267878   4.593   0.467  13.663 -0.9068  1.3131  1.5367
15463TIP3   OH267879   4.813   2.883  16.159 -0.1829  0.0112 -0.3726
15463TIP3    H167880   4.882   2.831  16.120 -0.3859 -0.2959 -0.3228
15463TIP3    H267881   4.835   2.887  16.252 -1.2266 -1.6668 -0.0202
15464TIP3   OH267882   2.231   0.855  11.211  0.1984  0.3437 -0.4952
15464TIP3    H167883   2.140   0.884  11.216  0.4006  1.1038 -0.9341
15464TIP3    H267884   2.236   0.802  11.131 -0.3859 -1.7777  0.8054
15465TIP3   OH267885   0.409   2.662  16.194  0.1116  0.0956 -0.9251
15465TIP3    H167886   0.326   2.616  16.181  1.1006 -2.4573  1.0442
15465TIP3    H267887   0.469   2.621  16.131  0.4303  0.3500 -0.7919
15466TIP3   OH267888   0.929   1.516  16.305 -0.0281 -0.3960 -0.6435
15466TIP3    H167889   0.964   1.493  16.391 -2.1689  1.8558  0.9367
15466TIP3    H267890   0.957   1.606  16.290 -3.2636  0.7812 -0.2325
15467TIP3   OH267891   3.085   3.709   0.454 -0.2054  0.4698 -0.2041
15467TIP3    H167892   3.074   3.615   0.468  0.7834  0.3647 -0.0209
15467TIP3    H267893   2.996   3.743   0.445 -0.6388 -0.2519  1.1542
15468TIP3   OH267894   4.561   4.929  15.209 -0.8053 -0.1672 -0.0719
15468TIP3    H167895   4.653   4.954  15.199 -0.9918  0.2856 -0.7027
15468TIP3    H267896   4.512   5.009  15.189 -1.3191 -0.1828  1.0450
15469TIP3   OH267897   6.096   0.655   0.513 -0.1531 -0.1126  0.4879
15469TIP3    H167898   6.166   0.676   0.452 -0.7090 -1.5254 -0.6845
15469TIP3    H267899   6.018   0.698   0.477  0.0407  1.4837  1.8029
15470TIP3   OH267900   6.691   4.998   4.887 -0.4454 -0.2584 -0.4192
15470TIP3    H167901   6.639   5.077   4.874  1.9489  1.2243 -1.6942
15470TIP3    H267902   6.665   4.940   4.816 -0.6740  0.2928 -0.7939
15471TIP3   OH267903   5.219   2.490  10.465  0.3441  0.1829  0.3700
15471TIP3    H167904   5.133   2.517  10.497 -0.2751 -3.1872  1.9743
15471TIP3    H267905   5.281   2.535  10.523 -0.3756  1.4293  0.1996
15472TIP3   OH267906   1.810   1.467  15.205  0.2025 -0.4559 -0.3133
15472TIP3    H167907   1.885   1.497  15.255  0.3300 -0.5319 -0.4580
15472TIP3    H267908   1.838   1.384  15.166  0.4134  0.0383 -1.2320
15473TIP3   OH267909   4.012   0.577   2.775 -0.0981  0.3845 -0.4261
15473TIP3    H167910   3.965   0.650   2.734  1.5457  0.8340 -1.6065
15473TIP3    H267911   4.059   0.617   2.848 -0.4169  0.1895 -0.1069
15474TIP3   OH267912   5.671   5.591  16.953 -0.0265 -0.1008 -0.2214
15474TIP3    H167913   5.648   5.627  17.039  1.7288  0.5953 -0.0007
15474TIP3    H267914   5.666   5.666  16.893  2.4144  0.3103  0.0081
15475TIP3   OH267915   4.831   5.417   4.254 -0.4595  0.7173 -0.4629
15475TIP3    H167916   4.809   5.331   4.289 -1.0930  1.7434  1.8612
15475TIP3    H267917   4.751   5.469   4.266  0.2665  1.9473 -0.7555
15476TIP3   OH267918   6.541   0.192  15.446 -0.3302 -0.1050 -0.1641
15476TIP3    H167919   6.621   0.242  15.430  0.1567 -1.0166 -0.6722
15476TIP3    H267920   6.472   0.246  15.409  0.1462  0.3068 -0.4744
15477TIP3   OH267921   0.699   4.346   2.906  0.1116  0.1946 -0.4263
15477TIP3    H167922   0.701   4.265   2.957  0.8448 -0.9169 -2.1255
15477TIP3    H267923   0.631   4.332   2.841 -0.5700  1.4531 -0.0219
15478TIP3   OH267924   6.641   2.011   2.558  0.0832  0.4472  0.1748
15478TIP3    H167925   6.657   1.968   2.474  1.4280  2.0496 -0.4553
15478TIP3    H267926   6.588   2.087   2.537 -1.5664 -0.3505  1.1615
15479TIP3   OH267927   5.523   3.720  15.009 -0.1015  0.1251  0.1231
15479TIP3    H167928   5.597   3.711  14.949 -0.2302  1.0814 -0.1990
15479TIP3    H267929   5.454   3.760  14.956 -0.4571  0.3151  0.7226
15480TIP3   OH267930   5.470   1.888  16.889  0.1725  0.2532 -0.2728
15480TIP3    H167931   5.468   1.807  16.940  1.5371  1.1774  1.3255
15480TIP3    H267932   5.558   1.891  16.852 -0.6368 -0.1542 -2.3810
15481TIP3   OH267933   2.017   2.533   5.068  0.3429  0.2107 -0.4695
15481TIP3    H167934   2.049   2.582   5.144  1.7192 -0.9593 -0.2565
15481TIP3    H267935   2.086   2.469   5.050 -0.5982 -0.4611 -1.8479
15482TIP3   OH267936   6.648   1.339   2.742  0.2035 -0.4229 -0.0631
15482TIP3    H167937   6.691   1.420   2.717  0.9980 -1.0349 -0.7217
15482TIP3    H267938   6.629   1.295   2.660  1.2395 -1.6340  0.3021
15483TIP3   OH267939   2.027   5.126   6.480 -0.1645  0.3591  0.2738
15483TIP3    H167940   2.017   5.065   6.553  0.6375  2.0047  1.8122
15483TIP3    H267941   1.942   5.122   6.434 -0.4363 -1.2080  0.8510
15484TIP3   OH267942   2.459   4.698   0.739 -0.2324 -0.4185 -0.1125
15484TIP3    H167943   2.539   4.720   0.787 -1.1016 -1.6623  2.1033
15484TIP3    H267944   2.489   4.654   0.659  1.3024 -0.3370  0.3921
15485TIP3   OH267945   4.115   4.387  12.707 -0.6638  0.3221 -0.7251
15485TIP3    H167946   4.185   4.390  12.642 -0.4821 -0.0318 -0.5487
15485TIP3    H267947   4.042   4.434  12.666 -0.1168  1.2329 -0.6542
15486TIP3   OH267948   0.464   3.587   2.494 -0.4326 -0.1511  0.5777
15486TIP3    H167949   0.468   3.530   2.417  0.3729 -0.9904  1.2139
15486TIP3    H267950   0.380   3.568   2.534  0.8022 -2.7646  2.1329
15487TIP3   OH267951   5.778   3.105   2.022  0.0084 -0.3553  0.2399
15487TIP3    H167952   5.752   3.088   1.931  1.7363 -0.4234 -0.2913
15487TIP3    H267953   5.773   3.200   2.031  0.3461 -0.3049 -0.0990
15488TIP3   OH267954   2.658   4.829  10.964 -0.5440 -0.1285 -0.4354
15488TIP3    H167955   2.574   4.808  11.004 -0.0373 -0.1565  0.6358
15488TIP3    H267956   2.659   4.924  10.957  0.3933  0.1057  2.0091
15489TIP3   OH267957   1.352   1.633   1.891 -0.3160 -0.1248  0.3643
15489TIP3    H167958   1.267   1.677   1.894  0.5914  1.7010  1.6079
15489TIP3    H267959   1.366   1.603   1.981  1.1861  1.3839  0.6743
15490TIP3   OH267960   2.750   3.353  13.660 -0.1158 -0.4776  0.1854
15490TIP3    H167961   2.833   3.306  13.661  0.1558 -0.0248 -0.2866
15490TIP3    H267962   2.754   3.407  13.581 -0.1543  0.8165  1.0450
15491TIP3   OH267963   2.815   1.093  14.730  0.5649 -0.3414 -0.1641
15491TIP3    H167964   2.898   1.133  14.757 -0.5451  1.7748  0.3774
15491TIP3    H267965   2.828   0.999  14.742  2.5755  0.0002  0.7318
15492TIP3   OH267966   3.523   2.715  15.582  0.7819 -0.3007  0.0527
15492TIP3    H167967   3.446   2.734  15.636  2.8783 -0.8636  3.5776
15492TIP3    H267968   3.531   2.792  15.524 -1.4488  0.5138  0.7061
15493TIP3   OH267969   4.546   5.416   0.216  0.0692 -0.4890 -0.1152
15493TIP3    H167970   4.588   5.416   0.302 -0.3566 -2.4158  0.1478
15493TIP3    H267971   4.617   5.399   0.155  0.0905 -1.1039  0.0697
15494TIP3   OH267972   0.694   1.717  15.923  0.1469  0.0661 -0.7606
15494TIP3    H167973   0.663   1.667  15.847  0.2349  1.7357 -1.9400
15494TIP3    H267974   0.714   1.650  15.989 -1.7172 -1.3251 -1.5257
15495TIP3   OH267975   2.604   6.283   3.025  0.4290 -0.0768 -0.1729
15495TIP3    H167976   2.685   6.234   3.038 -0.8937 -2.5676 -0.7448
15495TIP3    H267977   2.628   6.354   2.965  2.9626  1.6990  2.6301
15496TIP3   OH267978   4.721   0.217  10.780 -0.3167  0.0224 -0.0357
15496TIP3    H167979   4.793   0.231  10.718  1.1226 -2.2032  1.0203
15496TIP3    H267980   4.643   0.212  10.725  0.4689  1.2027 -1.3416
15497TIP3   OH267981   3.560   6.293  16.761  0.3155 -0.1072 -0.2135
15497TIP3    H167982   3.556   6.378  16.716  0.0247 -0.6156 -1.1585
15497TIP3    H267983   3.472   6.282  16.798  0.2922 -0.0848 -0.2614
15498TIP3   OH267984   2.582   1.510   4.453  0.0764 -0.3542  0.6240
15498TIP3    H167985   2.589   1.436   4.393  2.5867  0.0601  0.2668
15498TIP3    H267986   2.564   1.585   4.396  1.6260 -0.0959  0.4197
15499TIP3   OH267987   3.415   3.672   5.672 -0.5328  0.2429 -0.0500
15499TIP3    H167988   3.356   3.619   5.618 -0.2937  0.4870 -0.5563
15499TIP3    H267989   3.376   3.760   5.669  0.4984  0.6957 -1.4054
15500TIP3   OH267990   6.125   4.199   1.397 -0.2833  0.4155  0.3785
15500TIP3    H167991   6.210   4.243   1.402 -0.5741  1.1864 -1.0542
15500TIP3    H267992   6.131   4.144   1.319 -0.3385 -1.2659  1.5066
15501TIP3   OH267993   0.496   5.795   3.902  0.0638  0.3444 -0.0205
15501TIP3    H167994   0.463   5.710   3.872  1.0358  0.0574 -0.3113
15501TIP3    H267995   0.425   5.857   3.882 -0.5340 -0.3439 -0.0788
15502TIP3   OH267996   3.143   2.721  17.219  0.3675  0.1410 -0.1034
15502TIP3    H167997   3.177   2.633  17.203  0.9198  0.4246 -0.5056
15502TIP3    H267998   3.221   2.774  17.238  0.5147  1.3626 -3.4411
15503TIP3   OH267999   1.567   2.553  11.057 -0.2658 -0.9421 -0.0989
15503TIP3    H168000   1.521   2.483  11.105 -0.9792 -0.4395 -0.0310
15503TIP3    H268001   1.628   2.590  11.121  0.1927 -1.5657 -0.1667
15504TIP3   OH268002   3.447   5.939  14.916 -0.4441 -0.4013 -0.1129
15504TIP3    H168003   3.500   5.887  14.855 -1.6629 -0.0938 -1.4783
15504TIP3    H268004   3.479   6.028  14.906 -1.3557 -0.1759 -1.1168
15505TIP3   OH268005   5.650   0.968  14.258  0.2379 -0.4416  0.3215
15505TIP3    H168006   5.652   0.986  14.164  1.1359  0.7030  0.5315
15505TIP3    H268007   5.557   0.972  14.282  0.1237  0.7941 -0.2538
15506TIP3   OH268008   1.004   3.810   4.691 -0.2980 -0.6136 -0.1422
15506TIP3    H168009   1.014   3.729   4.740  0.7015 -0.6915 -0.4679
15506TIP3    H268010   0.919   3.844   4.720 -0.1887 -1.1628  0.8916
15507TIP3   OH268011   4.388   2.652   1.072  0.0492  0.4582  0.0907
15507TIP3    H168012   4.410   2.739   1.037  2.2022 -0.8545 -2.1025
15507TIP3    H268013   4.461   2.631   1.131 -0.4229  0.0627  0.5473
15508TIP3   OH268014   0.014   3.163   5.226 -0.4538  0.2047 -0.0510
15508TIP3    H168015  -0.057   3.217   5.260  1.1418  1.8343  0.8947
15508TIP3    H268016   0.079   3.162   5.296 -0.5956 -3.5231  0.2222
15509TIP3   OH268017   0.644   0.443   3.768  0.0216 -0.3818 -0.1616
15509TIP3    H168018   0.549   0.443   3.778 -0.0175 -0.1161 -0.5117
15509TIP3    H268019   0.658   0.462   3.675  0.4093 -0.7274 -0.1754
15510TIP3   OH268020   3.596   1.063   2.221 -0.1832 -0.0781 -0.7448
15510TIP3    H168021   3.540   1.022   2.155  1.5099  0.2389 -2.4641
15510TIP3    H268022   3.574   1.156   2.216 -0.9309 -0.2012  0.0518
15511TIP3   OH268023   3.506   1.022  15.582 -0.3851  0.5232 -0.1216
15511TIP3    H168024   3.427   0.973  15.606  0.6947 -0.6970  1.1338
15511TIP3    H268025   3.488   1.112  15.610 -0.7909 -0.0337  1.5150
15512TIP3   OH268026   1.703   0.341  14.820 -0.1807 -0.3291 -0.0545
15512TIP3    H168027   1.625   0.323  14.873  1.5908 -0.7473  2.6088
15512TIP3    H268028   1.703   0.436  14.809 -0.6987 -0.2505  0.5431
15513TIP3   OH268029   4.473   6.213  11.463  0.1766  0.3130 -0.2903
15513TIP3    H168030   4.485   6.303  11.434 -1.4085  0.2902 -1.1587
15513TIP3    H268031   4.511   6.210  11.550  1.8622  1.3463 -0.9444
15514TIP3   OH268032   6.442   0.933   3.109 -0.3522 -0.4301 -0.0543
15514TIP3    H168033   6.425   1.026   3.095  2.5642  0.2405  0.2761
15514TIP3    H268034   6.386   0.889   3.045 -0.1930  1.6801 -1.7568
15515TIP3   OH268035   1.368   1.593  14.509  0.1924 -0.1056 -0.2669
15515TIP3    H168036   1.345   1.510  14.467 -0.9247  1.0486 -2.0365
15515TIP3    H268037   1.437   1.630  14.454  0.8498  0.0763  0.6417
15516TIP3   OH268038   5.924   0.697   0.880  0.4650  0.4089 -0.5302
15516TIP3    H168039   5.882   0.696   0.966 -1.5764 -1.1686 -1.4373
15516TIP3    H268040   6.013   0.667   0.896  0.1562  0.2468  1.0461
15517TIP3   OH268041   2.009   0.336   1.256  0.7281 -0.1872  0.0481
15517TIP3    H168042   1.946   0.291   1.312  0.5575 -1.6020 -1.1912
15517TIP3    H268043   2.094   0.303   1.285  0.7316 -0.0287  0.2216
15518TIP3   OH268044   0.093   0.968   3.546 -0.5821 -0.1581 -0.0881
15518TIP3    H168045   0.144   1.047   3.528  1.1109 -1.0602  0.4955
15518TIP3    H268046   0.068   0.976   3.638  1.4441 -1.2073  0.6333
15519TIP3   OH268047   4.059   1.630  16.200 -0.1758  0.5642 -0.0693
15519TIP3    H168048   4.148   1.662  16.188  0.9313 -2.3365 -0.4964
15519TIP3    H268049   4.069   1.536  16.217 -3.2615 -0.4192 -2.5651
15520TIP3   OH268050   3.117   1.787  11.584 -0.6422 -0.0468 -0.0366
15520TIP3    H168051   3.048   1.781  11.518 -1.2067  1.3727  0.3700
15520TIP3    H268052   3.198   1.771  11.536 -1.1296 -0.1252 -0.8555
15521TIP3   OH268053   6.522   4.220   3.281  0.2603 -0.2792  0.6630
15521TIP3    H168054   6.594   4.282   3.294  1.0608 -1.3896  1.6137
15521TIP3    H268055   6.504   4.225   3.187  1.5702  0.0141  0.4098
15522TIP3   OH268056   5.757   6.319   3.376  0.1465 -0.0206  0.4319
15522TIP3    H168057   5.745   6.398   3.323 -2.3064  0.6165  1.7539
15522TIP3    H268058   5.795   6.351   3.457 -0.3635 -0.2592  0.7691
15523TIP3   OH268059   6.477   6.301   3.812 -0.5223 -0.1545 -0.5328
15523TIP3    H168060   6.525   6.339   3.739 -0.8978  2.9680  0.6692
15523TIP3    H268061   6.467   6.209   3.790  1.6686  0.1233 -3.1173
15524TIP3   OH268062   0.547   2.702   5.009 -0.0338 -0.6535 -0.1703
15524TIP3    H168063   0.469   2.754   4.988 -0.1811 -0.5565  0.5682
15524TIP3    H268064   0.567   2.727   5.099  1.7841  0.5078 -0.8442
15525TIP3   OH268065   2.436   6.441  15.511  0.1522 -1.0661 -0.1294
15525TIP3    H168066   2.389   6.524  15.515  0.8984 -0.4112 -2.9918
15525TIP3    H268067   2.522   6.461  15.548 -0.1742 -1.0103  0.6302
15526TIP3   OH268068   0.141   1.620   2.588 -0.0111  0.3115 -0.5381
15526TIP3    H168069   0.167   1.700   2.543  1.9265  0.1127  0.1272
15526TIP3    H268070   0.052   1.637   2.619  0.9138  2.8484  0.9976
15527TIP3   OH268071   6.615   2.264  16.035  0.1418  0.3773  0.2642
15527TIP3    H168072   6.547   2.327  16.014 -0.3938 -0.6440 -1.1785
15527TIP3    H268073   6.688   2.317  16.068 -0.4834  1.6841 -0.4063
15528TIP3   OH268074   2.574   3.197  15.766 -0.3668 -0.1306  0.2893
15528TIP3    H168075   2.649   3.138  15.773 -0.0131  0.3414  0.5079
15528TIP3    H268076   2.611   3.279  15.734 -1.1935 -0.6955 -2.3599
15529TIP3   OH268077   4.727   0.019   2.140  0.8769 -0.5239 -0.0739
15529TIP3    H168078   4.756  -0.039   2.070 -0.8793  0.1462 -1.4179
15529TIP3    H268079   4.691  -0.040   2.207 -0.5070 -1.0604 -1.2410
15530TIP3   OH268080   6.784   4.064   0.547 -0.0452 -0.0206  0.4092
15530TIP3    H168081   6.828   4.043   0.464  0.7655 -0.2372  0.8825
15530TIP3    H268082   6.744   3.982   0.575  0.1879 -0.0949  0.5276
15531TIP3   OH268083   0.554   2.727   0.383 -0.7923 -0.4871 -0.1161
15531TIP3    H168084   0.529   2.729   0.476  2.1411  1.3270  0.7629
15531TIP3    H268085   0.477   2.761   0.337 -1.1233  2.1428  2.0872
15532TIP3   OH268086   3.055   1.451  13.881 -0.2202 -0.2652 -0.3872
15532TIP3    H168087   2.959   1.453  13.876 -0.1780 -0.6381 -1.5409
15532TIP3    H268088   3.083   1.538  13.852 -0.2235  0.2138  0.9594
15533TIP3   OH268089   1.973   0.892   3.893 -0.1646  0.0689  0.1488
15533TIP3    H168090   2.019   0.837   3.830  0.8396  1.2243 -0.1730
15533TIP3    H268091   1.882   0.894   3.862  0.3570  0.8085 -1.4194
15534TIP3   OH268092   2.114   5.594   5.599 -0.2717 -1.1330 -0.7643
15534TIP3    H168093   2.029   5.589   5.641 -0.7214  0.2963 -1.4374
15534TIP3    H268094   2.176   5.603   5.671 -0.8871 -0.1843 -0.3337
15535TIP3   OH268095   1.546   3.144   3.039 -0.0409  0.3250  0.4248
15535TIP3    H168096   1.547   3.233   3.072  0.5497 -0.3049  2.2645
15535TIP3    H268097   1.606   3.096   3.097  0.8072 -0.9762 -1.4035
15536TIP3   OH268098   1.966   3.873   0.528  0.2461  0.5805 -0.0109
15536TIP3    H168099   2.040   3.862   0.587 -0.2445  2.0415  0.9216
15536TIP3    H268100   1.923   3.788   0.527  1.9918 -0.3349 -0.6914
15537TIP3   OH268101   6.617   4.398  17.183  0.1700 -0.1002 -0.2906
15537TIP3    H168102   6.596   4.313  17.221 -0.5823 -0.3036 -1.1229
15537TIP3    H268103   6.699   4.424  17.225  0.4216 -1.2409 -0.0500
15538TIP3   OH268104   4.139   1.144   6.192  0.6029  0.2089 -0.0437
15538TIP3    H168105   4.056   1.136   6.144  2.5111  0.0017 -3.6534
15538TIP3    H268106   4.163   1.055   6.215  0.2465  0.1876  0.2524
15539TIP3   OH268107   2.635   4.429  11.601  0.4040 -0.0586 -0.6012
15539TIP3    H168108   2.582   4.503  11.572  0.8867 -0.1772 -1.8393
15539TIP3    H268109   2.721   4.444  11.562  0.4702 -1.3400 -1.0082
15540TIP3   OH268110   5.481   1.580   4.656  0.1253 -0.2710  0.0608
15540TIP3    H168111   5.488   1.670   4.687 -2.0375  0.3089 -0.9324
15540TIP3    H268112   5.567   1.542   4.673  0.9360  1.8125  0.9684
15541TIP3   OH268113   5.485   1.110  11.153 -0.6549 -0.1500 -0.7150
15541TIP3    H168114   5.562   1.125  11.099  0.6147 -0.0966  1.0194
15541TIP3    H268115   5.492   1.018  11.179  0.4787  0.5587  1.7870
15542TIP3   OH268116   3.134   0.280   2.176  0.0872  0.2968 -0.0380
15542TIP3    H168117   3.135   0.256   2.269 -2.7188  1.1403  0.2924
15542TIP3    H268118   3.132   0.376   2.175 -2.5218  0.2950 -0.8205
15543TIP3   OH268119   1.879   5.441   4.591  0.0115 -0.3610  0.6013
15543TIP3    H168120   1.828   5.484   4.522 -0.2118 -0.8039  0.4852
15543TIP3    H268121   1.941   5.385   4.545 -0.0732 -0.5856  0.7558
15544TIP3   OH268122   6.723   6.457   5.450 -0.3553  0.0857  0.1357
15544TIP3    H168123   6.692   6.476   5.361  0.1245  1.4860  0.2480
15544TIP3    H268124   6.648   6.475   5.506 -0.5682 -0.5102  0.0471
15545TIP3   OH268125   1.956   1.393   3.078  0.4731 -0.5273  0.0148
15545TIP3    H168126   1.920   1.475   3.044 -1.3340  0.2613  3.3957
15545TIP3    H268127   2.048   1.411   3.092  0.5650  0.1592 -1.3449
15546TIP3   OH268128   0.764   6.572   6.665 -0.6443 -0.6793 -0.1670
15546TIP3    H168129   0.727   6.596   6.750 -0.4111 -0.7191 -0.0534
15546TIP3    H268130   0.688   6.546   6.613 -0.8937  0.2330 -0.2725
15547TIP3   OH268131   0.341   5.932  11.320 -0.1417 -0.2366 -0.5000
15547TIP3    H168132   0.366   6.008  11.268 -1.2077  0.5125  0.0472
15547TIP3    H268133   0.381   5.947  11.406  1.7862 -1.5695 -1.0870
15548TIP3   OH268134   0.547   5.871   3.081  0.1341 -0.2977  0.3445
15548TIP3    H168135   0.629   5.855   3.035 -0.6528  1.2070 -1.7068
15548TIP3    H268136   0.557   5.957   3.120  0.4980 -1.2329  2.4622
15549TIP3   OH268137   0.616   3.949   2.728  0.4318 -0.0740  0.1285
15549TIP3    H168138   0.619   3.853   2.737 -3.3330 -0.3007  0.7179
15549TIP3    H268139   0.643   3.965   2.638  1.3572 -1.6560  0.0762
15550TIP3   OH268140   5.653   0.289  11.198 -1.0149 -0.2652  0.2615
15550TIP3    H168141   5.657   0.206  11.151 -1.3727 -0.7640  1.0755
15550TIP3    H268142   5.735   0.292  11.248 -0.8750  0.0037  0.0147
15551TIP3   OH268143   1.319   1.121   2.327  0.0710 -0.3916 -0.2694
15551TIP3    H168144   1.390   1.185   2.335  0.2786 -0.6203 -0.2986
15551TIP3    H268145   1.310   1.107   2.233 -0.0167 -0.3594 -0.2661
15552TIP3   OH268146   4.023   4.673  14.302 -0.4532  0.1412 -0.1700
15552TIP3    H168147   4.076   4.693  14.379 -2.5116  1.6287  0.9381
15552TIP3    H268148   4.014   4.756  14.256 -1.0254 -0.2885 -0.8594
15553TIP3   OH268149   4.956   0.693   4.526 -0.2282 -0.5640 -0.1943
15553TIP3    H168150   4.903   0.763   4.487 -1.0804 -2.0368 -1.7759
15553TIP3    H268151   4.996   0.734   4.602 -0.5601  1.6966 -1.1634
15554TIP3   OH268152   4.606   3.605   6.201 -0.1784  0.0333  0.0845
15554TIP3    H168153   4.668   3.663   6.245 -0.4525  0.4133 -0.0250
15554TIP3    H268154   4.568   3.552   6.271 -0.5368  0.5647  0.3008
15555TIP3   OH268155   2.270   5.859   0.534 -0.3680 -0.1319  0.6258
15555TIP3    H168156   2.357   5.884   0.505 -0.3240 -1.1172 -0.1326
15555TIP3    H268157   2.213   5.877   0.459 -0.3756 -1.9606  0.1432
15556TIP3   OH268158   2.996   5.348   5.626 -0.1379  0.2030 -0.7584
15556TIP3    H168159   3.013   5.259   5.656  0.8867  0.0449 -1.7246
15556TIP3    H268160   2.966   5.394   5.704  0.1000 -0.7784 -0.0586
15557TIP3   OH268161   3.703   4.019   0.690  0.2934 -0.2871  0.0212
15557TIP3    H168162   3.633   4.078   0.664  0.1077 -0.0310  1.0691
15557TIP3    H268163   3.672   3.932   0.665 -0.4185 -0.1797  0.5387
15558TIP3   OH268164   0.891   5.157  13.505 -0.3400 -0.5596  0.6873
15558TIP3    H168165   0.855   5.222  13.446 -0.1667 -0.2413  0.9321
15558TIP3    H268166   0.816   5.104  13.532 -0.3550 -0.9718 -0.1407
15559TIP3   OH268167   4.276   4.338  12.482  0.0168  0.8605  0.0776
15559TIP3    H168168   4.288   4.247  12.511  1.1892  1.3387  1.1842
15559TIP3    H268169   4.232   4.330  12.397 -1.2655 -0.6871  0.8346
15560TIP3   OH268170   0.238   6.627   0.697 -0.2167  0.2656  0.2006
15560TIP3    H168171   0.288   6.545   0.697  1.5608  1.2793 -0.8276
15560TIP3    H268172   0.302   6.693   0.669 -0.7447  2.5549  3.7827
15561TIP3   OH268173   4.001   2.359   1.000  0.4669 -0.1388  0.3323
15561TIP3    H168174   3.997   2.452   1.025  0.5683 -0.0999  0.2040
15561TIP3    H268175   4.095   2.340   0.998  0.4341 -0.6890  2.0327
15562TIP3   OH268176   1.906   2.380  13.053 -0.4240 -0.1070  1.1873
15562TIP3    H168177   1.937   2.433  12.980 -1.3739  0.4358  1.1572
15562TIP3    H268178   1.847   2.316  13.012  0.2658 -0.8264  1.2949
15563TIP3   OH268179   0.812   1.311  14.259  0.3037  0.2248 -0.3566
15563TIP3    H168180   0.787   1.221  14.237 -0.1838  0.5050 -0.9792
15563TIP3    H268181   0.783   1.322  14.349  1.4091 -0.6127  0.1227
15564TIP3   OH268182   6.386   6.762  17.135  0.7534  0.4647  0.4260
15564TIP3    H168183   6.437   6.684  17.113  0.2164  0.0558  0.6010
15564TIP3    H268184   6.297   6.729  17.150  0.8616  0.8661  2.1735
15565TIP3   OH268185   5.452   1.834  14.557 -0.0652 -0.1378  0.0452
15565TIP3    H168186   5.528   1.781  14.534 -1.0762 -1.7277  0.2586
15565TIP3    H268187   5.458   1.910  14.499  1.7999 -0.0926  0.2181
15566TIP3   OH268188   6.290   6.366  17.190 -0.1876  0.1902 -0.0725
15566TIP3    H168189   6.198   6.338  17.181 -0.2008  0.0967  0.3660
15566TIP3    H268190   6.333   6.293  17.233 -0.1297  0.6587  0.6821
15567TIP3   OH268191   4.331   4.360   2.101  0.0977 -0.0909  0.0633
15567TIP3    H168192   4.401   4.425   2.096  0.5247 -0.4767  0.8586
15567TIP3    H268193   4.323   4.328   2.011 -1.1442  2.0814 -0.6706
15568TIP3   OH268194   2.894   6.175  14.900 -0.0745 -0.1931 -0.0480
15568TIP3    H168195   2.914   6.173  14.994 -1.0327 -0.5339  0.1685
15568TIP3    H268196   2.820   6.114  14.891  0.5694 -0.8270 -1.1683
15569TIP3   OH268197   1.683   6.337   1.639 -0.6655  0.0665 -0.6645
15569TIP3    H168198   1.714   6.335   1.730 -1.7447 -0.9030 -0.2894
15569TIP3    H268199   1.756   6.375   1.590  0.5420 -0.7672  0.3894
15570TIP3   OH268200   2.953   6.550  15.350  0.2745  0.2637 -0.1786
15570TIP3    H168201   2.965   6.462  15.314 -1.3690  0.1425 -0.4954
15570TIP3    H268202   3.027   6.561  15.410  0.2226 -1.5541  0.2917
15571TIP3   OH268203   1.648   2.481   3.257 -0.1828  0.0454 -0.4402
15571TIP3    H168204   1.739   2.456   3.237  0.8595  1.7288  1.8208
15571TIP3    H268205   1.610   2.404   3.299  0.9036  0.0293  0.5454
15572TIP3   OH268206   6.375   5.950   4.564  0.4744  0.6031 -0.0015
15572TIP3    H168207   6.296   5.991   4.600  0.2412 -0.4379  0.7231
15572TIP3    H268208   6.429   5.930   4.640  2.0895  2.5176 -0.5848
15573TIP3   OH268209   2.502   3.118  13.422 -0.5381 -0.1034  0.0518
15573TIP3    H168210   2.429   3.164  13.381 -0.6380  1.2688  1.6551
15573TIP3    H268211   2.504   3.150  13.512  0.4177 -2.0727  0.8105
15574TIP3   OH268212   4.968   0.349   5.782 -0.6903 -0.2967  0.1235
15574TIP3    H168213   4.965   0.295   5.703 -0.8551 -1.9646  1.2112
15574TIP3    H268214   4.882   0.388   5.788 -0.1437  1.2736 -1.4251
15575TIP3   OH268215   4.352   0.505   3.826  0.2074  0.1387  0.0903
15575TIP3    H168216   4.359   0.431   3.764  0.2658  0.4416 -0.2688
15575TIP3    H268217   4.259   0.507   3.849  0.7065 -2.3274  2.9383
15576TIP3   OH268218   5.302   4.601  11.692  0.0316  0.1762 -0.8332
15576TIP3    H168219   5.360   4.549  11.636 -0.4435  0.1812 -1.3364
15576TIP3    H268220   5.293   4.550  11.772  0.9898  0.3255 -0.6142
15577TIP3   OH268221   0.919   6.039   3.164  0.4532  0.1526 -0.6541
15577TIP3    H168222   0.827   6.056   3.143  0.5325  1.4701 -0.0166
15577TIP3    H268223   0.916   5.980   3.239  0.1637 -1.4225 -1.8440
15578TIP3   OH268224   6.570   3.877  13.639 -0.3685  0.5627  0.2776
15578TIP3    H168225   6.591   3.841  13.725 -1.1582  2.1777  1.1969
15578TIP3    H268226   6.553   3.969  13.655 -0.2303  0.9774 -1.6831
15579TIP3   OH268227   2.735   0.816  11.175 -0.3565  0.0977  0.1073
15579TIP3    H168228   2.660   0.757  11.168 -0.6711  0.4153  0.6914
15579TIP3    H268229   2.746   0.830  11.269  1.4943 -1.2540  0.1390
15580TIP3   OH268230   0.628   3.057   4.663 -0.4145  0.4336  0.3613
15580TIP3    H168231   0.658   2.972   4.694  0.8950  0.3719 -0.9664
15580TIP3    H268232   0.656   3.061   4.571  2.0081  3.3401  1.0616
15581TIP3   OH268233   0.443   4.384  10.955  0.0442  0.6797 -0.6830
15581TIP3    H168234   0.501   4.460  10.959  1.2597 -0.1520 -1.8104
15581TIP3    H268235   0.402   4.389  10.869  0.4977 -0.1737 -0.9672
15582TIP3   OH268236   1.477   3.983  11.127 -0.2877  0.2944  0.3452
15582TIP3    H168237   1.481   4.017  11.037  0.2411  0.3919  0.4030
15582TIP3    H268238   1.567   3.988  11.158 -0.3191 -0.5048  0.5952
15583TIP3   OH268239   1.993   1.486  13.601  0.5837  0.1360  0.2565
15583TIP3    H168240   1.920   1.481  13.663  0.8250  1.9216  0.7573
15583TIP3    H268241   2.039   1.403  13.611 -0.3171 -0.2557  1.3069
15584TIP3   OH268242   6.645   5.735  11.062  0.2002 -0.2185 -0.2245
15584TIP3    H168243   6.571   5.770  11.012 -0.6673 -1.1124  0.3893
15584TIP3    H268244   6.718   5.794  11.041 -0.4089  0.0812 -1.6521
15585TIP3   OH268245   5.292   2.890  13.858 -0.0475 -0.5542  0.0332
15585TIP3    H168246   5.331   2.901  13.944  0.0553 -0.5090 -0.0187
15585TIP3    H268247   5.215   2.947  13.859 -0.8600 -1.6340  0.5966
15586TIP3   OH268248   1.740   1.344  10.526 -0.1567  0.2450  0.1304
15586TIP3    H168249   1.830   1.322  10.549 -0.5019 -1.8283 -0.2691
15586TIP3    H268250   1.697   1.259  10.512 -1.8855  1.1984 -0.7772
15587TIP3   OH268251   1.072   3.418  12.561 -0.2120 -0.3196 -0.1346
15587TIP3    H168252   1.120   3.499  12.581 -2.4551  1.1342 -0.3172
15587TIP3    H268253   1.067   3.372  12.645  1.1025 -0.3157 -0.0303
15588TIP3   OH268254   4.721   4.128  13.376 -0.1628  0.1339  0.1533
15588TIP3    H168255   4.665   4.062  13.335  0.5134 -0.3076 -0.0664
15588TIP3    H268256   4.695   4.211  13.335 -2.0230  0.2699  1.4318
15589TIP3   OH268257   6.270   0.981  16.747  0.4623  0.0558  0.5488
15589TIP3    H168258   6.290   1.032  16.668 -0.5316  1.2464  1.0349
15589TIP3    H268259   6.202   0.920  16.719 -0.7190  1.2544  0.7306
15590TIP3   OH268260   1.386   5.557   0.428  0.1151 -0.0097  0.4295
15590TIP3    H168261   1.413   5.625   0.490  0.1637  0.5331 -0.1742
15590TIP3    H268262   1.293   5.545   0.445 -0.0301  0.6499  0.1322
15591TIP3   OH268263   3.755   1.387   0.371 -1.0691 -0.0007  0.3787
15591TIP3    H168264   3.789   1.416   0.456 -0.3227 -0.0642  0.1056
15591TIP3    H268265   3.718   1.466   0.332  0.0105  0.3690  0.0873
15592TIP3   OH268266   3.148   4.247   1.660 -0.4574 -0.3368  0.0649
15592TIP3    H168267   3.231   4.292   1.675  0.3674 -0.9132 -2.3226
15592TIP3    H268268   3.156   4.165   1.710  0.3776 -0.3534 -0.0806
15593TIP3   OH268269   4.413   1.053   4.035 -0.0785 -0.0847 -0.1332
15593TIP3    H168270   4.352   1.124   4.052  1.8368  1.4143  0.9437
15593TIP3    H268271   4.408   1.038   3.941  1.3087  3.3695 -0.9082
15594TIP3   OH268272   3.263   2.156   6.610  0.5611  0.2142 -0.1614
15594TIP3    H168273   3.307   2.241   6.601  1.5936 -0.2527  0.3322
15594TIP3    H268274   3.326   2.092   6.577  0.2734 -0.4689  0.5621
15595TIP3   OH268275   3.841   4.004   1.189  0.2761  0.6167  0.3811
15595TIP3    H168276   3.787   4.027   1.114  0.1594  1.7498  0.7896
15595TIP3    H268277   3.900   3.936   1.157  0.4315  1.2991 -0.8232
15596TIP3   OH268278   0.982   3.949  12.719  0.2780  0.4109  0.4527
15596TIP3    H168279   0.988   4.036  12.757  0.2421  0.3753  0.5415
15596TIP3    H268280   0.951   3.964  12.629 -0.5940  0.4327  0.7445
15597TIP3   OH268281   2.847   3.494   0.731 -0.2328  0.0829 -0.3164
15597TIP3    H168282   2.893   3.428   0.678 -0.0633 -0.5475  0.5977
15597TIP3    H268283   2.896   3.497   0.813 -1.5117 -0.2347  0.4910
15598TIP3   OH268284   1.379   5.705  13.238  0.1720 -0.1452  0.6223
15598TIP3    H168285   1.456   5.748  13.200  0.3149 -1.1517 -0.2866
15598TIP3    H268286   1.342   5.654  13.165 -1.2036  0.1113  1.1199
15599TIP3   OH268287   0.590   6.062   1.007 -0.4046  0.0697 -0.5911
15599TIP3    H168288   0.677   6.068   1.046 -1.2449  2.2212  1.1660
15599TIP3    H268289   0.594   6.118   0.930 -0.2591  0.2232 -0.4718
15600TIP3   OH268290   0.715   4.538   4.811  0.4223  0.0499 -0.0745
15600TIP3    H168291   0.695   4.538   4.904  1.8746 -0.1519  0.2577
15600TIP3    H268292   0.753   4.624   4.795  1.6549 -0.4818 -0.1217
15601TIP3   OH268293   6.438   0.506  16.355  0.6203  0.2299  0.6834
15601TIP3    H168294   6.408   0.489  16.266  0.8895  1.6015  0.3068
15601TIP3    H268295   6.519   0.456  16.363  1.1779  0.9452 -0.2382
15602TIP3   OH268296   4.860   4.043  14.271  0.0887  0.1469  0.4601
15602TIP3    H168297   4.784   4.028  14.215  1.2132 -3.3086 -0.4017
15602TIP3    H268298   4.931   4.063  14.210  0.6594 -0.4890  0.9041
15603TIP3   OH268299   3.604   0.040   3.923 -0.5844 -0.2867  0.3196
15603TIP3    H168300   3.611   0.020   4.016  0.0489  0.2641  0.3966
15603TIP3    H268301   3.683   0.004   3.884 -1.3157 -1.4044 -0.1855
15604TIP3   OH268302   5.406   4.918   0.785  0.0900  0.5014  0.0889
15604TIP3    H168303   5.493   4.924   0.747  0.6249 -0.5631  1.0988
15604TIP3    H268304   5.420   4.884   0.873 -1.2640  1.2776  0.6309
15605TIP3   OH268305   0.681   2.848  16.743 -0.1173  0.6848  0.1773
15605TIP3    H168306   0.654   2.932  16.779  1.2875  1.3704 -0.3069
15605TIP3    H268307   0.679   2.788  16.817 -1.1428  1.1269  0.5281
15606TIP3   OH268308   4.357   6.375   1.425 -0.4635  0.7392  0.2763
15606TIP3    H168309   4.333   6.309   1.491  2.1643 -0.5954  0.0467
15606TIP3    H268310   4.350   6.458   1.471 -2.1576  0.1654  1.1357
15607TIP3   OH268311   4.500   2.054  13.722  0.1299 -0.4488 -0.1623
15607TIP3    H168312   4.549   1.978  13.753  1.3555 -0.0130 -0.9650
15607TIP3    H268313   4.511   2.119  13.791  0.9790 -0.2428 -0.4807
15608TIP3   OH268314   4.586   1.843   3.474  0.6408  0.5390 -0.5170
15608TIP3    H168315   4.496   1.821   3.453 -0.1597  2.0909  1.0598
15608TIP3    H268316   4.615   1.898   3.401 -0.7517  2.5295  0.3428
15609TIP3   OH268317   3.528   1.200   1.236  0.1498  0.1026  0.2070
15609TIP3    H168318   3.550   1.118   1.280  2.1006 -0.4173 -1.5898
15609TIP3    H268319   3.556   1.268   1.298 -3.1941 -0.4143  2.5527
15610TIP3   OH268320   6.158   5.193   3.529 -0.8163 -0.0940  0.2814
15610TIP3    H168321   6.252   5.189   3.512 -0.6580  0.2708  1.0481
15610TIP3    H268322   6.129   5.102   3.521  0.1030 -0.6779  2.7027
15611TIP3   OH268323   1.303   1.158  12.413 -0.1863 -0.4698  0.2541
15611TIP3    H168324   1.349   1.209  12.479  0.5630  0.3048 -0.8306
15611TIP3    H268325   1.225   1.125  12.458 -0.5429  1.3780  1.0933
15612TIP3   OH268326   3.387   3.679   5.317  0.1057 -0.1912 -0.0988
15612TIP3    H168327   3.381   3.736   5.241 -0.6931  0.2622  0.2955
15612TIP3    H268328   3.458   3.715   5.369 -2.2179  2.3029  1.6175
15613TIP3   OH268329   0.750   0.888  17.046 -0.1547  0.2096  0.2207
15613TIP3    H168330   0.789   0.869  16.961 -0.8678 -0.8517  0.1039
15613TIP3    H268331   0.823   0.912  17.102  0.7349 -1.9281  0.0752
15614TIP3   OH268332   1.472   2.357  11.219 -0.4122 -0.0131  0.1346
15614TIP3    H168333   1.520   2.278  11.243  0.4637  0.2354 -0.7225
15614TIP3    H268334   1.391   2.325  11.180  1.7425 -0.8042 -4.3651
15615TIP3   OH268335   2.158   2.450   3.152  0.1914  0.2692  0.2474
15615TIP3    H168336   2.177   2.539   3.123  0.1736 -0.3870 -1.9080
15615TIP3    H268337   2.171   2.396   3.075 -1.7005 -1.3672  0.9908
15616TIP3   OH268338   2.635   6.488   1.500  0.2272 -0.7990 -0.0835
15616TIP3    H168339   2.710   6.487   1.441  0.4900  1.5559  0.1186
15616TIP3    H268340   2.670   6.522   1.583 -1.2681  1.9574 -0.4570
15617TIP3   OH268341   1.083   1.663  15.891  0.8307  0.6473  0.1822
15617TIP3    H168342   1.105   1.734  15.952 -1.1200  1.4975 -0.0078
15617TIP3    H268343   1.091   1.583  15.944 -0.1218  1.3114  1.4054
15618TIP3   OH268344   0.170   2.765  12.672 -0.0967 -0.2518  0.7164
15618TIP3    H168345   0.254   2.812  12.677 -0.8402  1.1905  0.1676
15618TIP3    H268346   0.191   2.685  12.624  0.8245  0.4894 -0.1752
15619TIP3   OH268347   1.206   6.698   3.961  0.1256  0.1325  0.1027
15619TIP3    H168348   1.158   6.672   4.039 -2.7007  0.4439 -1.3899
15619TIP3    H268349   1.293   6.721   3.992 -0.7635 -0.1599  3.0593
15620TIP3   OH268350   3.705   3.678  15.369 -0.0612  0.1459 -0.3344
15620TIP3    H168351   3.705   3.611  15.301  0.5217  1.3768 -1.6117
15620TIP3    H268352   3.642   3.744  15.338 -0.2443  0.4530  0.6360
15621TIP3   OH268353   4.898   2.942  16.418 -0.6104 -0.3263 -0.2800
15621TIP3    H168354   4.875   2.910  16.505  0.4072 -0.0580  0.1097
15621TIP3    H268355   4.907   3.036  16.428 -0.6915 -0.2655 -0.7304
15622TIP3   OH268356   5.999   4.737   0.454  0.2237 -0.7629  0.0043
15622TIP3    H168357   6.053   4.797   0.403 -1.4217  0.5143 -0.2954
15622TIP3    H268358   6.038   4.737   0.541  1.2574 -0.6207 -0.4460
15623TIP3   OH268359   2.019   5.639   3.179  0.7533 -0.5147 -0.2984
15623TIP3    H168360   1.933   5.600   3.196 -0.0061  0.8873 -0.7068
15623TIP3    H268361   2.081   5.566   3.187 -0.3749 -1.3865  0.8346
15624TIP3   OH268362   2.804   0.767   0.337 -0.1800 -0.0935 -0.2504
15624TIP3    H168363   2.763   0.765   0.423 -1.4397 -0.4348 -0.8382
15624TIP3    H268364   2.896   0.786   0.355 -0.5491  0.5257  1.1151
15625TIP3   OH268365   4.354   3.030  14.436 -0.5082  0.9614  0.0501
15625TIP3    H168366   4.317   2.946  14.465 -0.8572  1.5213  1.2806
15625TIP3    H268367   4.368   3.079  14.517  1.6234  1.3321 -0.4867
15626TIP3   OH268368   5.666   1.357   4.709 -0.2412  0.3070  0.8483
15626TIP3    H168369   5.592   1.306   4.678 -0.2147 -0.0237  1.3169
15626TIP3    H268370   5.693   1.314   4.790 -0.0085  0.8658  1.0773
15627TIP3   OH268371   4.439   1.962   4.055  0.5596 -0.4040  0.1836
15627TIP3    H168372   4.526   1.923   4.041  0.4641 -0.8047  0.6785
15627TIP3    H268373   4.431   2.028   3.986  0.2337 -2.1111 -1.5006
15628TIP3   OH268374   1.956   0.588  12.456 -0.1835  0.1782 -0.2543
15628TIP3    H168375   1.983   0.615  12.368 -1.2497  1.6874 -0.1499
15628TIP3    H268376   1.920   0.500  12.443  0.4910  0.0195 -1.1598
15629TIP3   OH268377   1.711   5.544   4.403  0.1600  0.1180  0.0996
15629TIP3    H168378   1.624   5.583   4.399  0.1653  0.0963 -0.2226
15629TIP3    H268379   1.770   5.613   4.370  0.0579 -0.5032 -1.4443
15630TIP3   OH268380   6.639   3.886   5.597 -0.2780 -0.0073 -0.1393
15630TIP3    H168381   6.721   3.906   5.552 -0.5817  1.2831 -0.1730
15630TIP3    H268382   6.615   3.968   5.640 -0.3655 -1.0170  1.8232
15631TIP3   OH268383   4.122   1.983   3.997  0.2240  0.6300  0.2767
15631TIP3    H168384   4.164   2.064   4.024  0.2556  0.5492  0.4706
15631TIP3    H268385   4.110   1.934   4.078  1.8040 -0.3263 -0.0208
15632TIP3   OH268386   4.496   0.426  14.783  0.0141 -0.3393  0.1746
15632TIP3    H168387   4.570   0.387  14.830 -1.1891 -0.3829  2.1513
15632TIP3    H268388   4.428   0.358  14.785 -0.5133  0.1567 -0.4981
15633TIP3   OH268389   2.292   5.078  12.793  0.7010 -0.0166  0.5119
15633TIP3    H168390   2.323   4.988  12.804  0.2562 -0.3667 -0.8188
15633TIP3    H268391   2.219   5.070  12.732 -0.0001  1.1451  1.1624
15634TIP3   OH268392   1.423   3.423  14.146  0.6507  0.1375  0.4509
15634TIP3    H168393   1.495   3.479  14.116  0.1432 -0.1840 -1.5009
15634TIP3    H268394   1.345   3.463  14.108  0.0781 -0.8471  0.5726
15635TIP3   OH268395   4.205   4.556  16.306 -0.2265  0.3556 -0.0666
15635TIP3    H168396   4.147   4.606  16.364  0.1367  0.6777  0.0252
15635TIP3    H268397   4.163   4.562  16.220  1.0879  3.0380 -0.6269
15636TIP3   OH268398   1.346   4.466  14.869 -0.2105 -0.4597  0.3648
15636TIP3    H168399   1.437   4.490  14.886 -0.3427 -1.0386  2.1023
15636TIP3    H268400   1.335   4.478  14.775  1.5533 -0.0450  0.1773
15637TIP3   OH268401   0.973   4.467  14.402 -0.0722  0.6664 -0.1709
15637TIP3    H168402   0.988   4.412  14.479  1.8759  0.7900 -0.4147
15637TIP3    H268403   1.028   4.429  14.334 -1.5178  0.7518 -1.4526
15638TIP3   OH268404   3.644   4.959   3.816 -0.6388  0.4080  0.7095
15638TIP3    H168405   3.700   4.947   3.739  1.1761  0.9705  1.8822
15638TIP3    H268406   3.680   4.899   3.881 -2.3367 -0.2742  1.0708
15639TIP3   OH268407   6.407   5.993   2.678  0.0158  1.1081  0.4593
15639TIP3    H168408   6.457   6.074   2.685  0.5810  0.7322  0.9516
15639TIP3    H268409   6.403   5.960   2.768  0.8323 -0.0088  0.1040
15640TIP3   OH268410   0.179   5.287  13.003 -0.4840 -0.8776  0.1412
15640TIP3    H168411   0.138   5.247  12.927 -0.2564 -1.2122  0.1956
15640TIP3    H268412   0.271   5.295  12.980 -0.6830  0.5342 -0.2640
15641TIP3   OH268413   1.354   5.484   5.475  0.1988  0.2258 -0.3503
15641TIP3    H168414   1.365   5.556   5.538 -0.6578 -1.3566  1.7067
15641TIP3    H268415   1.413   5.416   5.506 -1.0746 -1.0256 -0.5983
15642TIP3   OH268416   5.673   5.411   3.540 -1.0016  0.2280  0.1250
15642TIP3    H168417   5.736   5.479   3.564  2.8993 -2.5194 -1.4026
15642TIP3    H268418   5.668   5.354   3.617  0.5141 -0.9462 -0.5994
15643TIP3   OH268419   4.828   5.950  12.307 -0.5319 -0.5321 -0.1346
15643TIP3    H168420   4.911   5.983  12.341 -0.7991 -1.4718  1.5111
15643TIP3    H268421   4.777   6.030  12.288  0.3262  0.0335 -0.1083
15644TIP3   OH268422   1.314   4.562  14.598 -0.0606 -0.0057  0.7138
15644TIP3    H168423   1.400   4.590  14.629 -0.0471  0.0719  0.6064
15644TIP3    H268424   1.332   4.510  14.520 -0.2586  2.4059 -1.0447
15645TIP3   OH268425   2.722   2.302  11.421  0.3839 -0.1945 -0.9737
15645TIP3    H168426   2.803   2.252  11.408  0.1730 -0.6992 -0.3611
15645TIP3    H268427   2.676   2.294  11.337 -0.8709 -3.2705 -0.1385
15646TIP3   OH268428   3.515   6.684   5.629 -0.1264 -0.1738  0.2720
15646TIP3    H168429   3.433   6.732   5.638 -0.7624 -1.0311 -0.6847
15646TIP3    H268430   3.582   6.751   5.625 -0.6321  0.5235  2.2247
15647TIP3   OH268431   2.668   1.741  10.932  0.1874  0.3008  0.3773
15647TIP3    H168432   2.688   1.747  10.839  2.0759  1.7912  0.8200
15647TIP3    H268433   2.598   1.676  10.938  1.8353 -1.8417 -1.8234
15648TIP3   OH268434   5.117   0.686   6.406  0.4191 -0.2435 -0.0309
15648TIP3    H168435   5.096   0.765   6.356  1.4764  0.3141  0.3917
15648TIP3    H268436   5.115   0.714   6.497 -1.2493 -1.2053  0.2716
15649TIP3   OH268437   4.896   6.798   0.973  0.0668 -0.0961 -0.4084
15649TIP3    H168438   4.822   6.848   0.938 -2.4332 -2.9209  0.4073
15649TIP3    H268439   4.917   6.735   0.903  1.0093 -0.0055 -0.2151
15650TIP3   OH268440   0.671   0.471   3.482 -0.1772  0.5175 -0.2781
15650TIP3    H168441   0.691   0.377   3.477 -0.4648  0.4295  0.1696
15650TIP3    H268442   0.717   0.509   3.408 -1.3517 -0.2039 -1.4162
15651TIP3   OH268443   1.195   5.665   5.207  0.0799 -0.1760 -0.3041
15651TIP3    H168444   1.254   5.716   5.152  1.4310  2.0094  2.9129
15651TIP3    H268445   1.251   5.600   5.249  0.1442  1.3686  2.1372
15652TIP3   OH268446   2.321   2.013   1.877  0.2676  0.4028 -0.1607
15652TIP3    H168447   2.361   2.042   1.796 -0.2080 -0.2806 -0.6488
15652TIP3    H268448   2.344   2.081   1.941  1.1315  0.6467 -0.7184
15653TIP3   OH268449   0.838   4.755   2.465  0.5454  0.4045  0.4365
15653TIP3    H168450   0.831   4.684   2.401  1.6580  0.1667  0.5585
15653TIP3    H268451   0.789   4.827   2.426  1.0772  0.2131 -0.6180
15654TIP3   OH268452   4.127   4.621   4.303  0.2087 -0.1257 -0.1504
15654TIP3    H168453   4.104   4.641   4.212  0.4095 -1.9506 -0.6565
15654TIP3    H268454   4.175   4.698   4.333 -0.5050  0.8275 -1.3300
15655TIP3   OH268455   3.422   2.398  12.647  0.4770 -0.2486  0.0461
15655TIP3    H168456   3.345   2.445  12.616  0.8476  0.0823 -0.3949
15655TIP3    H268457   3.471   2.462  12.699 -1.0869 -1.3216  3.0117
15656TIP3   OH268458   3.421   4.704   0.014  0.0144  0.2161 -0.3496
15656TIP3    H168459   3.334   4.670  -0.008 -0.1866  0.5622 -0.0950
15656TIP3    H268460   3.470   4.699  -0.069 -0.3594  0.3641 -0.5844
15657TIP3   OH268461   3.710   1.779  15.084  0.4033  0.5758 -0.0983
15657TIP3    H168462   3.801   1.784  15.053  0.4708 -0.0536 -0.0151
15657TIP3    H268463   3.719   1.769  15.179  0.3819 -2.7832 -0.3317
15658TIP3   OH268464   0.820   1.470  16.794 -1.0336 -0.1339  0.5844
15658TIP3    H168465   0.768   1.453  16.872 -3.2849 -0.2735 -0.8495
15658TIP3    H268466   0.788   1.407  16.729 -0.3495  0.9946 -0.9178
15659TIP3   OH268467   3.577   4.905  12.683 -0.7469 -0.1400 -1.0948
15659TIP3    H168468   3.604   4.985  12.639  0.8672  0.4045  0.7383
15659TIP3    H268469   3.578   4.838  12.615  0.4845  0.8830 -2.1206
15660TIP3   OH268470   1.860   0.072   4.852  0.1123  0.2686 -0.4517
15660TIP3    H168471   1.937   0.102   4.806 -0.2622  1.9758 -0.0202
15660TIP3    H268472   1.892   0.001   4.908  1.2916  0.7123 -0.5407
15661TIP3   OH268473   5.728   6.020  11.710 -0.2631 -0.2883 -0.1740
15661TIP3    H168474   5.751   6.108  11.739 -0.5222 -0.1997 -0.2365
15661TIP3    H268475   5.772   5.962  11.772  2.4809 -0.2171 -1.8852
15662TIP3   OH268476   6.542   1.671   0.467 -0.3768  0.1522  0.0670
15662TIP3    H168477   6.461   1.653   0.419 -1.5307 -0.1441  2.0269
15662TIP3    H268478   6.599   1.597   0.447 -0.1314  0.8837 -2.1800
15663TIP3   OH268479   0.464   4.309   4.113  0.0963  0.2857 -0.8233
15663TIP3    H168480   0.502   4.393   4.086  2.0580 -0.5105 -0.6528
15663TIP3    H268481   0.471   4.308   4.208  1.1556 -0.5452 -0.8983
15664TIP3   OH268482   3.513   2.978  13.285 -0.5478  0.3657 -0.0186
15664TIP3    H168483   3.517   2.969  13.380 -0.6861 -0.9274 -0.1274
15664TIP3    H268484   3.574   2.913  13.251 -0.4446  0.8650 -0.8187
15665TIP3   OH268485   1.434   1.396   0.035  0.4781 -0.0802  0.2616
15665TIP3    H168486   1.445   1.435   0.122  1.7618  0.5496 -0.1590
15665TIP3    H268487   1.347   1.424   0.007  0.0192 -0.3394  1.3470
15666TIP3   OH268488   4.218   2.272  16.162 -0.1904  0.0855  0.2483
15666TIP3    H168489   4.154   2.337  16.191 -1.1135 -0.1568 -1.1940
15666TIP3    H268490   4.226   2.285  16.068 -0.3731 -1.8437 -0.0847
15667TIP3   OH268491   3.035   1.593   4.446 -0.8048 -0.2611 -0.0360
15667TIP3    H168492   2.997   1.534   4.512  0.1516 -1.0363 -0.1612
15667TIP3    H268493   3.041   1.677   4.491 -0.3752 -0.7265  0.8106
15668TIP3   OH268494   3.709   1.230   1.692  0.1382  0.6484  0.5523
15668TIP3    H168495   3.804   1.237   1.695  0.1408  1.6175 -0.7257
15668TIP3    H268496   3.690   1.140   1.718  1.3243  0.7478  1.8125
15669TIP3   OH268497   3.395   2.883   6.147 -0.2961  0.2298 -0.3976
15669TIP3    H168498   3.361   2.795   6.134 -0.9869  0.3242  0.6736
15669TIP3    H268499   3.385   2.900   6.241  0.4281  1.2054 -0.4718
15670TIP3   OH268500   1.913   4.835  13.680  0.8254 -0.0230 -0.0324
15670TIP3    H168501   1.996   4.877  13.659  1.3897 -0.5321  1.0925
15670TIP3    H268502   1.872   4.893  13.744  0.7315 -0.2256  0.0942
15671TIP3   OH268503   3.138   0.690   1.302 -0.1258 -0.2137  0.0384
15671TIP3    H168504   3.190   0.651   1.372 -0.3720 -0.2346  0.2119
15671TIP3    H268505   3.171   0.649   1.222  0.5342  0.2219  0.0815
15672TIP3   OH268506   6.023   0.571   3.223  0.1970 -0.0191 -0.2211
15672TIP3    H168507   5.941   0.563   3.174  1.1635 -0.3620 -1.8810
15672TIP3    H268508   6.083   0.613   3.162  1.6641 -1.0578  0.4417
15673TIP3   OH268509   4.826   1.178  12.246 -0.1805  0.4294  0.2977
15673TIP3    H168510   4.740   1.212  12.220 -0.3498 -0.9797 -1.1563
15673TIP3    H268511   4.811   1.140  12.332 -0.9475  0.4875  0.2037
15674TIP3   OH268512   0.933   3.897   2.948 -0.5761  0.1795 -0.2958
15674TIP3    H168513   1.009   3.875   2.895 -0.7708 -2.0142  0.2298
15674TIP3    H268514   0.964   3.891   3.038 -1.1588  0.1202 -0.0948
15675TIP3   OH268515   0.321   4.568   0.995 -0.2075  0.9094  0.2553
15675TIP3    H168516   0.378   4.637   0.963  2.3135 -1.0007  0.2717
15675TIP3    H268517   0.306   4.589   1.087  1.0679  1.1318  0.4278
15676TIP3   OH268518   0.879   0.743   4.973  0.0734  0.4684  0.0265
15676TIP3    H168519   0.948   0.808   4.983  0.0107  0.2942  2.1266
15676TIP3    H268520   0.805   0.779   5.021 -0.4408 -0.5040 -0.0126
15677TIP3   OH268521   1.505   3.369  11.411  0.1947  0.5301  0.2729
15677TIP3    H168522   1.473   3.459  11.420 -3.0208 -0.6048  1.5961
15677TIP3    H268523   1.439   3.326  11.356  1.6354 -1.0753 -0.2825
15678TIP3   OH268524   1.242   0.550  15.899  0.0433 -0.1263 -0.0209
15678TIP3    H168525   1.217   0.461  15.926 -0.2195  0.2731  1.0985
15678TIP3    H268526   1.161   0.600  15.900  0.3714  0.4188  0.5809
15679TIP3   OH268527   4.654   0.290   2.623 -0.2232 -0.6117 -0.2669
15679TIP3    H168528   4.747   0.285   2.647 -0.1723  0.0230 -0.3275
15679TIP3    H268529   4.608   0.282   2.706 -0.0388  2.0683  0.1839
15680TIP3   OH268530   0.434   4.473  11.611 -0.4198  0.1702 -0.0318
15680TIP3    H168531   0.506   4.445  11.555 -0.6164 -1.0209  0.2851
15680TIP3    H268532   0.356   4.467  11.555 -0.6834 -1.4660  0.4599
15681TIP3   OH268533   0.475   5.350   2.557 -0.1021 -0.0757 -0.6574
15681TIP3    H168534   0.554   5.327   2.605 -1.0389  0.7474  1.4096
15681TIP3    H268535   0.502   5.355   2.466  2.0136 -0.6614 -0.1006
15682TIP3   OH268536   0.120   6.026   5.469 -0.2288 -0.4848 -0.2678
15682TIP3    H168537   0.048   6.004   5.409 -0.0392 -1.2644 -0.2235
15682TIP3    H268538   0.190   5.965   5.445 -0.5229 -1.5459  1.4642
15683TIP3   OH268539   0.289   0.739   3.907 -0.2095  0.6419  0.0292
15683TIP3    H168540   0.196   0.730   3.928  0.2314 -0.3601  1.7273
15683TIP3    H268541   0.333   0.733   3.991  1.4980 -0.4826 -0.8848
15684TIP3   OH268542   3.800   1.461   3.953 -0.1039  0.3299 -0.2758
15684TIP3    H168543   3.819   1.513   3.874  1.5684  1.0226  0.5405
15684TIP3    H268544   3.806   1.524   4.025 -0.4238 -0.5421  0.5288
15685TIP3   OH268545   0.633   2.518   3.488 -0.1206  0.6304 -0.1442
15685TIP3    H168546   0.699   2.558   3.546 -1.2463  2.4988 -0.0533
15685TIP3    H268547   0.579   2.465   3.546  0.3740  0.3295  0.0451
15686TIP3   OH268548   3.513   5.573  11.592  0.0159  0.1007  0.2782
15686TIP3    H168549   3.498   5.660  11.629 -0.4650  0.7022 -1.2405
15686TIP3    H268550   3.558   5.590  11.509 -1.3996 -0.9561 -0.7686
15687TIP3   OH268551   6.790   6.248   3.940  0.2788 -0.0138  0.2646
15687TIP3    H168552   6.746   6.236   3.856  0.8799  1.0370 -0.2192
15687TIP3    H268553   6.874   6.287   3.918  0.0620  1.1746  1.4090
15688TIP3   OH268554   1.823   6.812   5.462 -0.2419 -0.1010 -0.3070
15688TIP3    H168555   1.907   6.777   5.491  1.2650  1.7789 -2.0495
15688TIP3    H268556   1.828   6.807   5.366 -3.1078 -1.9917 -0.4635
15689TIP3   OH268557   3.529   2.690   5.328 -0.3361  0.3412  0.2225
15689TIP3    H168558   3.488   2.684   5.241 -0.4524  1.2670  0.2008
15689TIP3    H268559   3.509   2.607   5.370  1.2805 -0.8933 -1.3068
15690TIP3   OH268560   3.119   5.234   3.458  0.5124  0.1693  0.2496
15690TIP3    H168561   3.133   5.329   3.460  0.4926  0.1695  0.5019
15690TIP3    H268562   3.191   5.200   3.406  0.6844  0.2980  0.4000
15691TIP3   OH268563   0.778   2.505  16.743 -0.2231  0.1305 -0.4251
15691TIP3    H168564   0.700   2.516  16.689  0.4256  0.1279 -1.3985
15691TIP3    H268565   0.849   2.542  16.690  0.0427  3.0058  1.6761
15692TIP3   OH268566   4.254   3.617   3.191 -0.4799  0.2062 -0.3188
15692TIP3    H168567   4.279   3.646   3.279 -0.5387  2.7745 -1.0685
15692TIP3    H268568   4.333   3.573   3.158  0.7656  2.2063 -0.1725
15693TIP3   OH268569   0.486   6.783   4.084 -0.1913  0.3426  0.4869
15693TIP3    H168570   0.528   6.703   4.052  0.9086  0.7846  0.7938
15693TIP3    H268571   0.460   6.830   4.005 -0.4701 -0.1137  0.3002
15694TIP3   OH268572   6.485   5.429   4.035 -0.0688 -0.6121  0.1229
15694TIP3    H168573   6.442   5.347   4.058  0.7287 -1.0126  0.2329
15694TIP3    H268574   6.537   5.451   4.112 -1.4688  0.8279  0.7014
15695TIP3   OH268575   0.256   4.983  13.898 -0.5990 -0.4673 -0.1334
15695TIP3    H168576   0.286   5.074  13.897  0.7611 -0.8935 -1.1047
15695TIP3    H268577   0.197   4.977  13.823  0.2846 -0.6673 -0.8315
15696TIP3   OH268578   1.453   6.661  13.904  0.3831  0.2640 -0.1714
15696TIP3    H168579   1.472   6.755  13.902 -0.8665  0.6556  2.2204
15696TIP3    H268580   1.357   6.656  13.903  0.4246 -0.9364  0.3470
15697TIP3   OH268581   1.633   5.329  12.142  0.4147  0.1596  0.1092
15697TIP3    H168582   1.649   5.369  12.227  0.4274  2.4938 -0.9188
15697TIP3    H268583   1.650   5.399  12.079  0.0800 -1.3973 -1.8099
15698TIP3   OH268584   3.056   2.439  15.869  0.2744 -0.7720 -0.1025
15698TIP3    H168585   3.080   2.351  15.837 -1.4511 -0.3916 -2.7446
15698TIP3    H268586   3.103   2.499  15.810 -0.2231  0.0432  0.3200
15699TIP3   OH268587   1.814   3.519  13.101 -0.1323  0.0160 -0.0605
15699TIP3    H168588   1.875   3.455  13.138  0.0323  0.6642  0.8244
15699TIP3    H268589   1.827   3.513  13.007  1.5637  0.3857  0.1157
15700TIP3   OH268590   1.135   4.268  17.194 -0.1132  0.2127 -0.1662
15700TIP3    H168591   1.174   4.337  17.247  1.9284 -0.6701 -0.4181
15700TIP3    H268592   1.210   4.215  17.166 -1.2928 -0.3447 -2.4882
15701TIP3   OH268593   5.741   1.426  13.980 -0.0810  0.3485  0.0983
15701TIP3    H168594   5.776   1.462  13.899 -1.2336  0.3837 -0.4113
15701TIP3    H268595   5.791   1.469  14.049  1.3788 -0.1759 -0.5964
15702TIP3   OH268596   1.939   4.347  12.218  0.7222  0.1349  0.5356
15702TIP3    H168597   1.890   4.418  12.259  0.8988 -0.6821  2.2177
15702TIP3    H268598   1.873   4.282  12.195  0.6323  0.5556 -0.4769
15703TIP3   OH268599   2.931   5.062  15.625  0.6598  0.3666 -0.1956
15703TIP3    H168600   2.902   5.099  15.708  1.9983  1.4706 -0.1812
15703TIP3    H268601   2.853   5.020  15.589 -0.1658  0.6426  1.1905
15704TIP3   OH268602   5.019   1.314   4.407  0.3338 -0.4893 -0.0409
15704TIP3    H168603   4.991   1.365   4.483  2.9577 -2.0534  2.1436
15704TIP3    H268604   5.005   1.223   4.433  1.2200 -1.0676 -1.4842
15705TIP3   OH268605   2.712   5.853  15.111  0.0986 -0.3357  0.2427
15705TIP3    H168606   2.659   5.866  15.189 -0.3115  1.3274 -0.2728
15705TIP3    H268607   2.765   5.932  15.104  0.2335 -0.5149 -1.0775
15706TIP3   OH268608   5.877   2.192   0.661  0.3063  0.4584 -0.0127
15706TIP3    H168609   5.912   2.261   0.717 -0.6015  0.6318  0.3592
15706TIP3    H268610   5.817   2.143   0.718  0.2360 -0.0707 -0.5238
15707TIP3   OH268611   5.329   4.586  16.812  0.5191  0.4534 -0.6517
15707TIP3    H168612   5.373   4.609  16.730 -0.1945  2.1249 -0.6131
15707TIP3    H268613   5.236   4.595  16.791  0.3262  0.5956  0.2543
15708TIP3   OH268614   4.629   1.217  13.249 -0.0880 -0.0539 -0.6490
15708TIP3    H168615   4.643   1.209  13.155  1.7279 -0.4633 -0.3762
15708TIP3    H268616   4.663   1.304  13.271 -0.3713 -0.0193 -0.3346
15709TIP3   OH268617   1.748   1.692  16.043 -0.1374  0.5592  0.7035
15709TIP3    H168618   1.795   1.668  16.122 -0.7251  1.2346  1.2691
15709TIP3    H268619   1.689   1.619  16.027  0.4057  0.1502  0.5375
15710TIP3   OH268620   1.387   1.301   0.603 -0.0191  1.0064  0.4352
15710TIP3    H168621   1.473   1.342   0.599  1.3202 -1.5750  0.7862
15710TIP3    H268622   1.400   1.223   0.657 -2.8374  1.0539  1.3796
15711TIP3   OH268623   5.914   1.448  10.577  0.4003  0.3685 -0.4393
15711TIP3    H168624   6.006   1.452  10.555  0.3938  1.8590 -0.3575
15711TIP3    H268625   5.898   1.530  10.625 -0.4804 -0.8346  1.4529
15712TIP3   OH268626   4.612   6.001   2.964 -0.0999 -0.1086  1.0705
15712TIP3    H168627   4.686   6.007   3.024  1.2891  1.3748 -0.6442
15712TIP3    H268628   4.646   5.950   2.889 -0.9550  0.1985  0.4561
15713TIP3   OH268629   5.021   5.266   5.408  0.1702 -0.1389 -0.4567
15713TIP3    H168630   5.082   5.192   5.408 -0.5779 -0.8531  2.3272
15713TIP3    H268631   4.994   5.274   5.316 -1.8933 -5.1942 -0.5890
15714TIP3   OH268632   2.825   0.248   0.085  0.4329  0.3978  0.4826
15714TIP3    H168633   2.902   0.193   0.100  0.7628  0.0671 -2.0239
15714TIP3    H268634   2.758   0.186   0.056  0.6660  1.1899 -1.9286
15715TIP3   OH268635   3.424   6.143  10.842 -0.9423  0.3325 -0.4341
15715TIP3    H168636   3.473   6.068  10.808 -0.3180 -1.0773  3.1132
15715TIP3    H268637   3.489   6.213  10.849 -0.5009 -0.1286  0.1116
15716TIP3   OH268638   1.967   4.308  14.030  0.3826 -0.3625  0.1337
15716TIP3    H168639   1.939   4.383  13.977  0.4663 -0.7815 -0.5199
15716TIP3    H268640   2.063   4.315  14.031  0.3363  0.7585  1.9066
15717TIP3   OH268641   2.409   1.369  14.152 -0.3405  0.4012 -0.0574
15717TIP3    H168642   2.449   1.455  14.139  0.8319 -0.3634 -1.8644
15717TIP3    H268643   2.449   1.335  14.232  1.6582  0.2113 -1.1017
15718TIP3   OH268644   2.167   1.599  12.986 -0.3168 -0.2654  0.2681
15718TIP3    H168645   2.163   1.694  12.976 -1.6590 -0.1687  1.4745
15718TIP3    H268646   2.122   1.581  13.069 -1.1048 -2.0521 -0.4924
15719TIP3   OH268647   6.403   3.680   1.416 -0.0541 -0.2713  0.2493
15719TIP3    H168648   6.417   3.736   1.340  1.0242 -2.2616 -1.0937
15719TIP3    H268649   6.312   3.697   1.441 -0.7100 -0.1348 -1.9806
15720TIP3   OH268650   4.642   2.326  13.334  0.2564  0.3461  0.0369
15720TIP3    H168651   4.616   2.265  13.403  0.3132  1.2609  0.8991
15720TIP3    H268652   4.613   2.285  13.253  0.7781 -1.0856  0.5300
15721TIP3   OH268653   2.014   1.083  17.264  0.5122  0.1285 -0.3000
15721TIP3    H168654   2.067   1.008  17.290  0.6999  0.8466  1.5197
15721TIP3    H268655   2.066   1.128  17.199 -0.0809 -1.8842 -2.3070
15722TIP3   OH268656   3.654   6.358   5.208  0.1383 -0.0119 -0.5178
15722TIP3    H168657   3.645   6.317   5.122 -0.5330 -0.5316 -0.2086
15722TIP3    H268658   3.740   6.329   5.240  1.6309  2.3622 -2.1301
15723TIP3   OH268659   0.930   6.659   2.378 -0.5647  0.1525 -0.0376
15723TIP3    H168660   0.865   6.657   2.308 -0.1584  1.3057 -0.4706
15723TIP3    H268661   0.940   6.568   2.405 -0.7213 -0.3071 -1.4956
15724TIP3   OH268662   3.309   4.784  11.079  0.4536  0.0969  0.3678
15724TIP3    H168663   3.301   4.707  11.022  0.1446  1.5214 -1.6107
15724TIP3    H268664   3.234   4.776  11.139 -0.9450 -0.0020 -1.3060
15725TIP3   OH268665   0.040   2.138  14.606 -0.4115  1.1300 -0.3318
15725TIP3    H168666   0.086   2.094  14.678 -1.3879  2.9593  1.5066
15725TIP3    H268667   0.081   2.103  14.527  0.3762 -1.3406  1.0616
15726TIP3   OH268668   6.397   6.230   5.726 -0.0475 -0.4506  0.3959
15726TIP3    H168669   6.372   6.278   5.805  2.2265 -0.3845  1.1551
15726TIP3    H268670   6.334   6.258   5.660 -1.6659 -0.0642  2.0100
15727TIP3   OH268671   3.485   2.360  16.896 -0.2934 -0.0796 -0.1511
15727TIP3    H168672   3.496   2.435  16.836 -1.0643 -1.3109 -1.9269
15727TIP3    H268673   3.474   2.285  16.838 -1.5933 -1.2803  1.5496
15728TIP3   OH268674   4.575   1.180   0.472 -0.3726 -0.1939  0.5285
15728TIP3    H168675   4.494   1.194   0.520 -1.2243 -1.4833 -0.4731
15728TIP3    H268676   4.610   1.268   0.457 -3.1327  0.6890 -1.6062
15729TIP3   OH268677   2.783   1.048  12.980 -0.6588 -0.2681  0.0717
15729TIP3    H168678   2.739   0.967  12.952 -3.0192  0.4640  1.3414
15729TIP3    H268679   2.753   1.061  13.070  1.9436  0.5634  0.9195
15730TIP3   OH268680   1.115   3.242  16.773 -0.1465 -0.0224 -0.1474
15730TIP3    H168681   1.075   3.263  16.857  1.3842 -0.8578  0.8288
15730TIP3    H268682   1.100   3.148  16.761  0.9719 -0.2186 -0.0617
15731TIP3   OH268683   3.705   5.862  14.710 -0.2317 -0.3170  0.0814
15731TIP3    H168684   3.729   5.798  14.643 -1.3565 -1.9472  1.1590
15731TIP3    H268685   3.694   5.944  14.662  1.5415 -0.8325 -1.3002
15732TIP3   OH268686   5.617   6.548   4.561 -0.2643  0.5653  0.7162
15732TIP3    H168687   5.612   6.504   4.646  3.0197 -2.4130 -0.4030
15732TIP3    H268688   5.560   6.498   4.504 -0.3466  0.8642  0.5315
15733TIP3   OH268689   0.242   4.470   4.515  0.3297 -0.3240 -0.9876
15733TIP3    H168690   0.226   4.557   4.552 -0.1415 -0.2672 -1.3181
15733TIP3    H268691   0.216   4.478   4.424 -1.8558 -1.3986 -0.5326
15734TIP3   OH268692   4.957   4.163  11.275  0.4789 -0.5469  0.1979
15734TIP3    H168693   4.920   4.164  11.187  0.2020 -0.0011  0.3179
15734TIP3    H268694   4.926   4.082  11.313 -0.5882 -0.1001  0.2972
15735TIP3   OH268695   0.381   1.749  14.149  0.9433  0.4555  0.3827
15735TIP3    H168696   0.368   1.838  14.117  1.2643 -0.2281 -1.8669
15735TIP3    H268697   0.307   1.699  14.113  0.2421 -0.0310  2.4013
15736TIP3   OH268698   3.194   5.939  12.948 -0.5550  0.2584  0.2781
15736TIP3    H168699   3.165   6.021  12.909 -0.7994  0.0493  0.0081
15736TIP3    H268700   3.273   5.961  12.996  1.1999  0.1001 -2.3611
15737TIP3   OH268701   2.843   3.329  12.692  0.7071 -0.7748  0.1624
15737TIP3    H168702   2.756   3.291  12.676  1.3736 -1.8103 -1.3607
15737TIP3    H268703   2.834   3.378  12.773 -1.7268  0.4910 -0.7549
15738TIP3   OH268704   1.373   6.807  13.053  0.1048  0.3681 -0.0794
15738TIP3    H168705   1.465   6.825  13.036  0.3308  1.1556  1.7080
15738TIP3    H268706   1.362   6.822  13.147 -1.2924 -2.2449  0.2757
15739TIP3   OH268707   1.665   4.090  13.425  0.4107  0.2583  0.3066
15739TIP3    H168708   1.675   4.186  13.427 -0.1868  0.3638  3.3872
15739TIP3    H268709   1.573   4.076  13.444  1.0517 -0.8836  2.9738
15740TIP3   OH268710   5.141   3.942   5.022 -0.1696 -0.2762  0.1602
15740TIP3    H168711   5.055   3.953   4.982 -0.3396  1.2296  0.8498
15740TIP3    H268712   5.128   3.970   5.113  1.7515  3.4307 -0.5082
15741TIP3   OH268713   4.667   5.176   1.863  0.0230 -0.2683  0.0055
15741TIP3    H168714   4.609   5.230   1.810 -0.0486 -0.4919 -0.1436
15741TIP3    H268715   4.754   5.189   1.824  0.1861  0.5543  0.6092
15742TIP3   OH268716   0.249   5.343  15.570  0.6815 -0.5728  0.3946
15742TIP3    H168717   0.237   5.360  15.476  1.6602 -0.3526  0.2993
15742TIP3    H268718   0.339   5.311  15.577  0.7764 -0.1297  1.3220
15743TIP3   OH268719   6.450   5.399   0.107 -0.1983 -1.0638  0.7625
15743TIP3    H168720   6.410   5.485   0.100 -0.5420 -1.3416 -1.7932
15743TIP3    H268721   6.486   5.395   0.196 -3.3627  0.2652  2.2433
15744TIP3   OH268722   3.040   2.507   3.185 -0.0943  0.2820 -0.2825
15744TIP3    H168723   3.043   2.428   3.132  1.5475  0.9276 -1.2051
15744TIP3    H268724   3.100   2.490   3.257 -1.1924 -0.0149  0.5970
15745TIP3   OH268725   6.690   2.938   0.077  0.0744 -0.4819  0.6443
15745TIP3    H168726   6.649   2.884   0.009 -1.0585 -1.5948  2.1480
15745TIP3    H268727   6.618   2.961   0.136  0.7326  1.8485  0.6144
15746TIP3   OH268728   0.403   1.311  10.913  0.2609  0.3396  0.7047
15746TIP3    H168729   0.429   1.351  10.831 -1.9292 -0.7921 -0.6330
15746TIP3    H268730   0.357   1.231  10.888  1.2196 -1.1027  3.1181
15747TIP3   OH268731   2.196   3.633  13.637 -0.2490 -0.2872  0.0999
15747TIP3    H168732   2.216   3.542  13.656 -1.6630 -0.4811  0.8178
15747TIP3    H268733   2.274   3.681  13.665  0.1113 -1.1810  0.6802
15748TIP3   OH268734   3.584   4.853  16.940  0.1030  0.2013  0.0161
15748TIP3    H168735   3.566   4.867  16.848 -0.2468  0.1069  0.0697
15748TIP3    H268736   3.515   4.792  16.969  0.0037  0.5034  0.4208
15749TIP3   OH268737   1.136   2.961   5.842 -0.3535  0.8759 -0.4379
15749TIP3    H168738   1.183   3.041   5.864  2.5299 -1.0104  0.9582
15749TIP3    H268739   1.147   2.904   5.918 -1.6562 -1.1250 -1.6198
15750TIP3   OH268740   0.298   2.758  15.797 -0.1019 -0.2900  0.1414
15750TIP3    H168741   0.293   2.764  15.702 -1.0244 -0.6231  0.1610
15750TIP3    H268742   0.340   2.674  15.814 -0.9055 -0.7224  0.0308
15751TIP3   OH268743   0.207   1.337   1.625 -0.0836 -0.8291  0.4652
15751TIP3    H168744   0.268   1.410   1.614 -0.3910 -0.5144  0.8150
15751TIP3    H268745   0.262   1.259   1.625  0.2900 -0.5674  0.4836
15752TIP3   OH268746   3.323   3.833  12.654 -0.4753 -0.0328 -0.3081
15752TIP3    H168747   3.365   3.892  12.716  0.7560 -1.5142  0.3515
15752TIP3    H268748   3.386   3.824  12.583 -0.4293 -0.8782 -0.1749
15753TIP3   OH268749   1.011   6.000   5.434  0.1450 -0.2047 -0.3820
15753TIP3    H168750   1.064   6.071   5.398 -0.8399  0.4474 -0.5953
15753TIP3    H268751   0.928   6.042   5.458 -0.5131 -1.3080 -0.6429
15754TIP3   OH268752   2.443   2.958  11.225  0.8998  0.4789 -0.1685
15754TIP3    H168753   2.456   3.045  11.187 -0.7307  0.2870 -1.2283
15754TIP3    H268754   2.383   2.972  11.298  0.3822  0.1979 -0.5390
15755TIP3   OH268755   4.112   2.555   3.778 -0.5142 -0.2087 -0.1298
15755TIP3    H168756   4.103   2.622   3.846 -1.0084 -0.9024  0.5097
15755TIP3    H268757   4.081   2.474   3.820 -0.7983 -0.6584 -1.1800
15756TIP3   OH268758   0.703   1.848   1.221  0.1995  0.6474 -0.5044
15756TIP3    H168759   0.748   1.809   1.146 -0.8490 -1.0997 -0.2805
15756TIP3    H268760   0.692   1.775   1.283 -2.3277  1.1297 -0.2829
15757TIP3   OH268761   4.138   2.626   4.551  0.4684 -0.3252  0.1809
15757TIP3    H168762   4.160   2.719   4.551  1.2189 -0.4231  2.8342
15757TIP3    H268763   4.213   2.583   4.508  0.9561  0.1711  0.5197
15758TIP3   OH268764   2.582   0.942  12.410  0.4830 -0.2578 -0.5527
15758TIP3    H168765   2.560   0.871  12.470  1.2426 -2.1835 -2.4190
15758TIP3    H268766   2.671   0.966  12.432  0.1409  0.3091  0.2426
15759TIP3   OH268767   1.867   3.117  10.748 -0.7162 -0.5462  0.2089
15759TIP3    H168768   1.939   3.120  10.685 -1.6922  0.4899 -0.9145
15759TIP3    H268769   1.873   3.030  10.788  0.3745 -0.9530 -0.7814
15760TIP3   OH268770   0.505   5.747   3.409  0.1987  0.1948  0.2337
15760TIP3    H168771   0.510   5.713   3.320 -2.2299 -3.1124  1.1610
15760TIP3    H268772   0.590   5.726   3.447  0.2306 -1.0703 -0.4842
15761TIP3   OH268773   1.469   3.742   3.559 -0.5337  0.1026  0.5237
15761TIP3    H168774   1.518   3.814   3.598  0.1392 -0.3705  0.5599
15761TIP3    H268775   1.406   3.785   3.500  0.0541  0.7019  0.3276
15762TIP3   OH268776   6.629   2.846  14.568 -0.1128  0.3100 -0.0384
15762TIP3    H168777   6.565   2.811  14.629  1.1738 -0.9399  0.6662
15762TIP3    H268778   6.668   2.769  14.527  0.5744  1.0532 -0.8338
15763TIP3   OH268779   5.204   3.515   1.888  0.0818 -0.1739 -0.3497
15763TIP3    H168780   5.233   3.479   1.971  0.5009 -1.7900 -1.1577
15763TIP3    H268781   5.141   3.584   1.912  1.8671  0.9632  1.3304
15764TIP3   OH268782   2.441   6.529   5.269  0.1449  0.1450 -0.1108
15764TIP3    H168783   2.488   6.457   5.226  0.3301  0.2955 -0.1595
15764TIP3    H268784   2.461   6.606   5.216 -0.8068  0.0708 -0.6031
15765TIP3   OH268785   5.121   4.392  14.669  0.6927 -0.1963  0.3761
15765TIP3    H168786   5.079   4.326  14.725 -0.6956  0.4370  0.1336
15765TIP3    H268787   5.147   4.344  14.591  1.5149 -0.8383  1.0183
15766TIP3   OH268788   1.585   4.262   5.427 -0.4410 -0.5048 -0.0334
15766TIP3    H168789   1.568   4.291   5.516  1.9061 -0.3634  0.4064
15766TIP3    H268790   1.670   4.299   5.404 -0.0344 -2.2075 -1.5741
15767TIP3   OH268791   5.496   3.920  14.804 -0.4127 -0.1674 -0.1296
15767TIP3    H168792   5.421   3.879  14.760 -0.7580  0.2661  0.0468
15767TIP3    H268793   5.572   3.872  14.771 -0.8592 -1.4412  0.6221
15768TIP3   OH268794   0.676   6.455   2.046 -0.1713  0.7217  0.2202
15768TIP3    H168795   0.677   6.445   2.141 -0.4034  0.7091  0.2243
15768TIP3    H268796   0.609   6.393   2.017  2.1560 -1.7508 -0.2607
15769TIP3   OH268797   2.888   4.863   3.014  0.3708  0.8801 -1.2188
15769TIP3    H168798   2.965   4.894   3.060  0.8293 -1.5337 -0.1824
15769TIP3    H268799   2.819   4.861   3.080  0.0081  0.9624 -1.5874
15770TIP3   OH268800   2.739   1.308  14.156  0.9200 -0.1130 -0.8840
15770TIP3    H168801   2.736   1.256  14.236  4.3255 -0.3037 -0.7540
15770TIP3    H268802   2.712   1.396  14.183 -0.3806 -0.7285 -0.1083
15771TIP3   OH268803   4.787   2.728   1.261  0.0712  0.1191  0.4199
15771TIP3    H168804   4.721   2.737   1.193 -0.1626 -0.7892  0.5035
15771TIP3    H268805   4.834   2.811   1.262 -0.9288  0.6910  0.2042
15772TIP3   OH268806   6.055   4.515   4.273 -0.0974 -0.3645 -0.3807
15772TIP3    H168807   6.036   4.421   4.272 -2.7362  0.0873 -0.1026
15772TIP3    H268808   6.068   4.536   4.365 -0.2817 -0.3315 -0.3617
15773TIP3   OH268809   0.676   1.931  12.264 -0.6318  0.4945  0.1683
15773TIP3    H168810   0.669   1.955  12.356 -2.1013 -0.2055  0.2792
15773TIP3    H268811   0.680   1.835  12.264  2.3023  0.5437 -0.3884
15774TIP3   OH268812   5.630   0.830  13.793 -0.4530  0.1197 -0.3349
15774TIP3    H168813   5.611   0.911  13.746  0.6327  1.1079  0.8536
15774TIP3    H268814   5.571   0.832  13.868  1.0620  0.9141  0.8690
15775TIP3   OH268815   2.459   3.363  12.398 -0.2023  0.0483  0.0378
15775TIP3    H168816   2.420   3.297  12.455 -0.7392 -0.8122 -1.2854
15775TIP3    H268817   2.449   3.446  12.446 -1.2147 -0.5456  0.8842
15776TIP3   OH268818   6.478   2.239   1.775 -0.5673 -0.1439  0.1855
15776TIP3    H168819   6.532   2.296   1.831  1.0095 -1.2258 -0.1565
15776TIP3    H268820   6.430   2.184   1.837 -0.2973 -0.0272  0.5080
15777TIP3   OH268821   4.881   1.564  16.567 -0.0828 -0.5465  0.0933
15777TIP3    H168822   4.861   1.560  16.661 -1.0752 -1.3009 -0.1321
15777TIP3    H268823   4.795   1.570  16.525  0.3828  0.4107 -0.7432
15778TIP3   OH268824   6.055   6.380  15.936 -0.0812 -0.0186  0.0553
15778TIP3    H168825   6.032   6.365  16.027  0.7927  0.3209  0.3360
15778TIP3    H268826   6.036   6.297  15.893  2.0100 -1.0940  1.0613
15779TIP3   OH268827   5.103   4.818  13.501  0.5550 -0.5234 -0.3551
15779TIP3    H168828   5.173   4.759  13.470  2.5969  1.5374  0.1165
15779TIP3    H268829   5.104   4.809  13.596  0.1309 -0.4887 -0.3444
15780TIP3   OH268830   5.919   5.592  13.912 -0.3494 -0.3795 -0.0975
15780TIP3    H168831   5.941   5.667  13.967  0.5059 -1.9055  1.7514
15780TIP3    H268832   5.898   5.630  13.827  0.7473  1.8769  0.5693
15781TIP3   OH268833   3.848   6.154  13.166 -0.0901 -0.2658 -0.1454
15781TIP3    H168834   3.911   6.198  13.223  0.3056 -0.3010 -0.5424
15781TIP3    H268835   3.867   6.060  13.177 -0.2827 -0.2901 -0.0280
15782TIP3   OH268836   3.536   3.809  16.137 -0.2894  0.7851  0.2810
15782TIP3    H168837   3.554   3.735  16.194  0.5604  0.0931 -0.8522
15782TIP3    H268838   3.441   3.817  16.138 -0.5669 -1.5083 -0.9999
15783TIP3   OH268839   4.591   2.769  15.384  0.0395  0.4129 -0.0059
15783TIP3    H168840   4.657   2.760  15.453 -1.7141 -2.3220  1.4449
15783TIP3    H268841   4.626   2.718  15.311  0.1792  0.1806  0.2241
15784TIP3   OH268842   6.366   3.632   4.977 -0.4304  0.2699  0.3141
15784TIP3    H168843   6.298   3.685   5.019  0.8337  1.9364  0.3773
15784TIP3    H268844   6.438   3.631   5.040  0.2109 -0.1140 -0.4014
15785TIP3   OH268845   4.036   2.245   4.142  0.6529  0.1482 -0.0504
15785TIP3    H168846   4.031   2.307   4.215 -0.0572  0.5274 -0.4195
15785TIP3    H268847   4.062   2.163   4.184  0.0467  0.3078  0.6742
15786TIP3   OH268848   0.514   1.140   4.161  0.1972  0.3393 -0.4940
15786TIP3    H168849   0.560   1.111   4.239 -0.5260  1.2938  0.3306
15786TIP3    H268850   0.421   1.134   4.184 -0.0535 -0.1484 -1.5790
15787TIP3   OH268851   3.596   3.149  17.218  0.3788 -0.1565  0.4845
15787TIP3    H168852   3.500   3.138  17.221  0.1957  1.4020  1.7508
15787TIP3    H268853   3.624   3.132  17.308  1.1879  0.2252  0.3067
15788TIP3   OH268854   6.452   2.518  13.593 -0.3033  0.4463  0.4451
15788TIP3    H168855   6.451   2.490  13.501 -0.7287 -1.5447  1.0096
15788TIP3    H268856   6.371   2.483  13.629 -0.5383  1.9203  1.4066
15789TIP3   OH268857   6.400   1.845   5.281 -0.4348 -0.0857 -0.5629
15789TIP3    H168858   6.485   1.879   5.309 -1.3313  3.6153 -1.7049
15789TIP3    H268859   6.360   1.811   5.361  0.5237  1.9391  0.8637
15790TIP3   OH268860   5.749   2.271   3.559 -0.0431  0.0752 -0.0202
15790TIP3    H168861   5.758   2.204   3.626 -2.0871 -0.1189  0.1205
15790TIP3    H268862   5.708   2.226   3.486 -0.7830  1.0082 -0.1918
15791TIP3   OH268863   6.575   6.215   2.729  0.3524 -0.2757  0.3911
15791TIP3    H168864   6.668   6.210   2.709  0.5686 -0.3765  1.3955
15791TIP3    H268865   6.558   6.308   2.744 -0.2832  0.1348 -2.3586
15792TIP3   OH268866   2.731   5.589  16.034 -0.6959 -0.0514  0.7110
15792TIP3    H168867   2.687   5.532  15.971 -0.1939 -0.0893  0.3816
15792TIP3    H268868   2.803   5.536  16.068  0.1818  0.5934 -0.0889
15793TIP3   OH268869   6.686   3.437   6.632 -0.7756  0.3119  0.0720
15793TIP3    H168870   6.754   3.401   6.689 -2.6336  0.2114  2.3952
15793TIP3    H268871   6.676   3.528   6.660 -0.7922  0.6657 -1.0463
15794TIP3   OH268872   2.173   0.709  16.839 -0.0396 -0.2803 -0.3759
15794TIP3    H168873   2.162   0.655  16.917  0.3812 -2.7086 -1.9127
15794TIP3    H268874   2.128   0.792  16.861 -0.0669 -0.9234  2.3325
15795TIP3   OH268875   1.973   3.256  16.433  0.1675 -0.5287 -0.3810
15795TIP3    H168876   1.902   3.301  16.387  0.8137  0.0943 -0.7915
15795TIP3    H268877   1.929   3.208  16.503 -0.6851 -0.3560 -0.7780
15796TIP3   OH268878   5.781   1.461  15.467 -0.3629  0.1756  0.2891
15796TIP3    H168879   5.697   1.500  15.494 -0.0404  1.1910 -0.1567
15796TIP3    H268880   5.756   1.385  15.415 -1.0024 -0.4869  1.5202
15797TIP3   OH268881   5.748   3.903  12.916  0.3311 -0.1073  0.5242
15797TIP3    H168882   5.842   3.892  12.909  0.2525 -0.8498  0.4729
15797TIP3    H268883   5.735   3.996  12.935  0.9610  0.4666 -1.5928
15798TIP3   OH268884   0.082   5.321   1.664  0.4837 -0.4650 -0.3394
15798TIP3    H168885   0.084   5.297   1.572  0.6039 -0.3611 -0.3634
15798TIP3    H268886  -0.005   5.359   1.677  0.3089 -0.8658 -0.3121
15799TIP3   OH268887   5.901   6.758  13.487 -0.1815  0.1306 -0.3218
15799TIP3    H168888   5.923   6.713  13.406 -0.2811  0.1851 -0.3796
15799TIP3    H268889   5.913   6.851  13.466  0.3222  0.1165 -0.1168
15800TIP3   OH268890   5.671   1.405   2.166 -0.0243 -0.1233  0.2197
15800TIP3    H168891   5.722   1.479   2.136  0.6933  0.2776  2.2345
15800TIP3    H268892   5.598   1.444   2.215 -0.3937 -0.7230  0.1669
15801TIP3   OH268893   3.027   5.408  13.260  0.2628 -0.6854 -0.1267
15801TIP3    H168894   3.041   5.320  13.225 -0.6066 -1.8687  2.2668
15801TIP3    H268895   3.102   5.424  13.316  0.3158  0.0360 -0.3899
15802TIP3   OH268896   2.231   3.336  12.868  0.8476 -0.0689 -0.5525
15802TIP3    H168897   2.316   3.344  12.911  0.5865  0.3405 -0.0955
15802TIP3    H268898   2.251   3.325  12.776  1.4257 -1.2253 -0.3029
15803TIP3   OH268899   6.010   3.118  14.287 -0.5071 -0.0493  0.0395
15803TIP3    H168900   6.037   3.026  14.290 -1.4407 -0.4477 -1.7709
15803TIP3    H268901   6.084   3.163  14.246 -0.1030 -0.0132  0.8029
15804TIP3   OH268902   4.796   5.156  11.824  0.3084  0.4714 -0.2135
15804TIP3    H168903   4.835   5.134  11.908  1.4766  0.3657 -0.7660
15804TIP3    H268904   4.779   5.072  11.782  0.3957  0.5343 -0.3763
15805TIP3   OH268905   3.005   0.603  16.027 -0.7425 -0.3104  0.0775
15805TIP3    H168906   3.022   0.614  16.121 -0.6470 -0.5558  0.0904
15805TIP3    H268907   2.938   0.669  16.007 -0.7404 -0.2354  0.3120
15806TIP3   OH268908   4.326   0.009  12.346  0.4305  0.1544 -0.4260
15806TIP3    H168909   4.420  -0.010  12.354  0.5676  1.1280  0.4285
15806TIP3    H268910   4.320   0.065  12.268  0.7322  1.0730  0.1905
15807TIP3   OH268911   2.751   5.824   2.226  0.5346 -0.6728  0.6659
15807TIP3    H168912   2.752   5.919   2.214 -1.1143 -0.6888  0.1374
15807TIP3    H268913   2.693   5.792   2.156  0.0132 -1.9337  1.6335
15808TIP3   OH268914   5.147   5.775   5.941 -0.0413 -0.4245  0.0686
15808TIP3    H168915   5.226   5.828   5.924 -0.5975  0.7286  0.9626
15808TIP3    H268916   5.130   5.786   6.034 -2.3492  0.9000 -0.4396
15809TIP3   OH268917   5.206   0.661  11.856  0.4820 -0.1561  0.1035
15809TIP3    H168918   5.294   0.624  11.850  0.4034 -0.2591 -0.4782
15809TIP3    H268919   5.181   0.647  11.947  0.4521 -1.5591 -0.0910
15810TIP3   OH268920   0.658   2.232   3.286  0.1821 -0.3726 -0.0430
15810TIP3    H168921   0.729   2.220   3.349  0.7222  0.2550 -0.5257
15810TIP3    H268922   0.584   2.262   3.338  0.7617  0.6004  0.2354
15811TIP3   OH268923   2.338   5.464   3.542 -0.4527  0.1366  0.5575
15811TIP3    H168924   2.401   5.535   3.549 -0.0861 -0.1708  0.3811
15811TIP3    H268925   2.307   5.450   3.631  0.4087 -0.3279  0.7960
15812TIP3   OH268926   0.362   0.794  11.338  0.0687 -0.3238  0.1863
15812TIP3    H168927   0.399   0.856  11.275 -1.4529  0.9394  0.4656
15812TIP3    H268928   0.352   0.713  11.288  2.6630 -0.6184 -0.0148
15813TIP3   OH268929   4.668   0.059  14.175 -0.0495  0.2654 -0.1646
15813TIP3    H168930   4.626   0.133  14.130  0.6614  1.0781  0.4841
15813TIP3    H268931   4.716   0.099  14.247 -1.9297 -1.0684  1.9678
15814TIP3   OH268932   5.081   5.638   5.708  0.3290 -0.0321 -0.5259
15814TIP3    H168933   4.992   5.610   5.733 -1.1709  2.0748 -3.0219
15814TIP3    H268934   5.115   5.682   5.786 -0.3921 -1.6314  0.7703
15815TIP3   OH268935   3.371   1.646   5.112  0.3518 -0.5633 -0.3916
15815TIP3    H168936   3.350   1.641   5.206  0.7998 -0.7533 -0.2971
15815TIP3    H268937   3.288   1.633   5.068 -0.1041  0.8600 -0.0079
15816TIP3   OH268938   1.662   3.922  15.111  0.4304 -0.1622 -0.4552
15816TIP3    H168939   1.621   4.008  15.125  0.4417 -0.4759  2.0152
15816TIP3    H268940   1.657   3.908  15.017 -2.0623  1.3371 -0.6442
15817TIP3   OH268941   4.880   4.672   1.779 -0.0023  0.3471  0.4587
15817TIP3    H168942   4.936   4.746   1.754  0.6561  0.5496  2.3730
15817TIP3    H268943   4.842   4.698   1.863 -0.9291 -0.9003  0.4519
15818TIP3   OH268944   5.221   4.901   4.855  0.2001 -0.0647 -0.2249
15818TIP3    H168945   5.235   4.911   4.949  0.0838  1.3377 -0.3344
15818TIP3    H268946   5.139   4.852   4.848 -0.8493  1.5226  0.4300
15819TIP3   OH268947   6.671   0.076   5.977  0.2079  0.3231  0.3864
15819TIP3    H168948   6.728   0.061   5.901  0.0590 -2.0402  0.6690
15819TIP3    H268949   6.583   0.084   5.939  0.3436  0.9141  0.1876
15820TIP3   OH268950   5.827   3.712  16.833  0.0566  0.1950  0.4040
15820TIP3    H168951   5.911   3.749  16.858  1.4283 -0.5001 -2.7539
15820TIP3    H268952   5.801   3.762  16.755 -1.6180 -0.7184  0.3345
15821TIP3   OH268953   3.771   4.942   1.090  0.2999 -0.0485 -0.0391
15821TIP3    H168954   3.774   4.940   0.994  0.5037 -0.3954 -0.0269
15821TIP3    H268955   3.803   5.029   1.113  0.8241 -0.1763 -0.2696
15822TIP3   OH268956   4.048   2.398   2.118  0.4011 -0.7065 -0.0192
15822TIP3    H168957   4.079   2.467   2.177  1.5428 -1.2765  0.0714
15822TIP3    H268958   3.966   2.367   2.157 -0.2280  0.7048 -0.1576
15823TIP3   OH268959   3.387   4.536  15.005 -0.1203  0.2901  0.2618
15823TIP3    H168960   3.302   4.561  14.971 -0.6766  0.6507  1.8627
15823TIP3    H268961   3.444   4.535  14.928 -1.4275  0.5877 -0.7411
15824TIP3   OH268962   0.194   2.066  12.225 -0.0710 -0.1417  0.1224
15824TIP3    H168963   0.173   2.148  12.269 -2.4669 -1.7379  2.2099
15824TIP3    H268964   0.164   2.078  12.135  3.3519  2.5835 -0.8543
15825TIP3   OH268965   4.555   2.711  13.955  0.1283  0.8859 -0.3899
15825TIP3    H168966   4.475   2.682  13.999  0.3484 -0.2187 -0.6957
15825TIP3    H268967   4.613   2.635  13.957  1.2699  1.7296  0.0245
15826TIP3   OH268968   0.212   4.187   4.405 -0.7091 -0.4198 -0.1286
15826TIP3    H168969   0.217   4.276   4.371  2.8297 -0.1672  0.6832
15826TIP3    H268970   0.249   4.133   4.336  0.9617 -0.6665  0.9030
15827TIP3   OH268971   3.634   2.935   0.740  0.1632  0.0126 -0.5803
15827TIP3    H168972   3.681   2.987   0.805 -0.7966 -0.6043  0.6677
15827TIP3    H268973   3.697   2.867   0.714 -0.1421 -1.1561  1.5012
15828TIP3   OH268974   6.803   4.546  11.465  0.0193 -0.3570 -0.5109
15828TIP3    H168975   6.811   4.495  11.546  0.2474 -0.2239 -0.4475
15828TIP3    H268976   6.892   4.577  11.447 -0.0620 -0.2373 -0.7154
15829TIP3   OH268977   5.678   1.749  14.441 -0.4366  0.3374  0.1052
15829TIP3    H168978   5.628   1.673  14.409 -2.2972  0.9836  1.3078
15829TIP3    H268979   5.664   1.816  14.374  1.2564 -0.3220 -0.9884
15830TIP3   OH268980   6.386   5.987  11.310  0.3777  0.0616 -0.3048
15830TIP3    H168981   6.443   6.040  11.254  2.4686 -2.0745 -0.3592
15830TIP3    H268982   6.416   6.006  11.399 -1.3435  1.6397  0.0055
15831TIP3   OH268983   3.492   0.365  12.814  0.1712 -0.1898  0.4296
15831TIP3    H168984   3.421   0.332  12.758  0.1860 -1.3618  1.0733
15831TIP3    H268985   3.571   0.355  12.760 -0.1826  1.6072 -0.4870
15832TIP3   OH268986   2.021   0.259   0.173 -0.7774 -0.2526 -0.1720
15832TIP3    H168987   1.997   0.314   0.247 -0.2757  1.7221 -1.4022
15832TIP3    H268988   1.946   0.265   0.113 -0.3876 -0.2756 -0.6678
15833TIP3   OH268989   0.786   0.222   3.495  0.2039 -0.4876  0.2436
15833TIP3    H168990   0.849   0.186   3.432  1.1393  1.4077  0.0129
15833TIP3    H268991   0.720   0.153   3.505  0.7467 -1.3841 -1.7783
15834TIP3   OH268992   5.591   2.635   6.140 -0.2534  0.3263 -0.0002
15834TIP3    H168993   5.633   2.550   6.154 -1.0584  0.4065  3.7816
15834TIP3    H268994   5.523   2.617   6.075  1.1124 -1.2903 -1.0983
15835TIP3   OH268995   0.307   5.105   5.426  1.0618  0.0530 -0.0191
15835TIP3    H168996   0.301   5.065   5.513  0.0441 -0.9830 -0.5257
15835TIP3    H268997   0.373   5.053   5.380  0.2498 -0.6561 -0.4436
15836TIP3   OH268998   2.138   3.267   0.779 -0.3032 -0.2433  0.2821
15836TIP3    H168999   2.166   3.193   0.833 -1.9221  0.1143  1.6994
15836TIP3    H269000   2.090   3.324   0.839 -0.4713  1.1760 -1.1291
15837TIP3   OH269001   0.303   6.626   5.379 -0.5757 -0.0987  0.4335
15837TIP3    H169002   0.385   6.608   5.426  1.6169 -0.5919 -3.1682
15837TIP3    H269003   0.282   6.543   5.336 -3.5165 -0.1850  1.8019
15838TIP3   OH269004   0.487   4.906   4.843  0.1337 -0.0644  0.1044
15838TIP3    H169005   0.553   4.845   4.811 -0.7653 -1.2539  0.4743
15838TIP3    H269006   0.465   4.875   4.930 -0.4551  0.6993  0.2382
15839TIP3   OH269007   6.460   0.036   2.409 -0.3668 -0.5531  0.0920
15839TIP3    H169008   6.420  -0.050   2.394 -0.6035 -0.5307  0.5934
15839TIP3    H269009   6.389   0.098   2.393 -1.0301 -0.5707  2.5391
15840TIP3   OH269010   0.166   1.734  15.049  0.9435 -0.2707 -0.6028
15840TIP3    H169011   0.232   1.673  15.080  2.2646 -0.0091 -2.7310
15840TIP3    H269012   0.083   1.687  15.057  1.4868 -0.9943  1.1022
15841TIP3   OH269013   0.548   0.026  17.032  0.1357  0.1818  0.4330
15841TIP3    H169014   0.485  -0.031  16.987  0.0411  0.8255 -0.2892
15841TIP3    H269015   0.629  -0.023  17.033  0.2042  0.2412 -0.6890
15842TIP3   OH269016   3.510   5.527   4.178  0.0999  0.3365  0.2214
15842TIP3    H169017   3.509   5.447   4.232 -1.2727  1.1522  1.4827
15842TIP3    H269018   3.568   5.506   4.105 -0.6023 -1.9986  0.2464
15843TIP3   OH269019   1.053   6.197  14.840 -0.1458  0.1818  0.2627
15843TIP3    H169020   0.989   6.153  14.783  0.0836  0.7582 -0.4553
15843TIP3    H269021   1.019   6.185  14.928 -0.1009 -1.4239  0.0908
15844TIP3   OH269022   1.726   2.997  12.450  0.3294 -0.1218 -0.2345
15844TIP3    H169023   1.651   2.946  12.419  0.7377 -0.3704 -0.8196
15844TIP3    H269024   1.756   3.045  12.373 -0.2114  1.2309  0.3526
15845TIP3   OH269025   5.269   6.229   5.798 -0.0824  0.1047 -0.1325
15845TIP3    H169026   5.304   6.305   5.753  0.1153 -0.7431 -1.4791
15845TIP3    H269027   5.259   6.256   5.889 -1.2176  2.1381 -0.8038
15846TIP3   OH269028   3.316   5.263  13.299  0.0386 -0.5401  0.1854
15846TIP3    H169029   3.359   5.306  13.373  0.9381 -2.7167  0.9929
15846TIP3    H269030   3.387   5.219  13.252 -0.5529  0.5405 -1.8621
15847TIP3   OH269031   6.780   5.716  11.907  0.4143  0.3189 -0.2160
15847TIP3    H169032   6.857   5.694  11.854  0.7527 -1.6778  1.0294
15847TIP3    H269033   6.817   5.751  11.988  0.1288 -1.8340  0.9128
15848TIP3   OH269034   1.678   4.583  16.845 -0.2108 -0.5491 -0.1373
15848TIP3    H169035   1.655   4.664  16.892 -0.1178 -0.2445 -0.6098
15848TIP3    H269036   1.655   4.513  16.906  0.5703 -0.1371  0.6489
15849TIP3   OH269037   2.072   0.510   2.735 -0.0663 -0.9783 -0.1074
15849TIP3    H169038   2.032   0.597   2.729 -2.0955 -1.8185  0.3998
15849TIP3    H269039   2.163   0.527   2.757  0.2310  1.0980 -2.4626
15850TIP3   OH269040   4.582   3.101   4.298  0.2987  0.0365  0.4368
15850TIP3    H169041   4.617   3.164   4.362  0.2579 -1.2375  1.7525
15850TIP3    H269042   4.659   3.052   4.268  0.4022  0.9699 -0.9547
15851TIP3   OH269043   4.212   0.769   4.844  0.7549 -0.2440 -0.2287
15851TIP3    H169044   4.228   0.689   4.794 -2.2442  0.1681 -2.1210
15851TIP3    H269045   4.200   0.740   4.934 -0.6902 -2.0418 -0.9477
15852TIP3   OH269046   1.367   2.603   6.453 -0.3333  0.2633  0.2603
15852TIP3    H169047   1.378   2.523   6.402  0.7253  1.1370 -0.9485
15852TIP3    H269048   1.274   2.603   6.476 -0.1263 -1.9132  1.3793
15853TIP3   OH269049   5.110   5.353   2.290  0.1887 -0.1576 -0.4262
15853TIP3    H169050   5.191   5.302   2.284  0.4777  0.2667 -0.1710
15853TIP3    H269051   5.064   5.336   2.208  2.2919  2.6122 -2.3339
15854TIP3   OH269052   5.633   3.547   2.743  0.3208 -0.1941  0.2155
15854TIP3    H169053   5.718   3.584   2.720  0.7872 -0.8274  0.8498
15854TIP3    H269054   5.599   3.605   2.811  0.4633 -0.2056  0.2975
15855TIP3   OH269055   5.495   6.113  12.466 -0.2761 -0.7782 -0.5451
15855TIP3    H169056   5.489   6.166  12.545  0.2037  0.3818 -1.2672
15855TIP3    H269057   5.404   6.088  12.448 -0.5453  0.0414 -0.3574
15856TIP3   OH269058   6.790   1.298  16.816 -0.5326 -0.9749 -0.2870
15856TIP3    H169059   6.844   1.287  16.894  0.1026 -2.1502 -0.8634
15856TIP3    H269060   6.819   1.381  16.777 -0.7060 -0.4944  0.5866
15857TIP3   OH269061   4.032   3.579  14.928 -0.5000  0.1563  0.3993
15857TIP3    H169062   4.037   3.498  14.977  2.0130 -0.5385 -0.8036
15857TIP3    H269063   3.981   3.558  14.850  2.3342 -1.2319 -1.2788
15858TIP3   OH269064   2.283   1.491  11.170 -0.4356  0.5577  0.6742
15858TIP3    H169065   2.237   1.527  11.245 -0.8854  0.1996  0.5767
15858TIP3    H269066   2.244   1.405  11.156  0.2150  0.2739  0.5402
15859TIP3   OH269067   6.132   4.929  11.852  0.1554 -0.3636 -0.5731
15859TIP3    H169068   6.039   4.920  11.831 -0.2206 -0.5168  0.9951
15859TIP3    H269069   6.133   4.970  11.938  1.4735 -2.2523  0.3919
15860TIP3   OH269070   4.392   1.407  15.548  0.4107 -0.1660  0.4985
15860TIP3    H169071   4.311   1.383  15.593 -0.6409  0.4982 -0.9459
15860TIP3    H269072   4.456   1.343  15.577 -0.5062 -0.4275  2.0384
15861TIP3   OH269073   6.350   0.007   5.345 -0.7502  0.1795  0.6676
15861TIP3    H169074   6.269   0.019   5.295 -0.2705 -0.8883 -0.4291
15861TIP3    H269075   6.346  -0.083   5.376  0.4034 -0.1970 -0.1837
15862TIP3   OH269076   0.004   2.556  14.897  0.1432 -0.1514 -0.2793
15862TIP3    H169077   0.055   2.504  14.959 -1.4621 -0.6696  0.6626
15862TIP3    H269078  -0.043   2.491  14.844 -0.9405  0.3189  0.0890
15863TIP3   OH269079   2.034   4.965   2.135  0.1751 -0.3909 -0.4394
15863TIP3    H169080   2.110   4.930   2.182  0.2823  1.6848  1.0545
15863TIP3    H269081   1.959   4.928   2.182  0.2670 -0.1916 -0.1372
15864TIP3   OH269082   5.241   3.786   6.551 -0.3566 -0.6522 -0.1189
15864TIP3    H169083   5.234   3.878   6.528 -1.4361 -1.1019 -1.7811
15864TIP3    H269084   5.181   3.775   6.625  1.3181  0.3339  1.4737
15865TIP3   OH269085   5.740   6.498  11.953  0.3923 -0.1499  0.3976
15865TIP3    H169086   5.665   6.511  12.010  0.4835 -1.1160  0.7529
15865TIP3    H269087   5.733   6.407  11.924  2.5016 -0.9233  2.0394
15866TIP3   OH269088   2.971   2.251  17.026  0.6891  0.0655  0.1653
15866TIP3    H169089   2.973   2.335  16.980  2.8801 -0.5560 -1.0034
15866TIP3    H269090   3.052   2.249  17.076 -0.0799 -0.7270  1.4570
15867TIP3   OH269091   3.737   6.323   1.204  0.8089 -0.6022 -0.5595
15867TIP3    H169092   3.683   6.309   1.281  0.4227  1.1416 -0.4924
15867TIP3    H269093   3.827   6.325   1.238  0.6125  0.6201 -0.0555
15868TIP3   OH269094   6.219   4.305  15.204 -0.3054 -0.0467 -0.1576
15868TIP3    H169095   6.255   4.217  15.210  0.2517  0.1005 -1.1652
15868TIP3    H269096   6.257   4.342  15.124 -1.0973  0.8492 -0.1464
15869TIP3   OH269097   1.497   5.672   4.307 -0.3963 -0.6515  0.3169
15869TIP3    H169098   1.516   5.632   4.222  1.2869 -0.5207  0.5977
15869TIP3    H269099   1.480   5.764   4.286  1.7550 -0.2078  0.2217
15870TIP3   OH269100   6.433   2.413  16.914  0.0531  0.3544  0.3481
15870TIP3    H169101   6.388   2.338  16.876  0.9217 -1.6253  2.9689
15870TIP3    H269102   6.363   2.467  16.952 -0.3660 -1.2117  1.8930
15871TIP3   OH269103   3.861   3.456  13.617 -0.3426 -0.1275 -0.0633
15871TIP3    H169104   3.955   3.474  13.617 -0.5579  1.2293  1.5225
15871TIP3    H269105   3.855   3.364  13.641  0.5652 -0.2814 -0.3478
15872TIP3   OH269106   1.252   0.020  16.839 -0.1908  1.1392  0.1878
15872TIP3    H169107   1.265   0.109  16.807  1.6630  0.5775 -0.7241
15872TIP3    H269108   1.158   0.004  16.826 -0.2474  2.3810 -1.1611
15873TIP3   OH269109   0.108   5.672  16.211 -0.0453 -0.1642 -0.3620
15873TIP3    H169110   0.097   5.726  16.133  0.4954  2.0754  1.0219
15873TIP3    H269111   0.202   5.658  16.219  0.2027  1.9638  1.2968
15874TIP3   OH269112   3.368   1.770  11.486 -0.3660  0.4877 -0.3385
15874TIP3    H169113   3.429   1.802  11.552 -1.5089 -1.6384  1.9127
15874TIP3    H269114   3.423   1.751  11.410  1.6643 -0.4151  1.2506
15875TIP3   OH269115   0.297   5.429   4.447 -0.2119 -0.1280 -0.0097
15875TIP3    H169116   0.378   5.378   4.438 -0.9460 -1.4246  0.4034
15875TIP3    H269117   0.326   5.519   4.462  1.1371 -0.4461 -0.5719
15876TIP3   OH269118   1.717   0.400   2.694 -0.3645  0.7284 -0.1113
15876TIP3    H169119   1.684   0.483   2.726  0.2648  1.0707 -0.3269
15876TIP3    H269120   1.808   0.417   2.672 -1.1231  0.9566 -3.5964
15877TIP3   OH269121   4.950   3.382  11.867 -0.0228 -0.1955 -0.2877
15877TIP3    H169122   4.912   3.467  11.888 -0.1819 -0.3382  0.0161
15877TIP3    H269123   5.011   3.399  11.796  1.6963  0.5596  1.3056
15878TIP3   OH269124   4.916   2.355   4.637 -0.4737  0.1735  0.0821
15878TIP3    H169125   4.983   2.320   4.696 -0.9592 -0.8906  0.0106
15878TIP3    H269126   4.836   2.355   4.689 -0.8510 -0.5365 -0.4911
15879TIP3   OH269127   5.927   5.787  10.460 -0.2366 -0.2892  0.5191
15879TIP3    H169128   6.004   5.738  10.489  0.6049  0.8497  0.2383
15879TIP3    H269129   5.907   5.751  10.373  0.4843 -0.0168  0.2386
15880TIP3   OH269130   6.585   1.070  15.795  0.5411  0.2305  0.1243
15880TIP3    H169131   6.588   1.125  15.716  0.0613  0.9724  0.6072
15880TIP3    H269132   6.502   1.022  15.787  1.2989 -0.9777 -0.6480
15881TIP3   OH269133   4.411   5.883  10.711 -0.3700 -0.2285  0.0782
15881TIP3    H169134   4.389   5.934  10.788 -1.1113 -0.4996  0.0538
15881TIP3    H269135   4.494   5.840  10.733  0.0995  0.7274  0.2138
15882TIP3   OH269136   0.272   1.845  15.728  0.9776  0.5077 -0.1616
15882TIP3    H169137   0.252   1.935  15.753 -0.3365  0.4713 -1.0153
15882TIP3    H269138   0.196   1.816  15.678  1.3388 -1.1128  0.1693
15883TIP3   OH269139   5.743   5.794  15.332 -0.1880  0.1853 -0.5775
15883TIP3    H169140   5.721   5.701  15.335  0.2570  0.0751 -0.6262
15883TIP3    H269141   5.663   5.837  15.304  0.1707 -0.4022 -2.7314
15884TIP3   OH269142   2.990   0.086  11.482 -0.0784  0.2116  0.4944
15884TIP3    H169143   3.002   0.173  11.521 -1.8200  0.6815  0.0842
15884TIP3    H269144   3.048   0.087  11.405 -0.1329  1.0493  0.4525
15885TIP3   OH269145   0.070   1.060   6.604  0.3829  0.1271 -0.6994
15885TIP3    H169146  -0.024   1.045   6.604  0.2617  0.8394  0.1115
15885TIP3    H269147   0.102   1.016   6.683  0.9150 -1.1301 -1.5815
15886TIP3   OH269148   2.532   4.913   2.065 -0.5136 -0.2614  0.6261
15886TIP3    H169149   2.605   4.857   2.038 -1.1544 -0.7297 -0.1948
15886TIP3    H269150   2.488   4.935   1.982 -0.5173  1.1154  0.9780
15887TIP3   OH269151   5.056   5.167  16.671  0.8181 -0.4027  0.1370
15887TIP3    H169152   5.016   5.247  16.705  0.5145 -0.9814  1.1903
15887TIP3    H269153   5.079   5.116  16.749 -1.2609 -2.4638 -0.4807
15888TIP3   OH269154   5.493   5.683   2.807  0.0890  0.1832  0.1911
15888TIP3    H169155   5.400   5.699   2.797  0.1398  0.0372 -0.5955
15888TIP3    H269156   5.532   5.713   2.725  0.3760 -2.3998 -0.6985
15889TIP3   OH269157   2.778   1.522   0.174  0.2541  0.2055  0.2542
15889TIP3    H169158   2.784   1.603   0.225  0.0893 -0.9350  2.1706
15889TIP3    H269159   2.830   1.539   0.096  0.3577  2.0916  0.6868
15890TIP3   OH269160   6.526   5.609  14.683 -0.0018 -0.1093 -0.2703
15890TIP3    H169161   6.459   5.654  14.734  0.2671 -0.3205  0.2816
15890TIP3    H269162   6.607   5.655  14.705  0.1092 -0.1770 -0.5368
15891TIP3   OH269163   3.820   6.625   1.623  0.0981  0.2760 -0.4284
15891TIP3    H169164   3.790   6.570   1.550 -0.3927  0.8588 -0.6764
15891TIP3    H269165   3.821   6.566   1.698  1.1529 -0.4734 -1.0116
15892TIP3   OH269166   3.093   4.535  10.394  0.0746 -0.6504  0.3437
15892TIP3    H169167   3.021   4.518  10.455  0.7983 -0.2418  1.3360
15892TIP3    H269168   3.081   4.471  10.324 -0.9394 -0.9388  0.7677
15893TIP3   OH269169   3.735   6.507  17.227  0.5180  0.3979 -0.2062
15893TIP3    H169170   3.766   6.476  17.312 -0.0189  1.9255  0.5858
15893TIP3    H269171   3.644   6.478  17.223  0.8150 -0.5027 -0.7044
15894TIP3   OH269172   0.474   0.203  15.165 -0.1203  0.5919 -0.2382
15894TIP3    H169173   0.397   0.168  15.121 -0.6125  0.0288  1.0542
15894TIP3    H269174   0.445   0.287  15.201  0.4637  1.3637 -1.4981
15895TIP3   OH269175   2.605   4.525   3.935 -0.0287  0.2172 -0.1056
15895TIP3    H169176   2.538   4.523   3.866  0.5313 -1.2954 -0.6587
15895TIP3    H269177   2.560   4.492   4.013 -1.0979  3.3590  0.7726
15896TIP3   OH269178   6.734   3.833  14.429 -0.2848  0.0852 -0.1745
15896TIP3    H169179   6.731   3.740  14.405  2.0968  0.2765 -1.4185
15896TIP3    H269180   6.816   3.843  14.477 -1.2701  1.2804  1.3662
15897TIP3   OH269181   0.349   1.088   1.689  0.2634 -0.0276  0.3797
15897TIP3    H169182   0.386   1.000   1.678  0.7205 -0.1393  2.3352
15897TIP3    H269183   0.288   1.078   1.762  0.4424  1.3148  0.7303
15898TIP3   OH269184   4.836   6.286   1.400 -0.8709  0.0991  0.1942
15898TIP3    H169185   4.765   6.340   1.363  0.2885  0.9502 -0.9053
15898TIP3    H269186   4.905   6.289   1.333  0.8617  0.6646  1.9142
15899TIP3   OH269187   5.577   6.662  13.968 -0.1805  0.1918  0.3664
15899TIP3    H169188   5.641   6.674  14.038 -0.3868  2.3283  0.2506
15899TIP3    H269189   5.623   6.612  13.901  0.2314 -1.3157  1.6982
15900TIP3   OH269190   2.770   4.920  11.302  0.0518 -0.0126 -0.5369
15900TIP3    H169191   2.847   4.960  11.341  0.4037 -2.4028  1.4928
15900TIP3    H269192   2.696   4.965  11.343  0.3948  0.3940 -0.3621
15901TIP3   OH269193   2.466   4.171  15.529 -0.2398 -0.3109  0.1317
15901TIP3    H169194   2.394   4.234  15.537 -0.1789 -0.2440  0.1523
15901TIP3    H269195   2.449   4.125  15.447 -0.2884 -0.2733  0.1206
15902TIP3   OH269196   2.807   3.185   1.059 -0.2801  0.2270 -0.2304
15902TIP3    H169197   2.772   3.223   1.140  1.1082  1.4134 -0.1485
15902TIP3    H269198   2.764   3.236   0.989  0.4975  1.0173 -0.1525
15903TIP3   OH269199   3.590   2.581   3.249  0.1624  0.8812  0.2781
15903TIP3    H169200   3.598   2.618   3.338  0.4864  0.1574  0.5564
15903TIP3    H269201   3.636   2.497   3.254 -0.6744  0.3759 -0.3152
15904TIP3   OH269202   4.901   1.995   2.316 -0.1999 -0.0702 -0.0882
15904TIP3    H169203   4.913   1.946   2.398 -0.3522 -1.0642 -0.6484
15904TIP3    H269204   4.979   1.976   2.265  0.1384  0.9722  0.0226
15905TIP3   OH269205   1.652   3.449  14.993  0.0633  0.1363 -0.0413
15905TIP3    H169206   1.561   3.457  14.964 -0.6393 -1.0329  1.6654
15905TIP3    H269207   1.647   3.450  15.089  1.8719  0.1069  0.0960
15906TIP3   OH269208   5.589   1.519  14.375 -0.5740  0.1791  0.3906
15906TIP3    H169209   5.641   1.442  14.355 -0.2728  0.8463 -1.6743
15906TIP3    H269210   5.498   1.490  14.366 -0.4721  0.4015 -2.2491
15907TIP3   OH269211   2.799   1.621  12.086  0.1557 -0.3291 -0.5188
15907TIP3    H169212   2.851   1.666  12.019  0.8364 -2.1251 -1.2394
15907TIP3    H269213   2.741   1.563  12.038 -0.6892 -0.2609  0.3922
15908TIP3   OH269214   5.921   5.875   5.851 -0.8433 -0.1628  0.1441
15908TIP3    H169215   5.951   5.847   5.938  1.0939 -0.6297 -0.6156
15908TIP3    H269216   5.839   5.921   5.867  1.5836  3.8169  2.8463
15909TIP3   OH269217   0.550   2.038   1.340  0.3637 -0.3199  0.2590
15909TIP3    H169218   0.633   2.036   1.293 -0.4408  0.7009 -1.2979
15909TIP3    H269219   0.508   1.954   1.317  0.5094 -0.3657  0.1604
15910TIP3   OH269220   2.760   1.261  16.793 -0.2249 -0.2650 -0.9143
15910TIP3    H169221   2.798   1.198  16.732  0.7597 -1.2271  0.6125
15910TIP3    H269222   2.835   1.316  16.819 -0.2886 -0.8526  0.5648
15911TIP3   OH269223   3.077   0.100  16.030 -0.1804  0.2748  0.5470
15911TIP3    H169224   2.983   0.102  16.046  0.0958 -1.2417  2.9055
15911TIP3    H269225   3.115   0.140  16.108  1.1688 -0.7502  0.4533
15912TIP3   OH269226   3.417   2.867  15.215 -0.6863  0.2420 -0.2795
15912TIP3    H169227   3.400   2.961  15.205  0.3192  0.3669 -0.9671
15912TIP3    H269228   3.459   2.842  15.133 -1.1255 -0.8605 -0.1822
15913TIP3   OH269229   0.306   1.244  11.535  0.0840  0.5195 -0.5870
15913TIP3    H169230   0.308   1.338  11.518 -1.4910  0.6532 -0.2133
15913TIP3    H269231   0.268   1.206  11.456 -0.7622  0.3964 -0.1403
15914TIP3   OH269232   4.406   1.845  12.538 -0.2477  0.6329  0.6927
15914TIP3    H169233   4.497   1.871  12.554 -0.5786  1.2863  1.6410
15914TIP3    H269234   4.391   1.773  12.600 -0.0773 -0.1820 -0.1945
15915TIP3   OH269235   4.649   4.428   1.455  0.1477 -0.5243  0.5333
15915TIP3    H169236   4.718   4.491   1.477 -0.4910  0.6797 -0.7354
15915TIP3    H269237   4.614   4.399   1.539  0.0773  1.2757  1.1618
15916TIP3   OH269238   5.972   2.337  16.730  0.7335 -0.0140 -0.0553
15916TIP3    H169239   5.957   2.312  16.821  0.4661 -1.1993 -0.4010
15916TIP3    H269240   5.885   2.336  16.690  0.7717  1.0855 -0.1940
15917TIP3   OH269241   5.532   0.946  15.090 -0.7391  0.0241  0.1874
15917TIP3    H169242   5.468   0.945  15.018 -0.9073  1.0602  0.3123
15917TIP3    H269243   5.614   0.919  15.048 -1.1509 -0.8798 -0.0668
15918TIP3   OH269244   5.862   4.834  13.863  0.2236  0.2381  0.4170
15918TIP3    H169245   5.774   4.857  13.836  0.2570  0.4090  0.4534
15918TIP3    H269246   5.901   4.791  13.787  0.5569  1.3484 -0.0532
15919TIP3   OH269247   4.598   0.585   4.838  0.1813  0.4305 -0.0971
15919TIP3    H169248   4.528   0.524   4.861  0.2746 -0.3362 -1.6754
15919TIP3    H269249   4.655   0.587   4.915 -0.1450 -1.0481  0.2141
15920TIP3   OH269250   6.011   0.169  16.517  0.0881 -0.2879  0.2727
15920TIP3    H169251   5.993   0.135  16.604  1.2290  0.0955  0.6791
15920TIP3    H269252   6.095   0.215  16.526  1.2909 -1.9981 -1.4885
15921TIP3   OH269253   3.294   1.152  13.034  0.4057 -0.1282  0.1297
15921TIP3    H169254   3.339   1.211  12.974  2.0111 -0.3307  1.0939
15921TIP3    H269255   3.202   1.158  13.008  0.7229  1.6569 -0.7511
15922TIP3   OH269256   5.625   6.375   2.996 -0.1702 -0.0518  0.4090
15922TIP3    H169257   5.718   6.384   2.975 -0.4856 -0.1028 -1.0882
15922TIP3    H269258   5.607   6.450   3.053  0.5497  0.5811 -0.1647
15923TIP3   OH269259   0.677   4.912  17.125  0.3420  0.2581 -0.4440
15923TIP3    H169260   0.599   4.963  17.144 -0.5107 -1.5323  1.3222
15923TIP3    H269261   0.668   4.885  17.034 -0.1764  1.5046 -0.7833
15924TIP3   OH269262   0.711   1.132  14.085 -0.1030  0.2501 -0.4056
15924TIP3    H169263   0.626   1.140  14.041 -1.1938  0.1291  1.5542
15924TIP3    H269264   0.725   1.038  14.094 -0.1037  0.2755 -0.1239
15925TIP3   OH269265   0.803   1.264   3.580  0.6665  0.0082 -0.5796
15925TIP3    H169266   0.878   1.241   3.526  1.0432 -2.0257  0.7085
15925TIP3    H269267   0.728   1.254   3.521  1.3217  1.8829 -1.8250
15926TIP3   OH269268   3.871   5.421  11.564  0.2110 -0.2574  0.5509
15926TIP3    H169269   3.853   5.380  11.480 -0.3800 -0.1371  0.6137
15926TIP3    H269270   3.910   5.505  11.542  1.3123 -0.7859  0.4203
15927TIP3   OH269271   3.867   3.084   3.872 -0.5601 -0.3907  0.4337
15927TIP3    H169272   3.861   3.177   3.894  1.2163  0.1862 -1.2556
15927TIP3    H269273   3.776   3.059   3.854 -0.9324  1.4069 -0.4933
15928TIP3   OH269274   5.290   1.965   0.658 -0.0249  0.0621  0.4604
15928TIP3    H169275   5.363   1.958   0.597 -2.3283 -0.9307 -2.3982
15928TIP3    H269276   5.321   1.924   0.738  2.3557 -0.7496 -0.7954
15929TIP3   OH269277   0.788   1.986  16.234  0.0461 -0.1253 -0.3545
15929TIP3    H169278   0.844   1.982  16.311  0.8828  0.3381 -0.9238
15929TIP3    H269279   0.726   2.057  16.253 -0.8793 -1.1493  0.6026
15930TIP3   OH269280   0.542   6.046   4.806  0.3572 -0.3343  0.4330
15930TIP3    H169281   0.580   6.134   4.803 -0.9824  0.2623 -1.3336
15930TIP3    H269282   0.610   5.991   4.842  2.3583  0.9205 -1.2120
15931TIP3   OH269283   5.626   4.399  13.856  0.4950  0.3732 -0.0896
15931TIP3    H169284   5.718   4.383  13.878  0.0923 -1.7113  0.3233
15931TIP3    H269285   5.578   4.357  13.926 -0.8028  1.5398 -0.2457
15932TIP3   OH269286   0.823   2.170  15.820 -0.0747  0.1414 -0.4251
15932TIP3    H169287   0.846   2.087  15.861 -2.1244 -0.7084 -0.8833
15932TIP3    H269288   0.783   2.146  15.737  1.8454  1.7375 -1.9274
15933TIP3   OH269289   4.864   5.301  15.142 -0.0255 -0.3104 -0.2239
15933TIP3    H169290   4.778   5.294  15.102 -1.0015  0.6263  1.5885
15933TIP3    H269291   4.898   5.385  15.111 -1.2223  0.9200  1.5728
15934TIP3   OH269292   6.424   4.884  17.275 -0.1732 -0.2156 -0.5741
15934TIP3    H169293   6.398   4.976  17.276  0.3787 -0.0289  1.5839
15934TIP3    H269294   6.518   4.885  17.291  0.0016 -1.1458 -1.4248
15935TIP3   OH269295   6.283   6.129   1.847  0.4220  0.5399  0.0713
15935TIP3    H169296   6.202   6.089   1.876 -0.0872  0.9111 -0.8041
15935TIP3    H269297   6.256   6.193   1.781  1.5295 -0.1472 -1.0745
15936TIP3   OH269298   6.742   1.272  13.858 -0.7368 -0.1989 -0.2632
15936TIP3    H169299   6.701   1.202  13.908 -0.7942  0.2937  0.3823
15936TIP3    H269300   6.835   1.267  13.880 -1.1604  2.3645  2.9388
15937TIP3   OH269301   5.619   5.670  14.640 -0.2352 -0.6906  0.2767
15937TIP3    H169302   5.551   5.729  14.607 -0.4893 -0.8904  0.4387
15937TIP3    H269303   5.593   5.651  14.730  1.6651  1.6750  1.4191
15938TIP3   OH269304   5.217   3.364   0.013 -0.5323  0.1276 -0.6205
15938TIP3    H169305   5.148   3.424  -0.015 -1.3472 -0.4318  0.1413
15938TIP3    H269306   5.247   3.323  -0.069  0.7496  2.2366 -1.2979
15939TIP3   OH269307   5.842   3.875  13.369 -0.2219  0.2764  0.1497
15939TIP3    H169308   5.773   3.941  13.363  1.4241  2.1233  0.4718
15939TIP3    H269309   5.916   3.921  13.410  0.5989 -2.1218  1.6090
15940TIP3   OH269310   5.531   1.089  13.886 -0.2181 -0.2890 -0.0562
15940TIP3    H169311   5.574   1.093  13.801  0.5824  1.1249  0.3795
15940TIP3    H269312   5.437   1.091  13.867 -0.0448  1.1657 -0.8876
15941TIP3   OH269313   3.181   0.170   5.568  0.1300 -0.5051  0.4088
15941TIP3    H169314   3.181   0.087   5.614  2.0976 -1.6478 -1.4519
15941TIP3    H269315   3.131   0.154   5.487 -0.9429  0.6597  0.7926
15942TIP3   OH269316   2.310   5.589   0.583 -0.2745 -0.0557  0.2866
15942TIP3    H169317   2.290   5.678   0.553 -0.2270 -0.3976 -0.8024
15942TIP3    H269318   2.397   5.571   0.547 -0.9317 -1.1115 -0.8311
15943TIP3   OH269319   3.876   2.568   5.452 -0.3081 -0.1231  0.0321
15943TIP3    H169320   3.845   2.643   5.402 -0.6509 -1.1964 -1.4167
15943TIP3    H269321   3.851   2.587   5.542 -1.1700  1.0830 -0.4437
15944TIP3   OH269322   2.518   6.100   1.485 -0.1580  0.3687 -0.0589
15944TIP3    H169323   2.555   6.025   1.532 -2.0858 -0.2537  0.5507
15944TIP3    H269324   2.560   6.097   1.399  2.5062  0.7935  1.1259
15945TIP3   OH269325   5.862   2.789   1.912 -0.4969 -0.0041  0.0694
15945TIP3    H169326   5.930   2.848   1.879 -0.3244  0.8267  1.8030
15945TIP3    H269327   5.839   2.825   1.998 -1.6163 -1.5021  0.4281
15946TIP3   OH269328   3.362   0.125   2.628  0.1269  0.0053 -0.5645
15946TIP3    H169329   3.320   0.059   2.573 -0.1870 -0.1363 -0.1581
15946TIP3    H269330   3.365   0.085   2.715  0.0379  0.4848 -0.3388
15947TIP3   OH269331   4.111   5.879  12.667 -0.0237  0.4231 -0.2490
15947TIP3    H169332   4.201   5.912  12.670 -0.2375  1.0274 -0.3661
15947TIP3    H269333   4.117   5.791  12.703  0.5867  0.5250 -0.0842
15948TIP3   OH269334   2.352   6.137  12.432  0.6892 -0.5049 -0.0539
15948TIP3    H169335   2.383   6.216  12.389 -0.6830  0.4995  0.6917
15948TIP3    H269336   2.330   6.166  12.521 -1.0847 -1.3848 -0.1562
15949TIP3   OH269337   2.796   4.702   6.145 -0.7443 -1.0800  0.6367
15949TIP3    H169338   2.782   4.702   6.240 -1.2156 -1.9602  0.5833
15949TIP3    H269339   2.822   4.612   6.125  1.2195 -0.4579  0.1741
15950TIP3   OH269340   4.668   6.307  13.472  0.1342  0.0336  0.0853
15950TIP3    H169341   4.580   6.321  13.437  0.2831 -0.4444 -0.5012
15950TIP3    H269342   4.720   6.378  13.434 -0.3886  1.5175  1.9995
15951TIP3   OH269343   1.861   2.012   3.589 -0.5648  0.4550 -0.3916
15951TIP3    H169344   1.874   1.918   3.603  0.6050  0.7947  0.9733
15951TIP3    H269345   1.942   2.041   3.548 -0.5671  1.0163 -0.0047
15952TIP3   OH269346   5.503   4.838  16.324  0.6933 -0.1751 -0.2370
15952TIP3    H169347   5.584   4.870  16.284  1.1672 -0.3210  0.5766
15952TIP3    H269348   5.481   4.760  16.274  0.7784  0.1416 -0.7819
15953TIP3   OH269349   5.991   6.256  12.345 -0.4377  0.4235 -0.5255
15953TIP3    H169350   5.896   6.241  12.341 -0.3112 -0.4720 -0.3426
15953TIP3    H269351   6.000   6.335  12.400 -0.9419 -1.5036  2.5749
15954TIP3   OH269352   3.178   3.023  13.298 -0.0743 -0.0839  0.0618
15954TIP3    H169353   3.184   3.047  13.390  0.9254  2.0307 -0.4959
15954TIP3    H269354   3.260   2.978  13.279 -0.1826 -0.3150  0.1319
15955TIP3   OH269355   2.646   3.523   1.142 -0.2154 -0.1731  0.6099
15955TIP3    H169356   2.694   3.488   1.218 -0.8053 -0.3358  0.9166
15955TIP3    H269357   2.557   3.534   1.174 -0.5763 -0.6718 -0.1910
15956TIP3   OH269358   6.109   3.482   0.417  0.4117 -0.0657 -0.1222
15956TIP3    H169359   6.032   3.487   0.474  1.0639  2.2293  0.6757
15956TIP3    H269360   6.175   3.438   0.470  0.1772 -0.5174 -0.1939
15957TIP3   OH269361   2.865   2.032  12.278  0.3360 -0.3595 -0.3394
15957TIP3    H169362   2.904   2.003  12.196 -0.7609 -0.5982 -0.7933
15957TIP3    H269363   2.921   2.105  12.307  0.4284  0.0852 -1.5685
15958TIP3   OH269364   3.331   2.440  16.159 -0.0924 -0.1451  0.7639
15958TIP3    H169365   3.422   2.419  16.136 -0.4191  0.2617 -1.0525
15958TIP3    H269366   3.311   2.383  16.233  1.6840 -0.1364  1.2879
15959TIP3   OH269367   3.833   0.801  11.716 -0.1919  0.3378  0.6926
15959TIP3    H169368   3.925   0.825  11.707 -0.3680  0.2920 -2.1199
15959TIP3    H269369   3.789   0.883  11.739  0.2174  1.0576 -0.9428
15960TIP3   OH269370   5.829   4.141   5.768  0.4939  0.3006  0.1474
15960TIP3    H169371   5.785   4.103   5.844 -1.3646 -1.1039 -1.5228
15960TIP3    H269372   5.801   4.233   5.768  0.2751  0.2475  0.9532
15961TIP3   OH269373   4.346   0.894   3.189 -0.1121 -0.1321 -0.0815
15961TIP3    H169374   4.265   0.844   3.183 -0.4877  0.3466  0.8334
15961TIP3    H269375   4.415   0.830   3.170 -0.6837 -0.5738 -0.7223
15962TIP3   OH269376   4.967   1.786  14.840 -0.0536  0.4365  0.1201
15962TIP3    H169377   4.965   1.817  14.750  2.2938 -0.3597 -0.2793
15962TIP3    H269378   4.875   1.779  14.865 -0.9695 -1.9199 -3.1606
15963TIP3   OH269379   0.593   3.208  16.724  0.5292  0.2549 -0.0935
15963TIP3    H169380   0.681   3.175  16.739  1.4262  1.4751 -2.1966
15963TIP3    H269381   0.585   3.283  16.783  0.1501 -0.9596  1.4531
15964TIP3   OH269382   4.796   2.666  15.527 -0.1536  0.1922 -0.4034
15964TIP3    H169383   4.886   2.690  15.505 -0.2899  1.7956  0.6555
15964TIP3    H269384   4.804   2.591  15.587  0.3962 -0.5553 -1.3870
15965TIP3   OH269385   4.557   5.554   2.327  0.2715  0.1739 -0.0246
15965TIP3    H169386   4.610   5.605   2.389  1.3538 -0.2167 -0.6087
15965TIP3    H269387   4.604   5.471   2.318  0.5314  0.4951 -1.9188
15966TIP3   OH269388   0.180   0.158  11.889  0.3936 -0.0743  0.2829
15966TIP3    H169389   0.172   0.193  11.800  1.2228  2.5156  1.1472
15966TIP3    H269390   0.105   0.100  11.899 -1.2552  1.6601 -1.2265
15967TIP3   OH269391   3.920   6.410  11.133  0.8054 -0.0957  0.0747
15967TIP3    H169392   3.991   6.357  11.096 -0.1313 -0.6979 -0.9294
15967TIP3    H269393   3.860   6.424  11.060 -0.7249 -0.6478  1.1689
15968TIP3   OH269394   4.186   2.948  13.261  0.6109  0.0336  0.2121
15968TIP3    H169395   4.130   2.948  13.338 -0.8065 -0.1131 -0.7618
15968TIP3    H269396   4.268   2.908  13.290  0.1477  0.0597  1.6359
15969TIP3   OH269397   1.072   2.562  16.095 -0.2610  0.1768 -0.0998
15969TIP3    H169398   1.034   2.496  16.037 -0.3533 -0.4636  0.6763
15969TIP3    H269399   1.083   2.517  16.179 -3.1654  1.9036  1.3932
15970TIP3   OH269400   3.066   5.633   3.170 -0.7334 -0.3742  0.5771
15970TIP3    H169401   3.162   5.636   3.174 -0.7830  0.3179  2.1104
15970TIP3    H269402   3.046   5.548   3.131  0.5091 -0.7467  0.7002
15971TIP3   OH269403   2.106   4.517  15.993  0.0635  0.1328  0.1466
15971TIP3    H169404   2.058   4.434  15.986 -0.0337  0.0205  1.7843
15971TIP3    H269405   2.047   4.582  15.955 -0.0718 -0.4624 -0.6881
15972TIP3   OH269406   0.409   2.508   5.324  0.7942 -0.0845  0.4228
15972TIP3    H169407   0.450   2.428   5.291  1.6127  0.1269  0.9098
15972TIP3    H269408   0.432   2.576   5.260 -0.6445 -0.3892 -0.4727
15973TIP3   OH269409   5.386   2.552  15.796  0.4090  0.5498 -0.3480
15973TIP3    H169410   5.363   2.461  15.775  1.6047 -0.2962  1.6881
15973TIP3    H269411   5.443   2.579  15.725 -1.8241  0.5828 -2.2316
15974TIP3   OH269412   0.018   2.627   2.263  0.3178 -0.5072  0.0213
15974TIP3    H169413  -0.056   2.682   2.235 -0.5838 -0.9059  1.4541
15974TIP3    H269414   0.025   2.644   2.357  2.1817 -0.3708 -0.1056
15975TIP3   OH269415   0.833   6.539  11.961 -0.5422 -0.0762  0.1930
15975TIP3    H169416   0.871   6.460  11.923 -1.3232  1.6920 -5.0231
15975TIP3    H269417   0.908   6.589  11.994  0.6503 -0.5781 -1.6327
15976TIP3   OH269418   5.852   1.860   3.894 -0.2458  0.1964 -0.6418
15976TIP3    H169419   5.790   1.841   3.964 -0.9085  0.3513 -1.1766
15976TIP3    H269420   5.858   1.779   3.844  1.0760 -0.2654  0.2214
15977TIP3   OH269421   2.918   2.753   0.565 -0.3581  0.0564  0.0652
15977TIP3    H169422   2.839   2.702   0.552 -0.1267 -0.0302 -1.0969
15977TIP3    H269423   2.978   2.724   0.496  0.1394  1.1754 -0.0078
15978TIP3   OH269424   0.448   1.561   5.056 -0.9427  0.1519  0.7767
15978TIP3    H169425   0.482   1.641   5.017 -0.9597 -0.0384  0.3581
15978TIP3    H269426   0.517   1.533   5.117 -0.8634  0.3955  0.7994
15979TIP3   OH269427   6.469   0.260  11.116  0.3451 -0.4211  0.5977
15979TIP3    H169428   6.458   0.233  11.025 -0.3949 -1.1470  0.8945
15979TIP3    H269429   6.504   0.349  11.110 -1.3000  0.1933 -0.4019
15980TIP3   OH269430   2.301   6.146   2.063  0.2303 -0.1528 -0.2554
15980TIP3    H169431   2.328   6.182   1.978  0.0048  1.7832  0.4497
15980TIP3    H269432   2.222   6.095   2.043  1.1333 -1.1729 -1.4406
15981TIP3   OH269433   1.760   0.927   5.560 -0.0353 -0.5918  0.0996
15981TIP3    H169434   1.747   0.833   5.577  0.1953 -0.6085  0.1824
15981TIP3    H269435   1.841   0.949   5.605  0.2553 -0.4958 -0.4514
15982TIP3   OH269436   6.499   6.766  16.201  0.5707 -0.1831  0.4885
15982TIP3    H169437   6.474   6.690  16.148  0.7376 -0.0657  0.2394
15982TIP3    H269438   6.528   6.831  16.137 -0.1678  0.3184  0.6617
15983TIP3   OH269439   4.148   6.401  14.222  0.3783  0.5059  0.4270
15983TIP3    H169440   4.147   6.453  14.142  0.1557 -0.1442  0.0007
15983TIP3    H269441   4.194   6.456  14.286 -1.1197  1.8346  0.4114
15984TIP3   OH269442   0.433   6.353  11.762  0.1306 -0.2106  0.1387
15984TIP3    H169443   0.418   6.422  11.698 -2.4146 -0.6384  0.1586
15984TIP3    H269444   0.440   6.399  11.846 -0.4584  0.1084  0.0186
15985TIP3   OH269445   1.293   0.446  16.518 -0.1513  0.2292  0.1171
15985TIP3    H169446   1.246   0.403  16.447  0.4912 -1.7308  0.8169
15985TIP3    H269447   1.369   0.487  16.477  0.8310 -1.8326 -0.2386
15986TIP3   OH269448   4.586   6.127   1.512  0.7769 -0.1384  0.4363
15986TIP3    H169449   4.601   6.049   1.459 -0.9994  0.6150 -1.3227
15986TIP3    H269450   4.617   6.199   1.457  0.2800  0.5676  1.0590
15987TIP3   OH269451   0.380   3.247  10.781 -0.2150 -0.2049 -0.6640
15987TIP3    H169452   0.297   3.211  10.750 -0.0704 -1.5379  0.4291
15987TIP3    H269453   0.417   3.292  10.705 -2.0484  0.6571 -1.0991
15988TIP3   OH269454   3.641   5.602   4.415  0.8455  0.0186 -0.3746
15988TIP3    H169455   3.580   5.612   4.343  1.2632 -0.9851 -0.8797
15988TIP3    H269456   3.693   5.682   4.413  0.8376  0.0100 -1.1675
15989TIP3   OH269457   2.364   5.153   0.330  0.6075  0.3620  0.0781
15989TIP3    H169458   2.419   5.155   0.408  1.9819 -1.6536 -0.7699
15989TIP3    H269459   2.298   5.087   0.348 -1.6474  2.7202  1.0593
15990TIP3   OH269460   1.450   0.975  12.014 -0.3726 -0.2549 -0.1354
15990TIP3    H169461   1.464   1.019  11.930  0.0935 -0.2036 -0.0344
15990TIP3    H269462   1.359   0.946  12.011 -0.7284  0.8230 -0.1550
15991TIP3   OH269463   4.674   3.548  12.407 -0.1358 -0.3424  0.4394
15991TIP3    H169464   4.690   3.639  12.432 -2.0365 -0.1440  1.0781
15991TIP3    H269465   4.761   3.513  12.387  0.6651  1.5096  0.4924
15992TIP3   OH269466   3.722   3.012   1.526 -0.6494  0.8096  0.3133
15992TIP3    H169467   3.781   2.946   1.490 -0.9161  0.5267  0.3833
15992TIP3    H269468   3.697   3.066   1.451 -0.4579  0.8086  0.2486
15993TIP3   OH269469   3.337   2.478   0.173 -0.1136  0.3426 -0.7417
15993TIP3    H169470   3.391   2.426   0.232 -1.7297 -0.5886 -0.0257
15993TIP3    H269471   3.387   2.482   0.091  0.5329 -1.4424 -0.4680
15994TIP3   OH269472   1.126   6.812   0.842  0.0702  0.0481  0.4604
15994TIP3    H169473   1.076   6.857   0.774  0.6071 -0.1506 -0.0794
15994TIP3    H269474   1.061   6.757   0.887  0.1085 -1.8118 -1.5693
15995TIP3   OH269475   0.505   1.800   6.502  0.3123  0.3877 -0.1843
15995TIP3    H169476   0.459   1.756   6.431  0.9957  0.5627 -0.7383
15995TIP3    H269477   0.446   1.871   6.529 -0.1057  0.0956 -0.3241
15996TIP3   OH269478   4.885   2.696  16.909 -0.3032  0.2234 -0.0157
15996TIP3    H169479   4.964   2.649  16.934  0.2410  0.7828 -0.6511
15996TIP3    H269480   4.901   2.787  16.936 -0.4604  0.4672 -0.7219
15997TIP3   OH269481   0.272   4.612  14.606  0.4710  0.3381 -0.1296
15997TIP3    H169482   0.264   4.517  14.615  0.0019  0.4051  0.2285
15997TIP3    H269483   0.181   4.643  14.611  0.5079  0.7058 -1.4217
15998TIP3   OH269484   6.370   4.108   5.395 -0.1853  0.0559  0.3624
15998TIP3    H169485   6.403   4.135   5.309  0.0644  1.2276  0.8124
15998TIP3    H269486   6.289   4.158   5.407 -0.1024  0.0726  0.8968
15999TIP3   OH269487   4.430   1.882  12.856  0.2069 -0.1904 -0.2000
15999TIP3    H169488   4.486   1.805  12.859 -2.4043 -2.2349  0.2919
15999TIP3    H269489   4.470   1.943  12.917  0.8247 -2.3687  1.7347
16000TIP3   OH269490   5.611   4.428  15.953 -0.1851 -0.2609  0.0349
16000TIP3    H169491   5.662   4.349  15.937 -1.8586 -1.4815  0.5630
16000TIP3    H269492   5.531   4.398  15.996  0.4410  1.9984  3.1582
16001TIP3   OH269493   0.768   4.332   2.589  0.2654 -0.0853 -0.8298
16001TIP3    H169494   0.687   4.316   2.637  0.7720 -1.4253 -0.3928
16001TIP3    H269495   0.802   4.413   2.626 -0.3404 -0.0680 -0.2931
16002TIP3   OH269496   2.323   5.615  17.203  0.8247  0.3073 -0.1982
16002TIP3    H169497   2.280   5.626  17.119  1.9584  1.1456 -0.6947
16002TIP3    H269498   2.396   5.556  17.185  0.4154 -0.4228  0.4518
16003TIP3   OH269499   3.790   6.123   1.744  0.8585 -0.4872  0.3056
16003TIP3    H169500   3.818   6.046   1.793  0.1759 -0.8170  0.1877
16003TIP3    H269501   3.724   6.164   1.799  1.1235 -0.0599  0.3063
16004TIP3   OH269502   0.969   0.551  13.589 -0.0299  0.3261  0.1275
16004TIP3    H169503   0.881   0.535  13.623  0.3895 -1.1430  0.5773
16004TIP3    H269504   0.970   0.506  13.504  0.5772 -0.4721  0.5523
16005TIP3   OH269505   0.386   4.865  15.423  0.1432  0.4510 -1.1251
16005TIP3    H169506   0.346   4.941  15.380  2.0675  2.3103  0.1150
16005TIP3    H269507   0.382   4.886  15.516  1.3033 -0.6501 -0.8068
16006TIP3   OH269508   2.225   3.020   1.751  0.8008  0.0110  0.0911
16006TIP3    H169509   2.140   3.063   1.738  0.4691 -0.2729  1.1993
16006TIP3    H269510   2.205   2.941   1.801  1.8605  0.6181  1.5397
16007TIP3   OH269511   3.249   3.128   4.511  0.0073 -0.6694  0.1158
16007TIP3    H169512   3.319   3.098   4.570 -0.7179 -0.6165  1.0330
16007TIP3    H269513   3.264   3.079   4.430  1.2767 -0.4392  0.1879
16008TIP3   OH269514   2.555   5.952   2.017 -0.3265 -0.1059 -0.3880
16008TIP3    H169515   2.471   5.970   2.058  0.4724 -2.1488  2.4587
16008TIP3    H269516   2.561   5.856   2.016  1.9846 -0.0161 -0.3682
16009TIP3   OH269517   3.199   5.491  12.589  0.6030 -0.4499 -0.0195
16009TIP3    H169518   3.281   5.510  12.635 -0.0520 -0.6018  1.2457
16009TIP3    H269519   3.140   5.563  12.614 -0.3660 -1.5444  0.9488
16010TIP3   OH269520   2.543   6.626  11.117 -0.2981 -0.2589 -0.4618
16010TIP3    H169521   2.567   6.657  11.029 -0.9301 -0.1859 -0.6155
16010TIP3    H269522   2.561   6.532  11.115  2.2954  0.1315  0.2241
16011TIP3   OH269523   4.006   0.338  14.252 -0.3825  0.0505  0.6588
16011TIP3    H169524   3.970   0.264  14.300 -0.0784 -0.2633  0.4105
16011TIP3    H269525   4.098   0.343  14.279 -0.1764 -0.2059  0.0311
16012TIP3   OH269526   4.918   6.379   2.485  0.3666 -0.4134  0.2150
16012TIP3    H169527   4.919   6.357   2.392 -2.5236 -1.7570  0.3871
16012TIP3    H269528   4.937   6.297   2.529 -1.6869 -0.6528  0.7754
16013TIP3   OH269529   2.257   3.658   4.475 -0.1808  0.4081  0.2465
16013TIP3    H169530   2.349   3.634   4.486  0.1106  0.5287 -1.5578
16013TIP3    H269531   2.209   3.576   4.492  0.1971  0.4644  1.6855
16014TIP3   OH269532   0.935   6.315   0.199  0.1460 -0.5820 -0.1043
16014TIP3    H169533   1.026   6.315   0.227 -0.4394 -2.0212  2.1476
16014TIP3    H269534   0.918   6.225   0.171 -1.1618 -1.1102  2.0507
16015TIP3   OH269535   6.341   6.423  16.925 -0.2549 -0.6038 -0.1191
16015TIP3    H169536   6.281   6.477  16.873  1.2122  1.2798  0.0240
16015TIP3    H269537   6.299   6.418  17.011 -0.9421 -0.6270 -0.4446
16016TIP3   OH269538   4.482   5.709  12.753 -0.2986 -0.6907 -0.0761
16016TIP3    H169539   4.407   5.701  12.694 -0.0448 -1.2864 -0.3219
16016TIP3    H269540   4.550   5.751  12.700 -0.4113 -0.2571  0.1131
16017TIP3   OH269541   0.773   1.977   4.884  0.4453 -0.2032  0.0802
16017TIP3    H169542   0.823   1.935   4.954  0.2135  1.5026  1.3253
16017TIP3    H269543   0.814   2.062   4.873 -1.5524  0.8816  0.5050
16018TIP3   OH269544   2.936   4.499  12.608 -0.3657 -0.2424  0.4953
16018TIP3    H169545   2.871   4.553  12.561 -0.2343 -1.2867 -0.9473
16018TIP3    H269546   2.958   4.551  12.685 -0.4411  1.6608 -0.6955
16019TIP3   OH269547   0.202   5.356  11.166 -0.2029 -0.5523  0.3807
16019TIP3    H169548   0.133   5.417  11.191 -0.9309 -2.4041  3.3822
16019TIP3    H269549   0.282   5.408  11.170 -0.9380  0.5433  1.4594
16020TIP3   OH269550   4.797   1.987  10.352  0.2183  0.1882 -0.2915
16020TIP3    H169551   4.879   2.027  10.381  0.0476  1.1292 -1.0470
16020TIP3    H269552   4.763   1.943  10.430  1.4162 -0.1882  0.0410
16021TIP3   OH269553   5.972   2.091  16.580 -0.2381 -0.4094  0.4251
16021TIP3    H169554   5.969   2.131  16.667 -0.3164  0.3174  0.0980
16021TIP3    H269555   5.880   2.078  16.556 -0.2089 -2.4265  1.2475
16022TIP3   OH269556   6.801   4.567  16.477  0.1229 -0.4188  0.0788
16022TIP3    H169557   6.756   4.620  16.412 -1.8921  0.4022  2.0080
16022TIP3    H269558   6.882   4.615  16.496 -0.4526  0.6367 -0.0606
16023TIP3   OH269559   2.637   6.100   5.004 -0.1804 -0.4470 -0.0916
16023TIP3    H169560   2.568   6.092   4.938 -0.2757 -0.0335 -0.0439
16023TIP3    H269561   2.716   6.073   4.959 -0.5656 -2.2185  0.2230
16024TIP3   OH269562   4.938   6.062  15.054  0.8177 -0.0555 -0.1149
16024TIP3    H169563   4.920   6.050  14.961  0.2853 -0.4449  0.0346
16024TIP3    H269564   4.990   5.986  15.078  0.3368 -0.3343  0.0634
16025TIP3   OH269565   2.904   2.599  14.728  0.3650  0.2616 -0.3926
16025TIP3    H169566   2.992   2.638  14.723  0.6873 -0.2135  1.0402
16025TIP3    H269567   2.917   2.517  14.775 -1.0902  1.1209  1.6723
16026TIP3   OH269568   2.770   0.540   2.231  0.9293 -0.6894 -0.0188
16026TIP3    H169569   2.781   0.530   2.326 -0.5038 -0.7982  0.1560
16026TIP3    H269570   2.856   0.568   2.200  1.2328  0.0866  1.4168
16027TIP3   OH269571   0.458   2.728   5.891  0.1211 -0.4189  0.3888
16027TIP3    H169572   0.518   2.672   5.940 -2.4582 -3.0339  0.8993
16027TIP3    H269573   0.504   2.810   5.879  1.8967 -0.5210  4.9354
16028TIP3   OH269574   1.284   2.412   5.389  0.1968  0.2083  0.5750
16028TIP3    H169575   1.191   2.397   5.400 -0.1397  1.3646 -0.4577
16028TIP3    H269576   1.321   2.325   5.372 -0.8885 -0.0985 -0.3247
16029TIP3   OH269577   3.066   6.342   4.714  0.5463 -0.3349  0.8618
16029TIP3    H169578   3.112   6.323   4.632  1.1833 -3.2308  1.7908
16029TIP3    H269579   3.129   6.319   4.782 -0.1607  1.5044  2.2199
16030TIP3   OH269580   1.315   1.294   4.900  0.1588 -0.2373 -0.1287
16030TIP3    H169581   1.297   1.205   4.871  0.3891 -1.1441  2.2498
16030TIP3    H269582   1.229   1.335   4.906  0.0673 -0.2174 -1.4179
16031TIP3   OH269583   1.368   1.124   0.374  0.0410 -0.2662 -0.2080
16031TIP3    H169584   1.417   1.052   0.416 -1.0961 -0.2949  1.1490
16031TIP3    H269585   1.373   1.196   0.437 -0.9778 -0.0072 -0.4052
16032TIP3   OH269586   3.204   3.436   2.311 -0.3625 -0.0809 -0.1754
16032TIP3    H169587   3.255   3.435   2.230  0.9391 -1.6484  0.6070
16032TIP3    H269588   3.255   3.383   2.373 -1.2479  1.1486  1.7294
16033TIP3   OH269589   5.103   5.176   5.120 -0.0099  0.6269 -0.0275
16033TIP3    H169590   5.172   5.230   5.158 -0.7850  1.7874 -0.2233
16033TIP3    H269591   5.141   5.088   5.116  1.9526  1.4695 -1.3897
16034TIP3   OH269592   2.596   2.749   4.002 -0.3335 -0.3992 -0.0154
16034TIP3    H169593   2.582   2.810   3.930  1.0244  0.1844  0.1839
16034TIP3    H269594   2.674   2.700   3.977 -1.5254 -2.2408 -0.2718
16035TIP3   OH269595   1.293   4.861  15.319  0.4717  0.3693 -0.6483
16035TIP3    H169596   1.350   4.926  15.277  1.3951  0.9456  1.4142
16035TIP3    H269597   1.352   4.794  15.352  0.1299  1.3868  2.2647
16036TIP3   OH269598   0.243   2.349   0.563 -0.0540  0.3424 -0.5575
16036TIP3    H169599   0.336   2.367   0.575  0.1700 -1.4096  0.7732
16036TIP3    H269600   0.233   2.258   0.591 -1.9190  0.0284 -2.0509
16037TIP3   OH269601   3.571   0.519   5.610 -0.0354  0.0568  0.3843
16037TIP3    H169602   3.612   0.480   5.687 -0.6842  1.4889  1.5028
16037TIP3    H269603   3.483   0.482   5.608  0.2493 -0.6110 -0.1739
16038TIP3   OH269604   5.002   2.043   3.004  0.7413  0.1920  1.3190
16038TIP3    H169605   4.988   2.032   3.098 -1.4139 -2.1167  0.8198
16038TIP3    H269606   5.049   1.963   2.977 -0.3382 -0.0896  0.1680
16039TIP3   OH269607   0.970   3.578  15.434  0.0617  0.1249  0.7202
16039TIP3    H169608   0.901   3.525  15.475  1.3825 -1.3287  1.1600
16039TIP3    H269609   0.985   3.650  15.495 -2.8387  2.0678 -0.5936
16040TIP3   OH269610   4.498   3.605  11.320  0.1708 -0.0933 -0.1524
16040TIP3    H169611   4.430   3.571  11.263 -0.4928 -1.5147  1.4009
16040TIP3    H269612   4.569   3.541  11.313  0.1421 -0.2013  0.4883
16041TIP3   OH269613   1.158   1.257  16.498  0.2995 -0.0930  0.0969
16041TIP3    H169614   1.087   1.318  16.476  1.6711  1.5776  0.0287
16041TIP3    H269615   1.170   1.266  16.592 -1.2854 -2.3880  0.5916
16042TIP3   OH269616   4.811   4.732  16.805 -0.3566  0.8328 -0.6220
16042TIP3    H169617   4.871   4.787  16.855  1.7529 -1.1907 -0.7958
16042TIP3    H269618   4.730   4.731  16.857  0.5723  1.6601  0.8967
16043TIP3   OH269619   6.195   3.419   0.851  0.5709 -0.6041  0.2414
16043TIP3    H169620   6.116   3.453   0.810  0.7400 -1.0078 -0.4392
16043TIP3    H269621   6.263   3.428   0.784  0.9890 -0.7120  0.6452
16044TIP3   OH269622   5.213   4.550  12.510  0.1050  0.1960 -0.1743
16044TIP3    H169623   5.268   4.476  12.535 -1.0766  0.0602  2.4029
16044TIP3    H269624   5.131   4.510  12.480 -0.4171  0.3925  0.9177
16045TIP3   OH269625   3.287   4.288  14.642  0.2462  0.0015  0.6755
16045TIP3    H169626   3.216   4.233  14.673 -1.6910  0.7296 -2.0944
16045TIP3    H269627   3.340   4.306  14.720 -1.8958 -1.5714  2.6062
16046TIP3   OH269628   5.717   0.454  14.508 -0.0277 -0.6815 -0.0052
16046TIP3    H169629   5.657   0.529  14.513 -0.1892 -0.5202 -2.7948
16046TIP3    H269630   5.723   0.422  14.598 -1.7002  1.3091  0.9028
16047TIP3   OH269631   3.796   1.680   3.778 -0.0663 -0.4007 -0.0963
16047TIP3    H169632   3.815   1.768   3.747 -1.3336  0.8031  2.2662
16047TIP3    H269633   3.712   1.658   3.737  0.4898 -0.7594 -1.0814
16048TIP3   OH269634   4.217   3.861   1.248  0.1782 -0.2583 -0.2356
16048TIP3    H169635   4.226   3.897   1.336  0.8647 -1.5209  0.2455
16048TIP3    H269636   4.265   3.921   1.191 -0.3445  0.6086  0.2314
16049TIP3   OH269637   5.445   5.236   5.621  0.7201  0.2456  0.2271
16049TIP3    H169638   5.399   5.154   5.608  1.1315  0.3204 -2.2635
16049TIP3    H269639   5.376   5.303   5.624  0.5092  0.0704 -0.5617
16050TIP3   OH269640   1.405   0.077   6.231 -0.0851 -0.1733  0.6101
16050TIP3    H169641   1.363   0.024   6.299  2.2524  0.0780  2.3788
16050TIP3    H269642   1.497   0.080   6.257  0.5189  1.6842 -1.4744
16051TIP3   OH269643   0.762   4.787   2.732  0.2934 -0.4245  0.3765
16051TIP3    H169644   0.782   4.788   2.638  0.6802  0.6060  0.4599
16051TIP3    H269645   0.674   4.749   2.737  0.7217 -1.5584 -0.3014
16052TIP3   OH269646   5.586   5.065  14.461  0.1754 -0.1913  0.1056
16052TIP3    H169647   5.656   5.034  14.404 -1.2529 -2.0978 -0.7573
16052TIP3    H269648   5.588   5.006  14.536 -0.6145 -0.4226 -0.0394
16053TIP3   OH269649   4.931   3.986  12.067  0.2441  0.2680  0.4642
16053TIP3    H169650   4.957   3.893  12.064 -2.2090 -0.4739 -0.7493
16053TIP3    H269651   4.948   4.018  11.979 -1.4687  0.1579  0.0688
16054TIP3   OH269652   0.771   4.301  13.138  0.4334 -0.0032 -0.8655
16054TIP3    H169653   0.686   4.344  13.138  0.8193  0.8169  0.3912
16054TIP3    H269654   0.764   4.233  13.071 -1.0901  0.2535 -0.9913
16055TIP3   OH269655   5.491   1.120   5.003  0.1710 -0.7700 -0.7287
16055TIP3    H169656   5.434   1.152   5.073  0.7935  0.5006 -0.7733
16055TIP3    H269657   5.443   1.046   4.965 -1.2868  0.0399 -0.5478
16056TIP3   OH269658   2.799   6.059  16.991  0.0658 -0.6072 -0.7860
16056TIP3    H169659   2.838   6.029  17.072  0.4901 -1.2670 -1.2238
16056TIP3    H269660   2.711   6.088  17.015  0.2591 -0.6150 -0.0648
16057TIP3   OH269661   1.716   0.806  10.637 -0.1280  0.1125  0.1590
16057TIP3    H169662   1.778   0.811  10.709 -0.9228  1.8593  0.7814
16057TIP3    H269663   1.663   0.729  10.657  0.3990 -0.0959  0.8156
16058TIP3   OH269664   0.994   4.294   2.826 -0.8154  0.0716  0.6930
16058TIP3    H169665   0.977   4.221   2.767 -3.2883  0.5595  0.7282
16058TIP3    H269666   0.952   4.369   2.785  0.5261  1.2306  1.3306
16059TIP3   OH269667   2.177   4.771  14.679 -0.0510 -0.1753  0.0100
16059TIP3    H169668   2.194   4.851  14.629 -1.2463 -0.3264 -0.6676
16059TIP3    H269669   2.153   4.706  14.613  2.0876 -1.4805  0.4104
16060TIP3   OH269670   2.117   2.050  15.610 -0.1522  0.2008  0.2824
16060TIP3    H169671   2.162   2.009  15.536 -0.3413 -0.5555  0.5803
16060TIP3    H269672   2.027   2.019  15.604 -0.0870 -0.1530  1.0353
16061TIP3   OH269673   1.579   3.499   4.105 -0.3583 -0.8962 -0.0125
16061TIP3    H169674   1.511   3.498   4.037 -0.4300  0.1448  0.0212
16061TIP3    H269675   1.609   3.590   4.107  1.3202 -1.4154 -0.2836
16062TIP3   OH269676   4.041   6.210  13.621 -0.6186 -0.3069 -0.7554
16062TIP3    H169677   3.976   6.192  13.688 -0.4225 -1.2751 -0.8100
16062TIP3    H269678   4.123   6.224  13.670 -0.3276 -1.6908 -0.7936
16063TIP3   OH269679   2.744   5.143   2.943 -0.2842  0.1021 -0.0640
16063TIP3    H169680   2.807   5.178   3.007 -0.3728 -0.8309  0.5508
16063TIP3    H269681   2.765   5.188   2.861  0.0470  1.0798  0.5422
16064TIP3   OH269682   1.638   4.070  12.456  0.1585 -0.6245 -0.2332
16064TIP3    H169683   1.654   4.144  12.514  1.0924 -1.7535  1.0265
16064TIP3    H269684   1.545   4.051  12.467 -0.8270  2.0320 -2.7338
16065TIP3   OH269685   2.759   3.155   0.403 -0.2329  0.4632 -0.3789
16065TIP3    H169686   2.753   3.135   0.496  0.2334 -0.8662 -0.6192
16065TIP3    H269687   2.809   3.083   0.366 -0.0962  1.1663 -1.6059
16066TIP3   OH269688   1.716   6.638  12.583  0.2221 -0.5121 -0.2120
16066TIP3    H169689   1.729   6.716  12.529  0.9763  0.1603  0.9082
16066TIP3    H269690   1.800   6.625  12.626 -0.6342 -0.4346  1.5593
16067TIP3   OH269691   1.996   3.102   1.340  0.2622  0.3488 -0.0276
16067TIP3    H169692   2.059   3.109   1.411  1.7566 -0.6561 -1.2031
16067TIP3    H269693   2.029   3.031   1.285 -1.8607 -0.1681 -0.7386
16068TIP3   OH269694   4.720   4.501   0.581  0.3769 -0.4479 -0.3950
16068TIP3    H169695   4.665   4.481   0.505  0.0716  0.3943 -0.4070
16068TIP3    H269696   4.684   4.448   0.652 -1.7823  1.5585  0.1286
16069TIP3   OH269697   5.660   3.235  12.724 -0.1343 -0.1044 -0.2068
16069TIP3    H169698   5.711   3.253  12.803  0.8642 -0.3286 -0.7815
16069TIP3    H269699   5.723   3.244  12.652 -1.2142  0.9587 -1.0620
16070TIP3   OH269700   0.013   6.226   1.359 -0.5227 -0.1692 -0.2892
16070TIP3    H169701  -0.059   6.168   1.336 -0.9164  0.3603 -0.4099
16070TIP3    H269702   0.038   6.199   1.447 -1.2207 -0.0051 -0.0382
16071TIP3   OH269703   1.665   0.514  14.467  0.1848  1.0650  0.7446
16071TIP3    H169704   1.737   0.508  14.530  0.8496 -1.0792 -0.1208
16071TIP3    H269705   1.702   0.566  14.395  1.4371 -1.0702 -0.2729
16072TIP3   OH269706   4.238   2.580  16.120 -0.1359  0.0932  0.0659
16072TIP3    H169707   4.150   2.552  16.147 -0.3754 -1.3707 -1.9773
16072TIP3    H269708   4.269   2.633  16.193 -2.1114 -0.5949  1.5237
16073TIP3   OH269709   5.109   0.283  14.643 -0.1648 -0.6018  0.2463
16073TIP3    H169710   5.141   0.341  14.575 -0.2453  0.1519  0.8402
16073TIP3    H269711   5.188   0.245  14.681  0.0155  0.6419  1.1720
16074TIP3   OH269712   0.565   0.521  14.795  0.3629 -0.1982 -0.1476
16074TIP3    H169713   0.576   0.449  14.857 -1.1201  0.3218  0.7663
16074TIP3    H269714   0.527   0.479  14.718  1.6096 -0.7389 -0.5029
16075TIP3   OH269715   2.350   0.343  12.905 -0.0771 -0.1521 -0.0428
16075TIP3    H169716   2.443   0.342  12.881  0.3232  0.5033  1.3325
16075TIP3    H269717   2.347   0.399  12.983 -1.7439  0.4313 -0.4937
16076TIP3   OH269718   2.048   3.375   2.290 -1.2193  0.1805 -0.2348
16076TIP3    H169719   2.117   3.380   2.356 -1.1431  1.1826 -0.3701
16076TIP3    H269720   2.085   3.323   2.219 -0.9152 -0.0049  0.0590
16077TIP3   OH269721   1.913   5.349  12.822  0.4712  0.5959  0.0474
16077TIP3    H169722   1.931   5.349  12.916 -1.5644  0.6670  0.4734
16077TIP3    H269723   1.991   5.387  12.783  0.2386  3.2832  1.9553
16078TIP3   OH269724   2.453   1.166  12.325  0.3110 -0.1656 -0.5035
16078TIP3    H169725   2.430   1.192  12.414  1.5155 -1.7180  0.3191
16078TIP3    H269726   2.489   1.078  12.335 -1.7211 -1.3733 -2.8463
16079TIP3   OH269727   6.266   5.777   4.138  0.4195 -0.1304  0.2039
16079TIP3    H169728   6.237   5.690   4.113  0.2503 -0.4733  1.5672
16079TIP3    H269729   6.304   5.767   4.225  2.4335  0.7479 -0.4979
16080TIP3   OH269730   1.938   3.053  17.233 -0.3239 -0.0288  0.0038
16080TIP3    H169731   1.893   3.119  17.180  0.8368  0.7582 -0.0287
16080TIP3    H269732   1.914   3.074  17.323  1.1429  1.3251  0.1073
16081TIP3   OH269733   4.737   4.077   0.125 -0.4679 -0.2404 -0.0340
16081TIP3    H169734   4.764   4.071   0.217  0.0187 -1.2905 -0.2291
16081TIP3    H269735   4.675   4.150   0.122  2.4640  2.4498  0.4210
16082TIP3   OH269736   6.711   0.522  15.072 -0.2325  0.0620  1.1342
16082TIP3    H169737   6.779   0.588  15.087  1.3580 -1.0681 -0.5706
16082TIP3    H269738   6.667   0.513  15.156 -0.0748  2.7804  1.5925
16083TIP3   OH269739   4.874   0.979   3.017 -0.5033  0.1372  0.8148
16083TIP3    H169740   4.787   0.990   2.977 -0.3124  0.9192  0.5967
16083TIP3    H269741   4.886   0.884   3.022 -1.2939  0.0206  0.6777
16084TIP3   OH269742   1.251   4.353  12.090  0.4952  0.6156 -0.0512
16084TIP3    H169743   1.336   4.352  12.135  0.0791  3.1417  0.9597
16084TIP3    H269744   1.222   4.262  12.093  2.1352  0.0766  1.6284
16085TIP3   OH269745   2.527   3.327  12.141  0.1694 -0.1060  0.6377
16085TIP3    H169746   2.528   3.360  12.231  1.7316  0.1667  0.5450
16085TIP3    H269747   2.524   3.406  12.087  2.5374 -0.0849  0.4382
16086TIP3   OH269748   4.420   0.660   5.500  0.0837  0.0154 -0.1309
16086TIP3    H169749   4.415   0.690   5.409  1.5054 -1.6401 -0.7990
16086TIP3    H269750   4.470   0.729   5.544 -1.2282  1.1851 -0.4054
16087TIP3   OH269751   3.401   5.528  13.681 -0.2101 -0.5806  0.6317
16087TIP3    H169752   3.477   5.551  13.626 -0.8008  0.8912  0.3759
16087TIP3    H269753   3.384   5.436  13.661  1.3318 -0.8710  0.4936
16088TIP3   OH269754   2.844   1.253  16.480  0.4773 -0.1222  0.2016
16088TIP3    H169755   2.750   1.246  16.464  0.2373 -0.1454  1.4895
16088TIP3    H269756   2.876   1.312  16.412 -0.5088  0.0904 -0.0915
16089TIP3   OH269757   5.235   2.135   5.778 -0.0230 -0.0437 -0.4879
16089TIP3    H169758   5.189   2.146   5.862 -0.0488  0.2319 -0.5361
16089TIP3    H269759   5.171   2.094   5.720  0.2140 -0.8771 -0.1743
16090TIP3   OH269760   0.038   0.913  14.548  0.1911  0.3313 -0.2705
16090TIP3    H169761   0.077   0.837  14.505  1.5850 -0.0740  1.5530
16090TIP3    H269762   0.112   0.961  14.584 -0.8240  1.1366  0.8298
16091TIP3   OH269763   1.063   2.980  11.164  0.4357 -0.1295 -0.5108
16091TIP3    H169764   1.107   3.018  11.088  0.5559 -1.0385 -0.9085
16091TIP3    H269765   0.970   2.982  11.141  0.1373  2.4900  0.6402
16092TIP3   OH269766   4.555   5.101   0.856  0.3007  0.3815 -0.6713
16092TIP3    H169767   4.461   5.098   0.876  0.8807  0.1741  2.5663
16092TIP3    H269768   4.584   5.010   0.865  0.8413  0.4542 -1.5883
16093TIP3   OH269769   1.220   3.438   0.276  0.4897 -0.4358 -0.1541
16093TIP3    H169770   1.166   3.392   0.212  1.3964 -0.7819 -0.6858
16093TIP3    H269771   1.293   3.474   0.225 -0.7030  2.5765  0.0204
16094TIP3   OH269772   3.651   0.074  14.377 -0.7775 -0.1074  0.3582
16094TIP3    H169773   3.575   0.016  14.366 -2.0892  1.5323  0.3935
16094TIP3    H269774   3.714   0.044  14.311 -1.8669 -0.8608 -0.3793
16095TIP3   OH269775   1.778   1.130   2.041  0.1393 -0.4006 -0.1585
16095TIP3    H169776   1.836   1.116   1.966  2.0186 -0.6160  1.2752
16095TIP3    H269777   1.836   1.132   2.116 -1.7040 -0.2032  1.3245
16096TIP3   OH269778   6.445   5.823  17.220  0.3134  0.3385  0.1809
16096TIP3    H169779   6.535   5.833  17.188  0.0923  1.3099 -0.1992
16096TIP3    H269780   6.406   5.757  17.164  0.1518  1.4992 -1.1415
16097TIP3   OH269781   6.107   6.311   3.601 -0.1358  0.1404  0.1408
16097TIP3    H169782   6.039   6.376   3.619  0.4920  1.0583 -0.6810
16097TIP3    H269783   6.123   6.319   3.507  2.2257  1.1026  0.5546
16098TIP3   OH269784   3.179   3.951  15.348 -0.1044  0.1747 -0.0677
16098TIP3    H169785   3.123   3.942  15.270 -0.2349 -0.4976  0.1045
16098TIP3    H269786   3.168   3.869  15.395  4.2290 -1.8468 -2.0641
16099TIP3   OH269787   3.405   3.265  15.870  0.3582  0.4652  0.1257
16099TIP3    H169788   3.418   3.330  15.801 -0.9939 -0.0432 -0.6531
16099TIP3    H269789   3.455   3.189  15.841  1.5239  0.9503  0.7865
16100TIP3   OH269790   0.100   1.793   6.028 -0.2535 -0.1024  0.0144
16100TIP3    H169791   0.059   1.849   6.093  0.0358  0.6794 -0.4594
16100TIP3    H269792   0.172   1.751   6.074 -0.6446 -0.3046  0.4463
16101TIP3   OH269793   6.774   0.082   5.591 -0.1384  0.1465 -0.4372
16101TIP3    H169794   6.830   0.107   5.664 -1.7153 -0.5640  1.0815
16101TIP3    H269795   6.826   0.018   5.542  0.7503  0.2332  0.3546
16102TIP3   OH269796   5.447   3.590   6.572  0.2863 -0.5254 -0.0505
16102TIP3    H169797   5.384   3.524   6.545  0.9650 -1.0480 -0.3862
16102TIP3    H269798   5.397   3.672   6.572 -0.1545 -0.7729 -1.2615
16103TIP3   OH269799   5.319   1.698  11.716  0.0708  0.2025 -0.2318
16103TIP3    H169800   5.361   1.718  11.799  0.0303  1.7988 -0.5605
16103TIP3    H269801   5.379   1.732  11.650  0.0159 -0.8752 -0.8682
16104TIP3   OH269802   3.560   6.063  11.707 -0.2334 -0.2522  0.0332
16104TIP3    H169803   3.559   6.074  11.612  0.4818  0.0453  0.0607
16104TIP3    H269804   3.545   6.150  11.742  1.6640  0.0248  0.2081
16105TIP3   OH269805   3.139   1.158  15.454  0.0047  0.1162  0.1026
16105TIP3    H169806   3.082   1.107  15.512 -2.7225  1.3427 -1.3021
16105TIP3    H269807   3.209   1.189  15.511 -1.1371 -0.8356  2.1632
16106TIP3   OH269808   2.479   1.157   4.970 -0.1585  0.0814  0.5771
16106TIP3    H169809   2.468   1.066   4.944 -0.2018 -0.3496  2.0060
16106TIP3    H269810   2.568   1.163   5.004 -0.3561  0.4121  1.0568
16107TIP3   OH269811   1.775   5.098   0.473 -0.6476  0.5915  0.2284
16107TIP3    H169812   1.746   5.163   0.538 -0.2093  1.2518 -0.2283
16107TIP3    H269813   1.707   5.030   0.476  0.0504 -0.1018  2.3594
16108TIP3   OH269814   4.848   2.421  11.886  0.5398  0.1168  0.3480
16108TIP3    H169815   4.835   2.506  11.844  0.0299  0.3981  1.0466
16108TIP3    H269816   4.834   2.357  11.816  1.7917  0.6192 -0.3900
16109TIP3   OH269817   5.934   1.252   3.850 -0.0544 -0.0239 -0.2421
16109TIP3    H169818   5.868   1.296   3.796  1.3544  0.9875 -1.2262
16109TIP3    H269819   5.899   1.165   3.865 -1.1286  0.1324 -1.6351
16110TIP3   OH269820   0.472   5.345   1.507 -0.0657 -0.7480  0.2481
16110TIP3    H169821   0.411   5.328   1.436  1.5264 -0.3835 -1.2598
16110TIP3    H269822   0.529   5.268   1.509  1.2850  0.2006 -0.3812
16111TIP3   OH269823   4.133   5.925  16.507  0.1443  0.1146  0.0852
16111TIP3    H169824   4.177   6.010  16.504  0.8610 -0.2664 -0.5515
16111TIP3    H269825   4.043   5.943  16.480  0.3653  0.6232 -0.3152
16112TIP3   OH269826   0.683   1.452   1.244 -0.3531 -0.2257  0.4777
16112TIP3    H169827   0.737   1.399   1.185  0.2256 -0.0442  0.8419
16112TIP3    H269828   0.593   1.430   1.219 -0.1239 -0.2091 -0.4272
16113TIP3   OH269829   0.338   5.683   4.527 -0.5427 -0.3285  0.4049
16113TIP3    H169830   0.368   5.771   4.548  1.6554 -1.1563  0.9563
16113TIP3    H269831   0.252   5.677   4.569 -1.3867  1.9643 -0.8004
16114TIP3   OH269832   3.918   4.808   4.892  0.0746  0.1842  0.1446
16114TIP3    H169833   3.987   4.830   4.830  0.9441 -0.1341  0.9719
16114TIP3    H269834   3.916   4.881   4.954 -1.0229  0.6646 -0.4264
16115TIP3   OH269835   5.806   1.597  14.691 -0.3824  0.2230  0.1847
16115TIP3    H169836   5.803   1.649  14.611 -1.3786  0.3740  0.3137
16115TIP3    H269837   5.749   1.643  14.752  1.3217  0.8013  1.4215
16116TIP3   OH269838   2.768   5.759   5.750  0.2662 -0.0682 -0.2728
16116TIP3    H169839   2.765   5.787   5.659  2.4254  0.7898 -0.1384
16116TIP3    H269840   2.700   5.810   5.793  0.3361  0.7491 -1.1066
16117TIP3   OH269841   6.614   3.324   2.096 -0.4649 -0.7692  0.1660
16117TIP3    H169842   6.588   3.260   2.030  1.8435 -1.7431  0.1142
16117TIP3    H269843   6.710   3.327   2.090 -0.0914 -1.2198  3.7191
16118TIP3   OH269844   3.014   4.348  12.975 -0.0486  0.2332  0.0997
16118TIP3    H169845   3.019   4.353  13.070  0.9301  1.7431  0.0164
16118TIP3    H269846   3.023   4.439  12.946  1.1340 -0.3324 -1.4717
16119TIP3   OH269847   4.773   5.464  12.565 -0.3099 -0.5105 -0.4430
16119TIP3    H169848   4.790   5.418  12.483 -1.4220 -0.3486 -0.7905
16119TIP3    H269849   4.682   5.495  12.556 -0.4096 -0.4015  0.8054
16120TIP3   OH269850   4.248   5.887  15.351  0.0562 -0.3022  0.5449
16120TIP3    H169851   4.275   5.871  15.442 -1.2428 -0.2606  0.9548
16120TIP3    H269852   4.231   5.981  15.348 -3.7596 -0.8035  1.4199
16121TIP3   OH269853   1.759   6.275  11.762  0.1580  0.5716 -0.2515
16121TIP3    H169854   1.738   6.349  11.819 -1.5205 -2.1736  3.0132
16121TIP3    H269855   1.681   6.263  11.709  0.2903  0.8550 -0.5185
16122TIP3   OH269856   1.561   4.369   5.707 -0.2284 -0.0855  0.5960
16122TIP3    H169857   1.523   4.453   5.730  0.5804  0.6952 -0.7641
16122TIP3    H269858   1.629   4.354   5.772  1.4020  1.6198 -0.6079
16123TIP3   OH269859   2.415   0.005  12.710 -0.0272 -0.4896 -0.0668
16123TIP3    H169860   2.461  -0.079  12.718  1.4812  0.1901 -1.0400
16123TIP3    H269861   2.418   0.042  12.798 -2.1331 -2.0936  0.7680
16124TIP3   OH269862   6.003   5.714  17.030 -0.1025 -0.7835  0.2224
16124TIP3    H169863   6.081   5.692  16.980 -0.0326 -0.3053  0.1251
16124TIP3    H269864   5.966   5.629  17.053  1.6626 -1.1065  2.1928
16125TIP3   OH269865   6.499   4.898  12.290  0.2618 -0.2506 -0.6613
16125TIP3    H169866   6.584   4.891  12.332  0.0280  0.0489 -0.1215
16125TIP3    H269867   6.460   4.811  12.299  1.1800 -0.8822 -2.4194
16126TIP3   OH269868   6.707   5.127  10.808 -0.7720 -0.6122 -0.6696
16126TIP3    H169869   6.692   5.052  10.750 -0.3793 -0.6462 -0.7312
16126TIP3    H269870   6.674   5.097  10.893  0.6808 -1.4217 -0.3394
16127TIP3   OH269871   5.165   6.028  17.280 -0.1729  0.0112  0.1628
16127TIP3    H169872   5.115   6.065  17.207 -0.2843 -1.0043 -0.2867
16127TIP3    H269873   5.253   6.065  17.269 -0.7757  1.7614  0.9291
16128TIP3   OH269874   4.256   5.398  12.628  0.3564  0.1653 -0.5033
16128TIP3    H169875   4.331   5.451  12.602  0.3483  1.0745  1.1660
16128TIP3    H269876   4.284   5.353  12.707 -0.0832 -1.3899 -1.1806
16129TIP3   OH269877   0.451   5.203  12.284 -0.5013  0.1720 -0.4200
16129TIP3    H169878   0.519   5.231  12.346 -0.4245  0.8986 -0.8282
16129TIP3    H269879   0.487   5.224  12.198 -2.0366  2.4226 -0.5811
16130TIP3   OH269880   2.472   3.952  15.721 -0.0769 -0.1672  0.2546
16130TIP3    H169881   2.490   4.046  15.720 -0.5912  0.0502  3.0649
16130TIP3    H269882   2.415   3.938  15.645  0.6927  1.5991 -0.7108
16131TIP3   OH269883   5.069   0.897  11.050  0.6594  0.2380  0.2489
16131TIP3    H169884   5.125   0.945  10.988 -1.4199  2.8475  0.2035
16131TIP3    H269885   5.006   0.963  11.081  0.2869 -1.4916  3.5728
16132TIP3   OH269886   0.604   5.099   6.216  0.2242  0.7151  0.5032
16132TIP3    H169887   0.678   5.041   6.199  1.4128  1.3160  3.1062
16132TIP3    H269888   0.529   5.041   6.229  1.3911 -0.3380  3.0721
16133TIP3   OH269889   0.452   0.245   0.546  0.4343 -0.1680 -0.0673
16133TIP3    H169890   0.445   0.322   0.604  3.6852  0.4586 -0.3501
16133TIP3    H269891   0.452   0.281   0.458  0.8664 -0.5919 -0.2445
16134TIP3   OH269892   5.428   0.134   1.511 -0.4363  0.3614 -0.3811
16134TIP3    H169893   5.445   0.228   1.507 -1.6092  0.5878 -0.2877
16134TIP3    H269894   5.397   0.118   1.600  0.4933 -0.2666 -0.1426
16135TIP3   OH269895   4.451   4.895  13.833  0.1864  0.2994  0.4003
16135TIP3    H169896   4.371   4.853  13.864  1.4939 -2.9971 -0.1993
16135TIP3    H269897   4.517   4.825  13.836  2.4853  2.2200 -1.3410
16136TIP3   OH269898   5.806   4.356  13.376  0.2470  0.0618  0.3457
16136TIP3    H169899   5.812   4.379  13.284 -3.7394 -0.2661 -0.1809
16136TIP3    H269900   5.799   4.440  13.421 -1.3727  0.2139 -0.1239
16137TIP3   OH269901   0.476   3.214  12.647  0.6027 -0.4585  0.0227
16137TIP3    H169902   0.514   3.282  12.592  0.3227 -0.7544 -0.5477
16137TIP3    H269903   0.383   3.215  12.626  0.8201 -2.0618 -1.1767
16138TIP3   OH269904   2.374   2.664   3.611 -0.0791 -0.5065  0.6283
16138TIP3    H169905   2.310   2.611   3.562  0.4311 -1.8421  1.3525
16138TIP3    H269906   2.326   2.744   3.633 -1.8259 -1.8078  1.8632
16139TIP3   OH269907   4.149   6.069   2.895 -0.0441  0.2317 -0.2143
16139TIP3    H169908   4.150   6.017   2.815  1.1790 -1.8317  1.0310
16139TIP3    H269909   4.230   6.120   2.893  0.7330 -0.9284  0.3192
16140TIP3   OH269910   5.989   6.330  16.186  0.4779  0.3415 -0.3743
16140TIP3    H169911   5.983   6.379  16.268  1.5562  0.8300 -0.5773
16140TIP3    H269912   5.975   6.239  16.212 -0.4597  0.6133  0.1561
16141TIP3   OH269913   0.247   3.350   4.854  0.4664  0.0603  0.3043
16141TIP3    H169914   0.326   3.366   4.907  0.1595  0.5709  0.6150
16141TIP3    H269915   0.212   3.268   4.887  0.2945  0.3609  0.8866
16142TIP3   OH269916   6.085   2.074   2.829  0.5211  0.0558  0.0450
16142TIP3    H169917   6.139   2.154   2.827  0.0440  0.3722 -0.3484
16142TIP3    H269918   6.143   2.005   2.797  0.5533  0.4865 -0.8608
16143TIP3   OH269919   0.443   3.905  16.418 -0.5380  0.4329 -0.2552
16143TIP3    H169920   0.458   3.828  16.472 -0.9463  1.0785  0.8116
16143TIP3    H269921   0.348   3.913  16.414 -0.4986  1.1795  0.0965
16144TIP3   OH269922   6.137   6.577  16.108  0.1640  0.5907 -0.0363
16144TIP3    H169923   6.101   6.495  16.078  1.7676  1.1172 -4.0430
16144TIP3    H269924   6.063   6.638  16.108 -0.1897  0.2206 -1.9007
16145TIP3   OH269925   0.220   1.357   2.570  0.0216  0.6048 -0.2573
16145TIP3    H169926   0.282   1.333   2.639  1.9371  0.9103 -1.7859
16145TIP3    H269927   0.187   1.442   2.596 -1.0342 -0.2627  1.3940
16146TIP3   OH269928   2.079   1.781   5.010  0.4052 -0.1850  0.4331
16146TIP3    H169929   2.128   1.728   4.947 -0.3538  2.8619 -3.1285
16146TIP3    H269930   2.146   1.828   5.060  1.0945 -0.5855 -0.1019
16147TIP3   OH269931   0.862   5.037  12.926  0.3427  1.2284 -0.1023
16147TIP3    H169932   0.934   5.034  12.863 -0.7050 -0.2536 -1.2960
16147TIP3    H269933   0.892   4.983  13.000 -0.4598 -1.6578 -1.7218
16148TIP3   OH269934   3.630   3.825   0.104 -0.4776  0.1165  0.0225
16148TIP3    H169935   3.667   3.848   0.019 -0.0132 -0.3426  0.0968
16148TIP3    H269936   3.705   3.798   0.157 -0.1793  3.7318  1.7795
16149TIP3   OH269937   4.958   1.103  16.819 -0.1048 -0.2126  0.3323
16149TIP3    H169938   4.908   1.036  16.865 -0.6351  0.7979  1.2785
16149TIP3    H269939   4.906   1.183  16.829  1.3692  0.7242  0.7726
16150TIP3   OH269940   1.550   1.406  12.017 -0.3029  0.2439  0.0662
16150TIP3    H169941   1.550   1.369  12.106 -0.2682 -0.7389 -0.3248
16150TIP3    H269942   1.470   1.372  11.977  0.1626 -0.1096 -0.5893
16151TIP3   OH269943   0.753   1.862  11.065  0.1552  0.3385  0.3155
16151TIP3    H169944   0.799   1.878  10.983 -0.0231  1.7638  0.4665
16151TIP3    H269945   0.783   1.932  11.123 -0.5019 -0.0381  1.1278
16152TIP3   OH269946   0.580   1.027   5.678  0.5129  0.2917 -0.2171
16152TIP3    H169947   0.534   0.990   5.754 -0.4716 -0.6123 -1.1977
16152TIP3    H269948   0.672   1.026   5.703  0.2425 -0.2757  0.8526
16153TIP3   OH269949   0.164   3.567  12.722  0.0094  0.6279 -0.4030
16153TIP3    H169950   0.184   3.581  12.630 -4.8092  0.0502 -1.8149
16153TIP3    H269951   0.154   3.472  12.730  0.1359  0.6920  0.6517
16154TIP3   OH269952   2.352   5.773  15.971 -0.1277  0.3838 -0.0896
16154TIP3    H169953   2.428   5.741  16.020 -0.6293 -0.0266  0.4416
16154TIP3    H269954   2.286   5.704  15.981 -0.1937  0.2110 -1.5043
16155TIP3   OH269955   5.716   6.016  16.921 -0.2787 -0.1773  0.5385
16155TIP3    H169956   5.703   5.925  16.895 -0.8856  0.3778 -1.2571
16155TIP3    H269957   5.656   6.028  16.995 -0.9366 -0.9651  0.1499
16156TIP3   OH269958   0.749   2.326   3.047  0.2385 -0.3934 -0.1418
16156TIP3    H169959   0.693   2.403   3.057  0.4042 -0.2436 -0.3481
16156TIP3    H269960   0.720   2.266   3.116  0.8552  0.3011  0.7374
16157TIP3   OH269961   2.194   4.405  12.804  0.5219  0.0946 -0.3683
16157TIP3    H169962   2.114   4.418  12.854  0.3429 -1.2574 -0.2531
16157TIP3    H269963   2.264   4.408  12.869  0.4296 -0.1523 -0.2571
16158TIP3   OH269964   2.998   2.557  10.681 -0.0658  0.0357  0.6606
16158TIP3    H169965   2.996   2.495  10.754 -1.6413 -1.1918 -0.3616
16158TIP3    H269966   2.932   2.622  10.703  0.1266  0.1968  0.7655
16159TIP3   OH269967   6.742   4.676   0.383 -0.4304 -0.3213  0.4069
16159TIP3    H169968   6.743   4.664   0.288  1.8640 -4.0297  0.6981
16159TIP3    H269969   6.654   4.648   0.410 -1.3662  1.4731 -0.5753
16160TIP3   OH269970   0.460   5.302  17.120 -0.1173 -0.5839  0.1160
16160TIP3    H169971   0.469   5.380  17.067 -0.7647 -0.1231  0.6652
16160TIP3    H269972   0.404   5.328  17.193 -0.5925 -1.6298  0.1553
16161TIP3   OH269973   6.145   4.309  17.029  0.0142  0.5004 -0.2189
16161TIP3    H169974   6.091   4.373  16.983  1.0601  1.1044 -0.6435
16161TIP3    H269975   6.201   4.362  17.086  1.1370  0.0029 -0.8331
16162TIP3   OH269976   0.760   0.206  12.598 -0.3724 -0.5671 -0.2873
16162TIP3    H169977   0.843   0.251  12.581  0.1835 -0.8464  1.4986
16162TIP3    H269978   0.701   0.239  12.530  0.8705  0.4986 -0.9011
16163TIP3   OH269979   6.705   4.561   1.584  0.2414  0.0872  0.7530
16163TIP3    H169980   6.788   4.532   1.621  0.0916 -0.2624  0.8138
16163TIP3    H269981   6.677   4.633   1.640 -0.1634 -0.6760  1.5477
16164TIP3   OH269982   3.694   2.705   0.323  0.4245  0.3954 -0.4524
16164TIP3    H169983   3.672   2.660   0.405 -2.5315  2.0612 -0.1733
16164TIP3    H269984   3.747   2.779   0.351  0.5972  0.1914 -0.2282
16165TIP3   OH269985   2.544   0.230  14.270 -0.5299 -0.3152 -0.0779
16165TIP3    H169986   2.556   0.148  14.223 -1.1166  0.0694 -0.9238
16165TIP3    H269987   2.482   0.279  14.217 -1.2412  0.1198  1.1315
16166TIP3   OH269988   3.077   0.193   3.071  0.0324  0.6109 -0.3098
16166TIP3    H169989   3.026   0.274   3.076 -0.2355  0.4195  0.1373
16166TIP3    H269990   3.145   0.204   3.137 -0.0360  0.4510 -0.2123
16167TIP3   OH269991   6.728   4.659   2.763  0.1828  0.1865  0.1314
16167TIP3    H169992   6.737   4.567   2.738 -0.9767 -0.1082  0.7438
16167TIP3    H269993   6.643   4.686   2.728  0.1806  0.8139  0.5990
16168TIP3   OH269994   1.943   2.963   5.150  0.3620 -0.5757  0.9392
16168TIP3    H169995   1.958   2.918   5.067  0.3896  0.9490  0.0736
16168TIP3    H269996   2.007   2.925   5.210  1.0038 -1.0317 -0.0046
16169TIP3   OH269997   5.921   5.321  10.803  0.1359  0.0128  0.4318
16169TIP3    H169998   5.864   5.307  10.728  0.8682  0.2327 -0.1810
16169TIP3    H269999   5.936   5.416  10.805 -0.8576  0.1778  1.6049
16170TIP3   OH270000   1.208   2.377   1.138 -0.4641  0.1051  0.1773
16170TIP3    H170001   1.128   2.428   1.145  0.0262  0.8789  0.3431
16170TIP3    H270002   1.191   2.297   1.188 -1.5132 -0.2472 -0.7229
16171TIP3   OH270003   1.503   0.224  13.753 -0.0217  0.2184 -0.4034
16171TIP3    H170004   1.524   0.213  13.845  0.7313  1.0325 -0.4653
16171TIP3    H270005   1.587   0.218  13.708 -0.1324  1.5753 -0.8499
16172TIP3   OH270006   4.711   3.297  11.354  0.0194 -0.4589  1.2359
16172TIP3    H170007   4.767   3.320  11.428  0.8684  2.2524 -0.0992
16172TIP3    H270008   4.766   3.309  11.277 -1.8792  0.6678 -0.0410
16173TIP3   OH270009   5.812   3.070   1.505  0.4349  0.8752  0.2990
16173TIP3    H170010   5.870   3.010   1.458 -0.4483  0.4032 -0.2171
16173TIP3    H270011   5.769   3.121   1.437  0.2557  1.2286  0.6715
16174TIP3   OH270012   3.411   2.030  12.623  0.5065  0.2818 -0.0561
16174TIP3    H170013   3.482   2.092  12.642  0.9409 -0.3744  0.4970
16174TIP3    H270014   3.436   1.950  12.669 -0.2950 -0.1528 -0.3605
16175TIP3   OH270015   4.694   6.040   6.396 -0.4635  0.3509  0.6063
16175TIP3    H170016   4.755   6.111   6.414 -0.4833  0.3684  0.6049
16175TIP3    H270017   4.607   6.078   6.412 -0.4067 -0.2336  2.5638
16176TIP3   OH270018   4.098   0.493  13.345 -0.4362 -0.2817 -0.5984
16176TIP3    H170019   4.067   0.410  13.382 -0.3537  0.6215  1.6287
16176TIP3    H270020   4.020   0.549  13.343 -0.5289 -0.4001 -2.2536
16177TIP3   OH270021   5.192   2.668   5.562 -0.3582 -0.0823  0.4216
16177TIP3    H170022   5.251   2.729   5.607 -0.6393 -1.4117  2.7140
16177TIP3    H270023   5.104   2.700   5.583 -0.5397  0.9124 -1.6002
16178TIP3   OH270024   5.693   6.060   4.433 -0.6717 -0.1229  0.0749
16178TIP3    H170025   5.599   6.064   4.416 -1.0222 -0.1805  1.8742
16178TIP3    H270026   5.706   5.976   4.476  0.3811 -0.5511 -1.0114
16179TIP3   OH270027   6.177   1.974   5.795  0.2619  0.0115 -0.4496
16179TIP3    H170028   6.228   2.055   5.791  1.3544 -0.6215  0.0670
16179TIP3    H270029   6.243   1.905   5.792 -0.4252 -0.8284  1.8344
16180TIP3   OH270030   2.505   1.206  16.831  0.0833 -0.2455  0.1013
16180TIP3    H170031   2.478   1.174  16.745  1.6085 -2.1511  0.2438
16180TIP3    H270032   2.600   1.215  16.824  0.1776 -0.0139  1.4435
16181TIP3   OH270033   4.517   2.850  16.895  0.5637 -0.0557  0.2393
16181TIP3    H170034   4.444   2.824  16.838  0.6985  0.9178 -0.3943
16181TIP3    H270035   4.505   2.798  16.974 -1.8301  1.3155  0.8758
16182TIP3   OH270036   3.765   4.611  14.297 -0.7339 -0.4215  0.3848
16182TIP3    H170037   3.714   4.688  14.319  0.1582 -0.3578  2.5759
16182TIP3    H270038   3.856   4.640  14.305 -0.3748 -1.2673 -0.4686
16183TIP3   OH270039   0.676   3.674   1.860  0.0106  0.0110  0.4529
16183TIP3    H170040   0.673   3.750   1.802 -1.1726  0.6719  1.3356
16183TIP3    H270041   0.602   3.620   1.832  0.4193 -0.4672  0.2939
16184TIP3   OH270042   3.310   3.272   6.275 -0.0013 -0.0018 -0.2344
16184TIP3    H170043   3.344   3.362   6.279 -0.0648  0.0829 -1.4001
16184TIP3    H270044   3.387   3.217   6.290 -0.0213  0.2342  0.8462
16185TIP3   OH270045   5.551   5.405   4.900  0.2131  0.3458 -0.3224
16185TIP3    H170046   5.492   5.456   4.955  0.5022 -0.4297  0.7502
16185TIP3    H270047   5.528   5.314   4.919  1.0783  0.0497 -0.6461
16186TIP3   OH270048   2.738   0.145   2.403 -0.7004  0.0137 -0.0465
16186TIP3    H170049   2.772   0.207   2.339 -0.8079 -0.4121 -0.5186
16186TIP3    H270050   2.816   0.104   2.440 -0.6100  0.6816  0.5347
16187TIP3   OH270051   1.007   1.549   2.265  0.5948 -0.3257 -0.0299
16187TIP3    H170052   1.060   1.469   2.263  0.4965 -0.4215  0.8098
16187TIP3    H270053   1.071   1.620   2.261  0.7155 -0.4425 -0.2019
16188TIP3   OH270054   3.434   1.211   6.362 -0.9801  0.4979  0.3021
16188TIP3    H170055   3.425   1.287   6.419 -0.4641  0.5459  0.3183
16188TIP3    H270056   3.346   1.198   6.326 -1.0545  1.1390  0.2459
16189TIP3   OH270057   1.004   1.663  12.896  0.5204  0.3527  0.2903
16189TIP3    H170058   1.019   1.757  12.889  0.7448  0.2561 -0.6201
16189TIP3    H270059   0.937   1.644  12.830  0.6735 -0.1632  0.2737
16190TIP3   OH270060   5.314   1.928  14.824 -0.6053 -0.3073 -0.2054
16190TIP3    H170061   5.387   1.904  14.881 -1.2881  0.6266  1.0945
16190TIP3    H270062   5.345   1.905  14.736  1.1802 -0.1100  0.3217
16191TIP3   OH270063   1.236   4.492   3.944  0.0193 -0.0526 -0.3810
16191TIP3    H170064   1.252   4.583   3.970  1.5972 -0.4030 -0.0020
16191TIP3    H270065   1.299   4.442   3.996 -0.8652 -1.3768 -0.5477
16192TIP3   OH270066   5.629   0.524   1.298  0.2919  0.4625  0.2354
16192TIP3    H170067   5.585   0.515   1.382 -1.8984  0.9127 -0.7935
16192TIP3    H270068   5.596   0.451   1.245 -0.4611  1.6979 -1.0679
16193TIP3   OH270069   2.462   2.776  12.173 -0.0361  0.1844  0.3042
16193TIP3    H170070   2.520   2.718  12.125 -0.3481  0.0060  0.1400
16193TIP3    H270071   2.520   2.832  12.224  0.2466 -1.2810  1.6636
16194TIP3   OH270072   2.139   4.618   3.249  0.6314  0.3695  0.8000
16194TIP3    H170073   2.074   4.665   3.300 -0.1992  0.0926  0.0247
16194TIP3    H270074   2.113   4.633   3.158  0.8307 -0.8928  0.5177
16195TIP3   OH270075   1.709   1.762   0.202 -0.0044 -0.4890 -0.1133
16195TIP3    H170076   1.614   1.769   0.208  0.0524 -0.2355  0.6690
16195TIP3    H270077   1.732   1.809   0.122 -0.3624  1.4088  0.8394
16196TIP3   OH270078   4.555   5.536  16.586 -0.6241 -0.0998  0.5460
16196TIP3    H170079   4.589   5.495  16.507  0.2080  1.3531  0.0935
16196TIP3    H270080   4.557   5.467  16.652  0.6451 -0.8119 -0.1866
16197TIP3   OH270081   4.236   4.109   3.389 -0.0125  0.2152  0.3223
16197TIP3    H170082   4.281   4.124   3.472  1.2434 -1.7363  0.0674
16197TIP3    H270083   4.298   4.058   3.337 -0.0573  2.7325 -2.5189
16198TIP3   OH270084   3.275   6.750   1.251 -0.1827  0.4404  0.0176
16198TIP3    H170085   3.292   6.813   1.181  2.5310  0.3446  0.4852
16198TIP3    H270086   3.326   6.782   1.325 -0.0877 -1.3802  0.7998
16199TIP3   OH270087   3.571   0.524  15.679 -0.8663 -0.0423  0.4973
16199TIP3    H170088   3.566   0.614  15.712 -2.8949 -0.1081  0.5117
16199TIP3    H270089   3.563   0.469  15.757 -2.0344 -0.1966  0.2964
16200TIP3   OH270090   3.241   1.368  10.571 -0.1799  0.0617  0.4499
16200TIP3    H170091   3.241   1.276  10.546  1.7203  0.1450  0.0015
16200TIP3    H270092   3.168   1.406  10.522 -0.7923 -1.1229  0.3988
16201TIP3   OH270093   2.709   1.005  13.224 -0.4647  0.6870 -0.2986
16201TIP3    H170094   2.615   1.023  13.233 -0.6607  0.3258 -1.4780
16201TIP3    H270095   2.750   1.053  13.296 -1.5745  0.6510  0.3764
16202TIP3   OH270096   1.516   5.107   1.598  0.6879  0.1131  0.5491
16202TIP3    H170097   1.592   5.088   1.544 -0.3967  0.1272 -1.0494
16202TIP3    H270098   1.550   5.160   1.670  1.9488  1.5619 -1.0370
16203TIP3   OH270099   2.274   6.579  11.889 -0.6271 -0.1305  0.2782
16203TIP3    H170100   2.320   6.648  11.936 -1.0433  0.2179  0.1871
16203TIP3    H270101   2.287   6.501  11.941  2.0740 -0.5934 -0.9397
16204TIP3   OH270102   1.105   0.326  15.091  0.1871 -0.3476 -0.1728
16204TIP3    H170103   1.036   0.391  15.079  0.8289  0.7965  1.8373
16204TIP3    H270104   1.127   0.298  15.003 -2.0666  0.0528 -0.9353
16205TIP3   OH270105   4.438   1.739   1.734 -0.2719 -0.3523  0.4783
16205TIP3    H170106   4.364   1.793   1.705 -0.8926 -0.4507  1.7917
16205TIP3    H270107   4.450   1.674   1.665  0.2926  1.2417 -1.0015
16206TIP3   OH270108   6.771   1.372   5.851 -0.0882  0.3627 -0.0323
16206TIP3    H170109   6.749   1.464   5.867  0.2619  0.4482 -0.0274
16206TIP3    H270110   6.760   1.329   5.935 -2.1843 -0.0094 -0.4509
16207TIP3   OH270111   3.532   2.925   3.325  0.4652  0.0376 -0.4944
16207TIP3    H170112   3.547   2.974   3.406  1.0221  0.8654 -1.0888
16207TIP3    H270113   3.440   2.898   3.331 -0.4189  2.6787 -0.9288
16208TIP3   OH270114   2.674   5.721  17.039 -0.1175 -0.0768  0.1212
16208TIP3    H170115   2.653   5.808  17.072  0.3877  0.5659 -1.1630
16208TIP3    H270116   2.675   5.731  16.944  0.4625 -1.3662 -0.0368
16209TIP3   OH270117   6.146   3.281   4.432 -0.2212 -0.1551 -0.0189
16209TIP3    H170118   6.170   3.374   4.439 -0.8104  0.1514 -1.5842
16209TIP3    H270119   6.082   3.267   4.502  0.6975  0.3076  0.9470
16210TIP3   OH270120   6.757   6.247  16.686  0.1484 -0.7771 -0.1702
16210TIP3    H170121   6.779   6.185  16.755  1.1920  2.4007  2.6444
16210TIP3    H270122   6.661   6.245  16.681  0.0155 -0.9028  1.6558
16211TIP3   OH270123   3.891   2.592  11.415 -0.6604 -0.0523  0.0694
16211TIP3    H170124   3.985   2.574  11.410 -0.4521  1.1523 -1.1840
16211TIP3    H270125   3.849   2.507  11.401  0.2352 -0.6347  0.8507
16212TIP3   OH270126   6.584   5.811  15.818  0.2100 -0.2523 -0.3355
16212TIP3    H170127   6.543   5.753  15.882  0.4006  0.6196  0.6136
16212TIP3    H270128   6.666   5.767  15.794  0.3093 -0.4152  0.2950
16213TIP3   OH270129   3.236   4.406   4.961  0.7495  0.1985 -0.0741
16213TIP3    H170130   3.229   4.336   4.896 -0.6976  0.1703  0.0766
16213TIP3    H270131   3.330   4.417   4.974  1.0297 -0.9391 -0.9349
16214TIP3   OH270132   3.402   6.595  13.373 -0.1690 -0.2173  0.0457
16214TIP3    H170133   3.364   6.544  13.302 -0.0280 -1.6568  0.9756
16214TIP3    H270134   3.401   6.685  13.340 -1.9434 -0.5573 -0.9866
16215TIP3   OH270135   0.654   1.704   0.649  0.5076 -0.6489  0.1047
16215TIP3    H170136   0.615   1.677   0.566  5.1124 -0.2799 -2.5320
16215TIP3    H270137   0.618   1.791   0.665 -0.1438 -0.5099 -1.8219
16216TIP3   OH270138   5.521   0.753  15.275  0.2102  0.4488  0.3081
16216TIP3    H170139   5.527   0.841  15.239 -0.4933  0.8861  1.2070
16216TIP3    H270140   5.611   0.731  15.301  0.2649  1.2080  0.7794
16217TIP3   OH270141   0.337   4.053  13.506 -0.5634 -0.1475 -0.7780
16217TIP3    H170142   0.392   4.129  13.487 -0.2121  0.5532  2.3786
16217TIP3    H270143   0.375   3.982  13.454  1.4439  1.0081 -1.0139
16218TIP3   OH270144   3.431   6.480   3.205  0.3135 -0.6187 -0.5763
16218TIP3    H170145   3.496   6.506   3.270 -0.3600 -1.3529  0.4126
16218TIP3    H270146   3.432   6.384   3.207 -1.0397 -0.6427 -0.2782
16219TIP3   OH270147   3.998   1.669  11.268  0.0290  0.1057  0.0449
16219TIP3    H170148   3.935   1.679  11.197 -0.3949 -0.2331  0.3655
16219TIP3    H270149   3.957   1.605  11.327  1.3441 -1.2819 -0.4964
16220TIP3   OH270150   3.985   3.342   4.989  0.2502 -0.2268 -0.3380
16220TIP3    H170151   3.949   3.300   4.911 -2.3241  0.5570  0.3288
16220TIP3    H270152   4.009   3.430   4.960  0.9436 -0.4901 -0.5984
16221TIP3   OH270153   6.221   5.249   1.358  0.3039  0.7181 -0.3851
16221TIP3    H170154   6.275   5.302   1.299  1.3257 -0.8445 -0.9322
16221TIP3    H270155   6.276   5.173   1.378 -1.0814 -0.1134  0.3816
16222TIP3   OH270156   4.437   6.331   5.053  0.0776  0.0408 -0.0676
16222TIP3    H170157   4.472   6.420   5.049 -0.1836  0.1639  0.3403
16222TIP3    H270158   4.393   6.326   5.137  0.3190 -0.5651  0.0291
16223TIP3   OH270159   5.683   2.202  11.079 -0.3890 -0.0034  0.3251
16223TIP3    H170160   5.741   2.272  11.048 -1.2765  0.8273  0.5145
16223TIP3    H270161   5.743   2.133  11.108  0.4979  0.7109  0.2394
16224TIP3   OH270162   5.235   3.178  15.904  0.1501 -0.8455 -0.3689
16224TIP3    H170163   5.291   3.239  15.855  0.4327 -2.0845 -1.6231
16224TIP3    H270164   5.295   3.130  15.961  0.1120 -0.9149 -0.3869
16225TIP3   OH270165   5.648   1.559  16.577 -0.3426  0.1446 -0.1049
16225TIP3    H170166   5.714   1.529  16.515  0.1301  1.9795 -0.5398
16225TIP3    H270167   5.677   1.525  16.662  1.1325  0.8125 -0.3069
16226TIP3   OH270168   0.284   1.738   3.558  0.5207  0.0623  0.1655
16226TIP3    H170169   0.258   1.821   3.519 -0.1152  0.0495  0.5580
16226TIP3    H270170   0.334   1.694   3.489 -1.9951 -0.7029 -1.2914
16227TIP3   OH270171   5.866   5.026  13.083 -0.0558  0.4049  0.1848
16227TIP3    H170172   5.821   4.958  13.132 -1.4214  1.1637  0.0104
16227TIP3    H270173   5.864   4.996  12.992 -0.1327  0.3994  0.1886
16228TIP3   OH270174   1.129   4.566   1.652  0.4455  0.5301  0.0832
16228TIP3    H170175   1.041   4.530   1.661  1.2795 -1.5498  0.6546
16228TIP3    H270176   1.187   4.490   1.662  2.3051  1.8110 -0.3747
16229TIP3   OH270177   5.642   4.410   5.720 -0.0162  0.4721  0.0405
16229TIP3    H170178   5.637   4.494   5.766  0.1560  1.1610 -1.1616
16229TIP3    H270179   5.638   4.433   5.628  0.4497 -0.8161 -0.3220
16230TIP3   OH270180   1.118   3.794  16.354  0.1132 -0.0771  0.0228
16230TIP3    H170181   1.196   3.739  16.353  0.3810  0.3020 -0.5018
16230TIP3    H270182   1.089   3.793  16.445  1.7851  1.2446  0.6149
16231TIP3   OH270183   1.927   0.261  14.692 -0.5530  0.3237  0.4120
16231TIP3    H170184   1.939   0.336  14.633  0.2318 -0.4211 -0.4118
16231TIP3    H270185   1.856   0.287  14.750  0.2493  2.0433  0.7004
16232TIP3   OH270186   0.742   2.582  15.321 -0.1137 -0.2434 -0.0340
16232TIP3    H170187   0.690   2.657  15.349 -0.3033 -0.2735 -0.2959
16232TIP3    H270188   0.821   2.620  15.283  0.3206 -0.2143  0.8707
16233TIP3   OH270189   2.130   4.240  12.406  0.2355 -0.1545 -0.4324
16233TIP3    H170190   2.150   4.308  12.470 -0.3820 -0.9221  0.6200
16233TIP3    H270191   2.084   4.285  12.336  1.2005  0.7583 -0.4962
16234TIP3   OH270192   1.486   3.726   1.570  0.0605  0.3453  0.7918
16234TIP3    H170193   1.435   3.717   1.651  1.2078  1.3280  1.6602
16234TIP3    H270194   1.556   3.661   1.578  0.0060  0.2391  0.4366
16235TIP3   OH270195   0.994   5.198  10.942 -0.2073  0.4553 -0.0355
16235TIP3    H170196   0.924   5.166  10.886 -1.5508  1.9076  0.7293
16235TIP3    H270197   1.011   5.126  11.003 -0.9141  0.0144 -0.3486
16236TIP3   OH270198   1.323   2.737   0.151 -0.4207 -0.3400  0.8833
16236TIP3    H170199   1.300   2.768   0.239 -0.3020  2.7198 -0.0566
16236TIP3    H270200   1.413   2.767   0.138 -0.7632  0.1079 -0.6311
16237TIP3   OH270201   0.075   5.729  13.609  0.2839 -0.1505  0.0614
16237TIP3    H170202   0.093   5.763  13.521  0.9501  0.0427  0.2707
16237TIP3    H270203   0.072   5.807  13.665 -2.9475  0.0548 -0.2123
16238TIP3   OH270204   3.536   3.457  17.187  0.3029  0.4365 -0.8538
16238TIP3    H170205   3.471   3.395  17.219  1.3927 -0.3353 -0.0840
16238TIP3    H270206   3.619   3.427  17.223  0.9177  2.1580 -0.7166
16239TIP3   OH270207   2.719   4.055  17.007 -0.8031  0.2060  0.7717
16239TIP3    H170208   2.784   4.112  16.968  1.1006 -0.8073  2.2407
16239TIP3    H270209   2.684   4.105  17.081  0.1366 -0.1002  1.4521
16240TIP3   OH270210   4.668   4.337   0.830 -0.4965 -0.2078  0.3085
16240TIP3    H170211   4.681   4.254   0.874 -0.9370  0.3257  1.4812
16240TIP3    H270212   4.574   4.354   0.838 -0.3498  0.5843  0.4048
16241TIP3   OH270213   5.345   1.929  12.412 -0.3393  0.1188  0.0060
16241TIP3    H170214   5.399   1.985  12.467  0.4190  0.1843 -0.7738
16241TIP3    H270215   5.292   1.990  12.360 -1.0268  0.0586  0.6268
16242TIP3   OH270216   3.854   5.026   5.033 -0.0918  0.4195 -0.1086
16242TIP3    H170217   3.880   5.051   5.121  1.1060 -1.4667  0.1455
16242TIP3    H270218   3.842   5.108   4.986  1.3422  1.4376  1.2288
16243TIP3   OH270219   1.640   6.757   1.230  0.0713 -0.0288 -0.0914
16243TIP3    H170220   1.577   6.691   1.201 -0.3047  0.7084 -0.9971
16243TIP3    H270221   1.600   6.794   1.309  0.9720 -1.8510  1.3206
16244TIP3   OH270222   0.340   5.492   2.927 -0.4018  0.0729  0.4505
16244TIP3    H170223   0.430   5.464   2.943 -0.0923  1.3640  1.0483
16244TIP3    H270224   0.334   5.499   2.832 -0.6277 -2.3642  0.2157
16245TIP3   OH270225   4.973   2.961   2.942  0.0071  0.0471  0.0292
16245TIP3    H170226   4.911   3.034   2.939 -0.9077 -0.6172  1.4401
16245TIP3    H270227   4.941   2.900   2.875  0.7472  0.8832 -1.1211
16246TIP3   OH270228   1.042   1.258  11.154  0.1915 -0.6561 -0.4833
16246TIP3    H170229   1.078   1.207  11.227 -1.2703  0.7788  1.3398
16246TIP3    H270230   1.086   1.223  11.077  0.3108 -3.6857  0.8088
16247TIP3   OH270231   3.141   0.555   1.853 -0.5499 -0.8130  0.1051
16247TIP3    H170232   3.189   0.625   1.809 -0.0575 -1.2804 -0.1109
16247TIP3    H270233   3.123   0.491   1.784  0.9863 -1.9662  0.7129
16248TIP3   OH270234   3.375   4.798   0.775 -0.3650  0.0896  0.1561
16248TIP3    H170235   3.320   4.873   0.797 -1.0577 -0.3112 -0.1607
16248TIP3    H270236   3.428   4.828   0.701 -0.7106  0.2340 -0.0334
16249TIP3   OH270237   5.550   5.587   5.747 -0.1926 -0.5260 -0.4106
16249TIP3    H170238   5.532   5.664   5.801 -0.9603  0.2153 -1.6693
16249TIP3    H270239   5.488   5.521   5.778 -0.0119 -0.4095  0.2074
16250TIP3   OH270240   5.968   0.149   5.034 -0.0135  0.1020  0.1772
16250TIP3    H170241   6.025   0.086   5.079  0.3103  1.7084  2.1485
16250TIP3    H270242   6.028   0.204   4.984 -0.1594 -0.1979 -0.3370
16251TIP3   OH270243   3.012   4.521  12.232 -0.1442  0.0112 -0.5932
16251TIP3    H170244   3.069   4.575  12.287 -1.0734  0.1810  0.2372
16251TIP3    H270245   2.932   4.573  12.222 -0.8470 -0.9734 -0.2424
16252TIP3   OH270246   2.260   3.942   3.952  1.3971 -0.1501 -0.2109
16252TIP3    H170247   2.340   3.981   3.915  1.6732  0.2359  0.7391
16252TIP3    H270248   2.287   3.913   4.039 -0.0703  2.2484  1.1660
16253TIP3   OH270249   5.933   4.343   1.977 -0.2524 -0.2398  0.1412
16253TIP3    H170250   5.895   4.255   1.975 -2.0537  0.5092  0.2763
16253TIP3    H270251   5.989   4.343   2.055 -1.1295 -0.9124  0.7794
16254TIP3   OH270252   5.011   3.350   5.373 -0.6249  0.3448 -0.3339
16254TIP3    H170253   5.045   3.371   5.460  1.6393  0.5444 -1.2132
16254TIP3    H270254   4.971   3.432   5.343 -0.1756  0.6803 -0.0275
16255TIP3   OH270255   3.516   1.891   0.361  0.4688 -0.6302 -0.4551
16255TIP3    H170256   3.550   1.811   0.319  2.6606 -0.3197  0.6200
16255TIP3    H270257   3.481   1.861   0.445 -0.3609 -0.6836 -0.8061
16256TIP3   OH270258   2.285   5.479   1.785  0.2849  0.3763  0.5496
16256TIP3    H170259   2.288   5.426   1.865  0.0356 -1.2545 -0.4928
16256TIP3    H270260   2.346   5.551   1.803 -0.6947  0.7771  2.6884
16257TIP3   OH270261   0.557   6.323  13.550 -0.2348 -0.5575  0.4012
16257TIP3    H170262   0.587   6.330  13.641  0.5105 -2.5010  0.3577
16257TIP3    H270263   0.634   6.291  13.502  0.0206  2.3071 -1.3567
16258TIP3   OH270264   5.754   4.750  12.163  0.5142 -0.2496  0.2359
16258TIP3    H170265   5.798   4.709  12.238  1.0860  0.3176  0.2185
16258TIP3    H270266   5.825   4.774  12.104  0.1191 -0.0221 -0.1480
16259TIP3   OH270267   3.716   1.551  16.944 -0.3232 -0.3134 -0.4732
16259TIP3    H170268   3.641   1.500  16.914 -1.2679  0.2077  0.8945
16259TIP3    H270269   3.678   1.627  16.987  0.9735 -0.2828  0.7049
16260TIP3   OH270270   0.326   1.014   6.032  0.3849  0.4842  0.9191
16260TIP3    H170271   0.402   1.026   6.088  0.0737 -3.6725  2.6426
16260TIP3    H270272   0.350   0.941   5.975 -1.3245  0.9627 -0.5067
16261TIP3   OH270273   2.073   1.275  14.929  0.2117 -0.1861 -0.3528
16261TIP3    H170274   2.140   1.223  14.884  0.1241 -0.7000  0.1175
16261TIP3    H270275   2.062   1.233  15.014 -0.5500  0.0317 -0.3387
16262TIP3   OH270276   1.567   5.134  11.725 -0.2336  0.5027 -0.4651
16262TIP3    H170277   1.527   5.173  11.802 -5.1691 -2.5106 -1.0758
16262TIP3    H270278   1.534   5.186  11.652  1.5151  1.1540 -0.8571
16263TIP3   OH270279   2.225   6.795  14.067 -0.6121  0.3212 -0.4046
16263TIP3    H170280   2.235   6.753  13.982  0.5752  0.5444 -0.3909
16263TIP3    H270281   2.291   6.752  14.123 -1.6227 -0.0916  0.5199
16264TIP3   OH270282   0.432   5.737   5.130 -0.0734  0.0255 -0.0011
16264TIP3    H170283   0.471   5.665   5.180 -1.2278 -1.0234 -0.5730
16264TIP3    H270284   0.454   5.719   5.039  0.2709  0.8206 -0.0895
16265TIP3   OH270285   1.170   1.797  16.993  0.1157 -0.4216 -0.1383
16265TIP3    H170286   1.213   1.782  17.077 -0.7171  1.0399  0.6141
16265TIP3    H270287   1.215   1.873  16.956 -1.0045  0.4121  0.1278
16266TIP3   OH270288   4.878   4.348  15.388  0.0993  0.3128 -0.6384
16266TIP3    H170289   4.818   4.396  15.444  0.6486  1.3228 -0.8975
16266TIP3    H270290   4.930   4.295  15.449 -1.2875 -0.8881 -0.4429
16267TIP3   OH270291   6.262   1.771   1.519  0.1607 -0.3007 -0.2819
16267TIP3    H170292   6.254   1.750   1.612  0.1084  1.0727  0.0401
16267TIP3    H270293   6.356   1.770   1.503  0.1393 -4.1152 -1.1272
16268TIP3   OH270294   4.037   6.263   1.934 -0.3050 -0.0408 -0.1861
16268TIP3    H170295   4.110   6.251   1.994 -0.7729  2.2553  0.9579
16268TIP3    H270296   3.991   6.179   1.935  1.0410 -0.8065  0.8119
16269TIP3   OH270297   5.298   6.802  16.936  0.5873  0.2884 -0.1896
16269TIP3    H170298   5.279   6.803  17.030 -2.0524  1.6295 -0.6349
16269TIP3    H270299   5.369   6.865  16.925  0.7913  0.2639  0.8750
16270TIP3   OH270300   0.833   3.362  11.752  0.4958  0.4701 -0.0493
16270TIP3    H170301   0.776   3.318  11.689 -0.9065  2.2182 -0.0879
16270TIP3    H270302   0.778   3.372  11.830  2.0006 -1.1095  1.2939
16271TIP3   OH270303   5.119   1.107   2.760  0.1883 -0.3082 -0.2395
16271TIP3    H170304   5.141   1.195   2.729 -1.5677  0.1119 -0.4139
16271TIP3    H270305   5.191   1.051   2.729  1.2081  1.0118 -0.3281
16272TIP3   OH270306   0.970   2.584  12.487  0.4266 -0.3072 -0.2835
16272TIP3    H170307   1.033   2.646  12.523 -0.6007  0.0412  1.0228
16272TIP3    H270308   0.955   2.614  12.398  0.3628  1.0240  0.1499
16273TIP3   OH270309   2.934   0.019  12.923  0.1808  0.7326  0.1238
16273TIP3    H170310   2.953   0.078  12.851 -0.5145  1.3348  0.4147
16273TIP3    H270311   2.949   0.071  13.002 -0.6878  0.6181  0.3814
16274TIP3   OH270312   5.043   6.503  17.281  0.0090  0.0223  0.2769
16274TIP3    H170313   4.952   6.507  17.312  0.6630  1.2897  2.2083
16274TIP3    H270314   5.043   6.553  17.199 -1.1671 -0.6907 -0.1860
16275TIP3   OH270315   4.844   6.488  13.153  0.2694 -0.5640 -0.0142
16275TIP3    H170316   4.890   6.423  13.207  1.8770  0.0250 -0.6181
16275TIP3    H270317   4.756   6.452  13.142  0.4328 -1.5431  1.5248
16276TIP3   OH270318   2.676   3.272  10.607  0.5447  0.3463  0.6630
16276TIP3    H170319   2.677   3.204  10.674 -0.6792 -0.8547 -0.4622
16276TIP3    H270320   2.583   3.284  10.587  0.8642  0.8604 -0.6123
16277TIP3   OH270321   3.253   2.678  16.029  0.5044 -0.0884  0.1422
16277TIP3    H170322   3.230   2.590  16.057 -1.6710  0.1068 -0.8141
16277TIP3    H270323   3.175   2.731  16.047  1.5660  1.5447  0.2168
16278TIP3   OH270324   0.998   0.135  11.843 -0.6378  0.6924  0.3675
16278TIP3    H170325   0.922   0.188  11.867  0.7468  3.4940 -0.9361
16278TIP3    H270326   0.979   0.103  11.755 -1.0971 -0.3181  0.8154
16279TIP3   OH270327   4.209   5.961   3.878  0.6101 -0.0577  0.3192
16279TIP3    H170328   4.221   5.866   3.870 -1.3184 -0.2718 -0.8570
16279TIP3    H270329   4.115   5.972   3.893  0.6170  1.7043 -0.6030
16280TIP3   OH270330   3.873   1.577  17.247 -0.3692  0.3118 -0.4855
16280TIP3    H170331   3.816   1.602  17.320 -1.2381 -0.0102 -1.0423
16280TIP3    H270332   3.897   1.660  17.206 -0.5467  0.4406 -0.3296
16281TIP3   OH270333   1.380   2.130  15.773  0.1530 -0.4704 -0.2064
16281TIP3    H170334   1.323   2.054  15.758 -0.1243 -0.3222  0.1062
16281TIP3    H270335   1.365   2.186  15.696  0.3397 -0.7168 -0.4262
16282TIP3   OH270336   6.761   5.902   6.527  0.1994  0.1729 -0.3860
16282TIP3    H170337   6.822   5.902   6.453 -0.1022 -2.2605 -0.7092
16282TIP3    H270338   6.750   5.809   6.549  0.4734  0.7979  2.8978
16283TIP3   OH270339   6.254   1.965   4.987 -0.0455  0.0423 -0.2010
16283TIP3    H170340   6.300   2.004   4.912  0.3460  1.8251  0.9193
16283TIP3    H270341   6.190   1.906   4.947  2.1573 -1.4070 -1.8522
16284TIP3   OH270342   0.814   3.144   0.350 -0.2921 -0.0951 -0.7134
16284TIP3    H170343   0.855   3.222   0.388  0.0950 -0.2609 -0.7788
16284TIP3    H270344   0.721   3.162   0.352 -0.3203 -0.2287  0.6510
16285TIP3   OH270345   6.132   1.036  14.421 -0.3074  0.6763  0.4224
16285TIP3    H170346   6.135   1.126  14.391 -0.5340  0.6133  0.2075
16285TIP3    H270347   6.047   1.004  14.391 -0.3533  0.4842  0.7565
16286TIP3   OH270348   0.227   1.498  17.173 -0.4842 -0.1800  0.2488
16286TIP3    H170349   0.140   1.516  17.208 -1.2683  0.5332 -1.9241
16286TIP3    H270350   0.220   1.410  17.136 -0.0331 -0.4318  0.7484
16287TIP3   OH270351   0.516   3.361   0.955  0.1752 -0.1521  0.2261
16287TIP3    H170352   0.453   3.289   0.948 -1.2311  0.8312  1.9055
16287TIP3    H270353   0.491   3.407   1.036  2.7538  0.5894  0.6928
16288TIP3   OH270354   0.180   1.711  16.482 -0.6756 -0.3345  0.1595
16288TIP3    H170355   0.180   1.672  16.394 -0.3420 -0.7162  0.3237
16288TIP3    H270356   0.264   1.755  16.488 -1.0788  0.4775 -0.0462
16289TIP3   OH270357   0.370   1.991   2.768 -0.1982  0.0760  0.9676
16289TIP3    H170358   0.332   2.068   2.727  0.2534 -0.2549 -0.1181
16289TIP3    H270359   0.306   1.964   2.833 -0.9694  0.5872  0.4335
16290TIP3   OH270360   3.812   5.423  12.934  0.5995 -0.1343 -0.1731
16290TIP3    H170361   3.807   5.442  13.028  1.0656 -1.5010  0.1539
16290TIP3    H270362   3.905   5.411  12.917  0.4830 -0.2882 -0.7291
16291TIP3   OH270363   0.115   6.279   6.006 -0.3595  0.1490 -0.6387
16291TIP3    H170364   0.128   6.346   5.939 -1.9233 -1.0899 -2.2599
16291TIP3    H270365   0.200   6.271   6.049 -0.0969  3.1306 -0.3566
16292TIP3   OH270366   1.173   4.984  11.049 -0.5161  0.8186 -0.0786
16292TIP3    H170367   1.206   4.988  10.959 -0.8273  1.3010 -0.1755
16292TIP3    H270368   1.225   4.915  11.090  1.6712  2.5085  0.2005
16293TIP3   OH270369   0.231   5.844   3.544  0.0641 -0.1920  0.1748
16293TIP3    H170370   0.197   5.775   3.600  2.5202  0.0295  2.1124
16293TIP3    H270371   0.296   5.800   3.488  1.2984  0.4098  1.0909
16294TIP3   OH270372   4.883   0.708   0.902 -0.3577  0.4323 -0.1934
16294TIP3    H170373   4.892   0.689   0.809 -1.5869 -0.5394 -0.1341
16294TIP3    H270374   4.966   0.680   0.941  0.4352  1.4792 -1.0655
16295TIP3   OH270375   5.515   4.295  12.437 -0.1448  0.0812 -0.6414
16295TIP3    H170376   5.554   4.207  12.433 -0.5866 -0.0961 -1.3253
16295TIP3    H270377   5.437   4.288  12.382 -0.1882  0.9038 -0.6861
16296TIP3   OH270378   4.625   3.478  17.042 -0.4331  0.7325  0.1185
16296TIP3    H170379   4.547   3.429  17.069  0.9667 -1.6348  0.2041
16296TIP3    H270380   4.674   3.491  17.123  1.5691 -2.3044 -0.4261
16297TIP3   OH270381   3.151   3.548  15.238 -0.7970 -0.0803 -0.2208
16297TIP3    H170382   3.100   3.581  15.164 -1.7561 -1.9464 -0.4599
16297TIP3    H270383   3.086   3.520  15.302 -0.1272 -1.9215 -0.2667
16298TIP3   OH270384   0.660   5.976  13.034  0.9734  0.1709 -0.1413
16298TIP3    H170385   0.738   5.981  13.089  1.0028  2.4074 -0.2865
16298TIP3    H270386   0.591   5.943  13.093  1.4886  0.4567  0.6408
16299TIP3   OH270387   2.292   1.901  14.991 -0.0042  0.3329  0.4380
16299TIP3    H170388   2.267   1.972  14.932 -1.8394 -0.4350  0.2385
16299TIP3    H270389   2.331   1.945  15.067 -0.3064  1.4858 -0.0616
16300TIP3   OH270390   4.855   1.775   2.806  0.0161  0.4869 -0.0785
16300TIP3    H170391   4.810   1.855   2.835  0.3846  0.7156 -0.1252
16300TIP3    H270392   4.948   1.794   2.819  0.1794  0.4803 -1.1069
16301TIP3   OH270393   1.884   4.741   0.221  0.1112 -0.9005  0.2181
16301TIP3    H170394   1.886   4.758   0.315  1.3071  0.5691 -0.0431
16301TIP3    H270395   1.975   4.723   0.198 -0.1276 -0.9901 -0.7111
16302TIP3   OH270396   6.501   5.179   4.244 -0.1447  0.2902  0.4319
16302TIP3    H170397   6.564   5.198   4.313 -1.6782  1.2905  1.6237
16302TIP3    H270398   6.428   5.136   4.289 -1.1344  0.8656 -0.5621
16303TIP3   OH270399   2.006   0.344   0.533 -0.0932 -0.1382  0.4901
16303TIP3    H170400   2.048   0.258   0.527 -0.0209 -0.3919  3.2003
16303TIP3    H270401   1.931   0.330   0.591 -1.7319  1.1206 -1.2059
16304TIP3   OH270402   3.450   6.012   4.085  0.5559  0.2148 -0.0776
16304TIP3    H170403   3.497   6.061   4.018  0.6572  0.6729  0.3219
16304TIP3    H270404   3.415   5.936   4.039 -1.5761  1.8147 -1.2496
16305TIP3   OH270405   4.378   2.636  11.940  0.0636 -0.4169  0.1183
16305TIP3    H170406   4.310   2.703  11.952  0.9065  0.4900 -0.0696
16305TIP3    H270407   4.331   2.559  11.908 -0.7634  0.4698 -0.8655
16306TIP3   OH270408   1.998   0.916  12.208 -0.0962  1.0724 -0.6133
16306TIP3    H170409   2.014   0.893  12.117 -2.2704 -0.6519 -0.6405
16306TIP3    H270410   1.904   0.903  12.220  0.2517  0.4548  2.0831
16307TIP3   OH270411   0.869   4.648  15.035 -0.3154  0.0071  0.7360
16307TIP3    H170412   0.785   4.653  14.990  0.4550  1.1237 -0.6478
16307TIP3    H270413   0.931   4.687  14.974  1.5843 -2.5476  0.8894
16308TIP3   OH270414   5.728   1.591  12.111  0.6416  0.3570  0.1797
16308TIP3    H170415   5.820   1.583  12.085  0.2346 -1.7281 -0.8344
16308TIP3    H270416   5.685   1.631  12.035  0.4803  0.0381  0.1026
16309TIP3   OH270417   2.171   0.682  14.935  0.3391  0.7098  0.5504
16309TIP3    H170418   2.081   0.713  14.931  0.5045  1.1998  0.5231
16309TIP3    H270419   2.224   0.762  14.935  0.8007  0.4115 -0.0688
16310TIP3   OH270420   0.116   3.186   0.359 -0.9483  0.3933 -1.2709
16310TIP3    H170421   0.157   3.201   0.444  0.1117 -0.9287 -1.5180
16310TIP3    H270422   0.023   3.197   0.375 -0.7450  0.3640  0.0190
16311TIP3   OH270423   4.734   5.346   2.088  0.2543 -0.0422  0.0263
16311TIP3    H170424   4.687   5.352   2.005 -0.6615 -2.0003  0.3571
16311TIP3    H270425   4.668   5.320   2.152  1.5379 -1.7732  0.7333
16312TIP3   OH270426   5.265   3.247   5.155 -0.3785  0.1697  0.0309
16312TIP3    H170427   5.313   3.291   5.226  1.1903  2.0071 -2.0395
16312TIP3    H270428   5.223   3.173   5.198  1.5921  0.3963  2.6313
16313TIP3   OH270429   1.130   6.446   5.091  0.1785 -0.3851 -0.0414
16313TIP3    H170430   1.139   6.417   5.000  1.8842 -0.6191  0.1700
16313TIP3    H270431   1.209   6.499   5.106  0.0363 -0.5632  1.3812
16314TIP3   OH270432   4.428   6.794   4.393  0.1848 -0.9516 -0.2361
16314TIP3    H170433   4.479   6.842   4.329  1.2498 -1.4263  0.2421
16314TIP3    H270434   4.491   6.740   4.440 -0.8127 -1.9297  0.0425
16315TIP3   OH270435   0.039   0.550   0.785 -0.0901 -0.1823  0.3696
16315TIP3    H170436  -0.020   0.526   0.713  1.6862 -1.8922 -0.6092
16315TIP3    H270437   0.075   0.635   0.758 -1.5053  0.5449  0.6475
16316TIP3   OH270438   1.440   0.091  12.239 -0.3466 -0.1512 -0.3970
16316TIP3    H170439   1.438   0.135  12.154 -0.5541  0.5338 -0.0428
16316TIP3    H270440   1.496   0.145  12.294 -1.2834  0.1499  0.2953
16317TIP3   OH270441   3.400   0.636  11.749  0.9461 -0.0288  0.4546
16317TIP3    H170442   3.411   0.572  11.679  2.6636  1.6492 -0.9011
16317TIP3    H270443   3.489   0.651  11.782  0.1697 -0.8685  3.1283
16318TIP3   OH270444   0.996   0.158  10.538 -0.0475  0.0885 -0.1061
16318TIP3    H170445   1.070   0.110  10.500 -0.1200  1.1451 -1.6752
16318TIP3    H270446   0.921   0.100  10.525  0.3878 -0.7769  1.0497
16319TIP3   OH270447   0.176   2.546   2.054 -0.4748  0.3605  0.0988
16319TIP3    H170448   0.136   2.586   2.131 -0.6721  0.3523 -0.0003
16319TIP3    H270449   0.164   2.611   1.985 -1.5851 -0.2304 -0.2854
16320TIP3   OH270450   1.716   6.569  13.281  0.8641 -0.4294  0.7153
16320TIP3    H170451   1.681   6.658  13.279  0.5850 -0.5329 -1.5720
16320TIP3    H270452   1.678   6.526  13.204  2.3211 -2.0025  0.8082
16321TIP3   OH270453   3.980   6.772  13.178 -0.2279 -0.3605 -0.8926
16321TIP3    H170454   4.043   6.750  13.109 -0.7359  1.3848 -1.9672
16321TIP3    H270455   4.033   6.807  13.249  0.0955  0.5077 -1.5449
16322TIP3   OH270456   1.192   6.608  12.415 -0.0899 -0.1077 -0.2345
16322TIP3    H170457   1.198   6.547  12.342  0.9812  1.6438 -1.6971
16322TIP3    H270458   1.281   6.613  12.450 -0.2373  0.3643  0.0814
16323TIP3   OH270459   5.200   0.357  10.341  0.1499 -0.6182 -0.0245
16323TIP3    H170460   5.194   0.262  10.325 -0.4841 -0.6129  0.1546
16323TIP3    H270461   5.109   0.387  10.340  0.3885  0.1361 -0.9459
16324TIP3   OH270462   1.628   3.967  16.177 -0.0704 -0.4783 -0.5460
16324TIP3    H170463   1.552   3.965  16.236 -0.1904  2.8678 -0.3957
16324TIP3    H270464   1.589   3.979  16.090  0.2437  1.1003 -0.4850
16325TIP3   OH270465   5.109   1.842  15.243 -0.4092  0.0416 -0.4315
16325TIP3    H170466   5.093   1.904  15.172 -0.6553 -0.0317 -0.4423
16325TIP3    H270467   5.184   1.790  15.214 -0.4465  0.0790 -0.5937
16326TIP3   OH270468   2.030   3.038  16.189 -0.1760 -0.0541  0.2956
16326TIP3    H170469   2.004   2.948  16.171 -1.9304  0.8746 -2.4923
16326TIP3    H270470   1.959   3.074  16.241 -0.4847  0.2383 -0.3151
16327TIP3   OH270471   5.574   5.420   1.381  0.3483 -0.1206  0.5147
16327TIP3    H170472   5.487   5.385   1.401  0.7429 -1.9494 -0.7321
16327TIP3    H270473   5.628   5.394   1.457  0.4862 -1.7853 -0.1014
16328TIP3   OH270474   5.075   6.256  12.121  0.0861  0.8766 -0.6914
16328TIP3    H170475   4.981   6.269  12.109  0.1702  1.0839 -1.1314
16328TIP3    H270476   5.098   6.190  12.056 -0.3003 -1.4138  1.3461
16329TIP3   OH270477   1.330   2.336  15.586 -0.0368 -0.0964 -0.1658
16329TIP3    H170478   1.367   2.359  15.501 -0.5373 -1.5959 -0.8218
16329TIP3    H270479   1.236   2.329  15.569 -0.1882 -0.0063  0.6212
16330TIP3   OH270480   6.224   6.097  16.042 -0.5449 -0.1111  0.0804
16330TIP3    H170481   6.281   6.146  15.983  2.0125 -0.4426  2.0903
16330TIP3    H270482   6.220   6.009  16.004  0.4798 -0.1297 -0.0224
16331TIP3   OH270483   5.463   4.007  16.831 -0.0253  0.4408 -0.1949
16331TIP3    H170484   5.465   4.099  16.857  0.7041  0.1507  0.8400
16331TIP3    H270485   5.378   3.975  16.861 -0.0559  0.6451 -0.0645
16332TIP3   OH270486   1.896   3.863   5.467 -0.3228  0.3368  0.0221
16332TIP3    H170487   1.831   3.908   5.521  0.3164  0.1517  0.9808
16332TIP3    H270488   1.845   3.807   5.408 -1.1034  1.8868 -0.8207
16333TIP3   OH270489   0.376   0.478  13.115 -0.2685 -0.4825  0.2296
16333TIP3    H170490   0.386   0.389  13.147 -1.2286 -0.5569  0.3481
16333TIP3    H270491   0.386   0.471  13.020  1.3465 -0.4454  0.3671
16334TIP3   OH270492   0.728   2.127  12.060  1.2290  0.3745  0.0008
16334TIP3    H170493   0.706   2.062  12.127 -1.8233  2.5571  1.3908
16334TIP3    H270494   0.704   2.085  11.977 -0.8654 -0.2705  0.8711
16335TIP3   OH270495   1.283   6.059   2.128 -0.3411 -0.7478 -0.3728
16335TIP3    H170496   1.292   5.971   2.092  1.3752 -1.3265  1.3283
16335TIP3    H270497   1.243   6.046   2.214 -0.9871  0.2465 -0.5094
16336TIP3   OH270498   2.356   1.596   5.578  0.1411  0.4714  0.1044
16336TIP3    H170499   2.317   1.669   5.625  0.6938  1.8390 -1.4902
16336TIP3    H270500   2.449   1.600   5.598  0.3138  0.7918 -0.7435
16337TIP3   OH270501   0.438   0.533   2.695  0.1065  0.8944  0.1271
16337TIP3    H170502   0.439   0.629   2.698 -1.8070  0.9550  0.5314
16337TIP3    H270503   0.356   0.509   2.739 -0.1162 -0.8851 -1.1585
16338TIP3   OH270504   2.192   2.271   3.875  0.3384  0.3202 -0.1122
16338TIP3    H170505   2.165   2.186   3.840 -0.4772  0.5469 -0.0675
16338TIP3    H270506   2.187   2.330   3.800  1.9679  0.1306 -0.4018
16339TIP3   OH270507   0.316   6.263  14.377  0.2545  0.0979 -0.4406
16339TIP3    H170508   0.252   6.196  14.400 -1.5350  1.0992 -2.1542
16339TIP3    H270509   0.319   6.262  14.282  0.1874  2.3850 -0.5341
16340TIP3   OH270510   6.762   0.430  12.564 -0.1725 -0.0668  0.2011
16340TIP3    H170511   6.754   0.335  12.563  0.1342 -0.0924 -0.0436
16340TIP3    H270512   6.725   0.457  12.647  0.8647 -0.4988  0.8226
16341TIP3   OH270513   3.595   6.118   3.894 -0.3742 -0.1735  0.6105
16341TIP3    H170514   3.588   6.214   3.900 -0.8878 -0.0880 -0.8659
16341TIP3    H270515   3.625   6.102   3.805  2.6753 -1.3152  1.7130
16342TIP3   OH270516   3.448   4.767   1.858 -0.1621  0.1311 -0.3324
16342TIP3    H170517   3.375   4.760   1.796  0.0954 -0.9166 -0.5425
16342TIP3    H270518   3.516   4.710   1.821 -0.4239 -1.4682  1.4852
16343TIP3   OH270519   2.843   2.618  15.925 -0.8338 -0.1689  0.5069
16343TIP3    H170520   2.875   2.701  15.961 -0.3416  0.3311 -1.0068
16343TIP3    H270521   2.917   2.558  15.936 -0.0502  0.4450 -1.1659
16344TIP3   OH270522   0.619   1.838  10.804  0.1506  0.7832 -0.2536
16344TIP3    H170523   0.605   1.760  10.751  1.3462  0.8437 -0.6826
16344TIP3    H270524   0.710   1.863  10.788  0.0700  1.7239  0.6033
16345TIP3   OH270525   2.567   1.086   0.484 -0.7383 -0.1605  0.3093
16345TIP3    H170526   2.603   1.000   0.504 -3.1360 -2.0183 -2.4966
16345TIP3    H270527   2.625   1.121   0.416 -0.0074  0.3039  1.1503
16346TIP3   OH270528   1.786   1.147  10.780 -0.1377  0.2692 -0.6120
16346TIP3    H170529   1.817   1.211  10.844  1.4120 -0.0006 -1.0589
16346TIP3    H270530   1.695   1.172  10.764 -0.9369 -0.2199  2.4142
16347TIP3   OH270531   2.757   5.096   1.168  0.1646  0.3610  0.0084
16347TIP3    H170532   2.757   5.002   1.187 -0.2219  0.7652  2.3215
16347TIP3    H270533   2.781   5.137   1.251  1.0942  2.3040 -1.1426
16348TIP3   OH270534   4.750   6.131  17.238  0.0727  0.0187  0.2292
16348TIP3    H170535   4.773   6.094  17.323 -0.0120  0.6554  0.5397
16348TIP3    H270536   4.667   6.091  17.215  0.3643 -0.5701  0.1849
16349TIP3   OH270537   0.631   1.300   2.760 -0.3311  0.8848 -0.4586
16349TIP3    H170538   0.642   1.309   2.666  0.9234 -1.0747 -0.5584
16349TIP3    H270539   0.646   1.387   2.795 -0.2106  1.5098 -2.0085
16350TIP3   OH270540   4.640   5.186  14.842  0.0129  0.2730 -0.1442
16350TIP3    H170541   4.565   5.229  14.802  0.2256  0.9542  0.1670
16350TIP3    H270542   4.686   5.256  14.888 -0.1605 -0.4470  1.1930
16351TIP3   OH270543   3.842   6.423   1.820 -0.6104 -0.5713 -0.2771
16351TIP3    H170544   3.791   6.442   1.899  1.3573  2.5670  0.4232
16351TIP3    H270545   3.926   6.389   1.852 -0.0359  0.0952 -1.0172
16352TIP3   OH270546   2.716   4.482   6.340 -0.4258 -0.0812  0.5810
16352TIP3    H170547   2.675   4.437   6.413 -1.2846 -0.9694 -0.4150
16352TIP3    H270548   2.734   4.570   6.373 -2.1827  0.0169  1.3872
16353TIP3   OH270549   1.274   2.134   1.264 -0.8411 -0.0700  0.2801
16353TIP3    H170550   1.274   2.039   1.266  2.2924 -0.1950  0.2183
16353TIP3    H270551   1.364   2.157   1.238 -1.4892  2.8995  0.2989
16354TIP3   OH270552   5.337   0.571   4.728 -0.1331 -0.2493  0.0372
16354TIP3    H170553   5.405   0.588   4.663 -1.1784  0.6367 -0.8650
16354TIP3    H270554   5.301   0.485   4.703 -0.9336  0.3467 -0.9716
16355TIP3   OH270555   6.037   4.592   2.842  0.3796 -0.1848  0.1401
16355TIP3    H170556   6.096   4.655   2.884  1.0316  0.0346 -1.0595
16355TIP3    H270557   6.031   4.621   2.751 -0.6418 -0.9035 -0.0461
16356TIP3   OH270558   4.302   5.698   5.697  0.0069  0.0463  0.2060
16356TIP3    H170559   4.284   5.624   5.639  0.4429 -0.8691  1.2285
16356TIP3    H270560   4.218   5.716   5.739  0.2588 -0.9267  1.1612
16357TIP3   OH270561   3.351   0.624  14.446  0.4429 -0.0092 -0.0135
16357TIP3    H170562   3.398   0.666  14.519 -0.3786  0.6667  0.1322
16357TIP3    H270563   3.359   0.530  14.464 -1.4340  0.1467  2.0729
16358TIP3   OH270564   0.193   0.401  14.371 -0.9788  0.7333 -0.3279
16358TIP3    H170565   0.256   0.473  14.365  0.2358 -0.0560  1.7991
16358TIP3    H270566   0.107   0.444  14.366 -0.2867  2.1559 -0.5740
16359TIP3   OH270567   0.290   5.255   1.332 -0.0340  0.1277  0.3936
16359TIP3    H170568   0.264   5.185   1.392  2.0081 -1.2057 -0.1631
16359TIP3    H270569   0.277   5.219   1.244  2.1727 -0.1056  0.0923
16360TIP3   OH270570   2.067   0.704  14.642  0.4529 -0.2567  0.5547
16360TIP3    H170571   2.139   0.649  14.672 -0.7073 -0.6733  2.7163
16360TIP3    H270572   2.091   0.792  14.670  2.3577  0.5359 -2.9903
16361TIP3   OH270573   1.885   1.174  15.125 -0.4954 -0.0154  0.2463
16361TIP3    H170574   1.892   1.136  15.213  0.3706  1.8600  1.0335
16361TIP3    H270575   1.796   1.209  15.121 -0.7202 -0.5750  0.1439
16362TIP3   OH270576   4.488   5.877  12.155 -0.2007  0.3504 -0.5922
16362TIP3    H170577   4.561   5.841  12.205  1.2142  2.2724 -1.1876
16362TIP3    H270578   4.410   5.844  12.200  0.9865 -1.3858  0.3290
16363TIP3   OH270579   0.356   3.905   6.105  0.9019 -0.3045 -0.2277
16363TIP3    H170580   0.303   3.847   6.050  1.1360  1.2102 -2.1085
16363TIP3    H270581   0.324   3.993   6.086 -1.3647  0.2400  4.5581
16364TIP3   OH270582   1.987   0.868   2.376  0.4234  0.2032 -0.3619
16364TIP3    H170583   1.964   0.779   2.404 -0.3188  0.6730  0.6002
16364TIP3    H270584   1.945   0.878   2.291  0.5560 -0.3891 -0.4974
16365TIP3   OH270585   1.367   5.174  11.958 -0.3051  0.1404 -0.3408
16365TIP3    H170586   1.372   5.101  11.897 -1.4950 -0.3721  0.1308
16365TIP3    H270587   1.359   5.133  12.044  0.5908  0.8452  0.0888
16366TIP3   OH270588   2.965   4.179   4.020 -0.2811 -0.2783 -0.4751
16366TIP3    H170589   3.026   4.223   4.079 -3.5711 -1.1461  4.1330
16366TIP3    H270590   3.002   4.092   4.008 -0.0721 -0.5062  1.4868
16367TIP3   OH270591   3.789   4.044  16.326 -0.0459 -0.9536  0.0627
16367TIP3    H170592   3.841   3.970  16.356  1.0076 -0.3667 -0.2587
16367TIP3    H270593   3.785   4.034  16.231  1.6855  0.3618 -0.1926
16368TIP3   OH270594   1.112   4.751   2.234 -0.0177 -0.3726 -0.4491
16368TIP3    H170595   1.031   4.703   2.251 -0.2006  0.4811  1.2863
16368TIP3    H270596   1.126   4.803   2.313  2.3752 -0.7214 -0.5826
16369TIP3   OH270597   3.493   5.175   3.903 -0.1210  0.4487  1.1979
16369TIP3    H170598   3.445   5.145   3.980  1.4249 -2.0360  1.2902
16369TIP3    H270599   3.546   5.100   3.876 -1.6598  0.6412 -3.2069
16370TIP3   OH270600   0.816   5.506   3.232  0.3112  0.4103  0.2190
16370TIP3    H170601   0.785   5.568   3.298  0.8573  1.5957 -0.5924
16370TIP3    H270602   0.792   5.420   3.266 -1.0289  1.0967  1.0896
16371TIP3   OH270603   1.301   4.886   5.985  0.2090  0.1478 -0.1025
16371TIP3    H170604   1.335   4.873   6.074  0.2509 -0.3697 -0.1901
16371TIP3    H270605   1.239   4.814   5.973 -1.6528  1.6051  0.3953
16372TIP3   OH270606   6.524   5.442  10.648  0.4554 -0.4268 -0.3283
16372TIP3    H170607   6.533   5.387  10.569  2.1806 -1.4290  0.5060
16372TIP3    H270608   6.431   5.463  10.652  0.4559  0.5050 -3.1799
16373TIP3   OH270609   4.024   2.395  12.880  0.2564  0.2513  0.0075
16373TIP3    H170610   3.929   2.407  12.881  0.3433  0.9845  0.0408
16373TIP3    H270611   4.045   2.357  12.965  0.1219  1.1362  0.4395
16374TIP3   OH270612   2.572   4.904   3.758  0.0639 -0.1981 -0.5094
16374TIP3    H170613   2.499   4.850   3.789 -0.8324  0.8510 -0.7180
16374TIP3    H270614   2.630   4.843   3.714 -0.1943 -1.2210  0.5115
16375TIP3   OH270615   4.861   4.428  13.873 -0.3981 -0.1707 -0.5750
16375TIP3    H170616   4.876   4.504  13.929 -1.5069  0.0723 -0.5832
16375TIP3    H270617   4.948   4.392  13.857  0.0757  0.7054 -0.0229
16376TIP3   OH270618   1.486   6.209   2.388  0.3257 -0.1577 -0.0741
16376TIP3    H170619   1.393   6.226   2.404 -0.0550  0.7140 -2.7418
16376TIP3    H270620   1.529   6.232   2.470 -1.9052 -1.9356  1.7323
16377TIP3   OH270621   5.636   4.125  10.870 -0.3020  0.0429 -0.0397
16377TIP3    H170622   5.702   4.187  10.901  1.9744 -1.9847 -0.6466
16377TIP3    H270623   5.666   4.040  10.899 -1.4267 -1.2328 -2.3506
16378TIP3   OH270624   1.099   0.919   5.003 -0.8276  0.0765  0.2749
16378TIP3    H170625   1.181   0.965   4.984 -0.6709 -0.6196 -0.8658
16378TIP3    H270626   1.095   0.915   5.098 -0.2763  1.4181  0.3672
16379TIP3   OH270627   0.530   2.375   4.129 -0.1627  0.3744  0.2754
16379TIP3    H170628   0.513   2.282   4.116 -1.4117  0.4295  1.2871
16379TIP3    H270629   0.597   2.396   4.065  1.5818 -1.6469  1.3038
16380TIP3   OH270630   0.824   4.058  16.814 -0.3397 -0.0047 -0.0522
16380TIP3    H170631   0.913   4.091  16.808 -0.8788  1.9613  1.6108
16380TIP3    H270632   0.773   4.120  16.761 -0.8913 -0.3008  0.1269
16381TIP3   OH270633   6.710   1.415   5.178  0.5292 -0.1023 -0.3221
16381TIP3    H170634   6.707   1.510   5.186  0.4346 -0.0884 -0.5028
16381TIP3    H270635   6.751   1.400   5.093 -0.8441 -0.1880 -1.0147
16382TIP3   OH270636   5.250   2.469  12.234 -0.3400  0.0216 -0.0205
16382TIP3    H170637   5.256   2.487  12.328 -1.4660  1.2645 -0.1664
16382TIP3    H270638   5.340   2.478  12.202 -0.0111 -0.0207  0.8536
16383TIP3   OH270639   5.463   6.246  12.698  0.1985  1.1849  0.5162
16383TIP3    H170640   5.432   6.316  12.754  0.0395  1.6590 -0.1557
16383TIP3    H270641   5.505   6.184  12.758 -1.8956  0.5828  1.4312
16384TIP3   OH270642   6.030   3.287   3.198  0.1572  0.2091  0.0995
16384TIP3    H170643   6.088   3.212   3.214 -1.5011 -0.5993  3.2740
16384TIP3    H270644   6.086   3.364   3.208  0.8938 -0.5560  2.5744
16385TIP3   OH270645   2.899   1.897   0.487 -0.7523  0.4208  0.2435
16385TIP3    H170646   2.904   1.988   0.458 -1.7725  0.0678 -1.1769
16385TIP3    H270647   2.966   1.890   0.555  0.2669  1.8985 -0.5280
16386TIP3   OH270648   5.310   5.047  13.322 -0.1429 -0.0748 -0.5205
16386TIP3    H170649   5.330   5.024  13.412 -2.9061 -0.0370  0.2068
16386TIP3    H270650   5.379   5.107  13.296  2.1786 -2.0845  0.6261
16387TIP3   OH270651   3.075   4.595  16.044  0.3906  0.1919  0.4244
16387TIP3    H170652   3.038   4.585  15.956  3.6835 -0.3486 -1.0385
16387TIP3    H270653   3.049   4.684  16.070  1.1053  1.2178 -2.0467
16388TIP3   OH270654   6.751   4.481   5.408 -0.1371 -0.0877 -0.2739
16388TIP3    H170655   6.770   4.437   5.325  2.2252  1.0581 -0.4198
16388TIP3    H270656   6.756   4.574   5.387 -0.1303  0.2194  1.0188
16389TIP3   OH270657   1.103   3.692   2.558  0.0658  0.0521 -0.1190
16389TIP3    H170658   1.059   3.654   2.482  1.3107 -0.8853 -0.3941
16389TIP3    H270659   1.100   3.623   2.624  0.7016  0.1452  0.0143
16390TIP3   OH270660   3.449   5.552  16.144  0.0598 -1.0519  0.6381
16390TIP3    H170661   3.516   5.483  16.141 -0.5638 -1.6805  0.8693
16390TIP3    H270662   3.439   5.579  16.052  2.8689  1.2976  0.9106
16391TIP3   OH270663   3.352   3.990   4.596  0.1671  0.1920 -0.2133
16391TIP3    H170664   3.399   3.910   4.573 -1.9121 -1.6082  1.2530
16391TIP3    H270665   3.349   3.988   4.692 -1.1786  1.2533 -0.2112
16392TIP3   OH270666   0.193   2.564   0.365  0.0217 -0.9680  0.2653
16392TIP3    H170667   0.240   2.513   0.431  2.9108  0.0807 -0.7722
16392TIP3    H270668   0.213   2.655   0.388 -0.0312 -0.5496 -1.2322
16393TIP3   OH270669   1.108   1.597   1.166  0.6050  0.1663 -0.4660
16393TIP3    H170670   1.107   1.516   1.116  1.3410  0.6243 -1.2429
16393TIP3    H270671   1.083   1.571   1.255  1.5545 -1.0349 -0.5235
16394TIP3   OH270672   2.796   2.726   3.728 -0.2752  0.1660  0.3624
16394TIP3    H170673   2.816   2.660   3.794 -1.0692  1.6232  2.1773
16394TIP3    H270674   2.881   2.760   3.701  0.0716 -0.6408  0.4417
16395TIP3   OH270675   5.648   2.660   2.605  0.3778  0.7304  0.0503
16395TIP3    H170676   5.653   2.567   2.624  0.8438  0.9604  1.1659
16395TIP3    H270677   5.622   2.700   2.689 -0.7716  1.5197 -0.6461
16396TIP3   OH270678   0.726   0.503  13.685  0.0186 -0.3917 -0.3906
16396TIP3    H170679   0.665   0.561  13.731 -2.2636 -0.8080 -2.6528
16396TIP3    H270680   0.679   0.420  13.677  0.6345 -0.5967 -2.6443
16397TIP3   OH270681   1.551   2.032  14.636 -0.0979  0.2555 -0.0847
16397TIP3    H170682   1.466   2.013  14.597  0.0981  1.0051 -0.9384
16397TIP3    H270683   1.555   1.978  14.715 -0.7425 -0.9173 -0.8247
16398TIP3   OH270684   0.480   1.829  17.003  0.7899 -0.1629 -0.4188
16398TIP3    H170685   0.397   1.826  17.050  1.0727 -0.0615  0.0984
16398TIP3    H270686   0.461   1.790  16.918 -0.0343  0.7784 -0.6881
16399TIP3   OH270687   1.754   0.904  13.506  0.7644 -0.0141 -0.0642
16399TIP3    H170688   1.684   0.968  13.494  0.7509  0.1007  0.5697
16399TIP3    H270689   1.789   0.890  13.419 -1.0173 -1.2121 -0.6331
16400TIP3   OH270690   5.761   2.526   3.651 -0.0838 -0.4517  0.7012
16400TIP3    H170691   5.686   2.586   3.648  0.2091 -0.1233 -0.7547
16400TIP3    H270692   5.740   2.458   3.588  2.7324  2.0531 -3.4895
16401TIP3   OH270693   1.882   4.716  17.139 -0.3586  0.2066 -0.3463
16401TIP3    H170694   1.891   4.800  17.094 -0.9208  0.8851  0.7559
16401TIP3    H270695   1.933   4.726  17.219  0.1900 -0.7805 -0.5633
16402TIP3   OH270696   0.966   2.660   0.207 -0.5984  0.0718  0.1771
16402TIP3    H170697   0.897   2.594   0.202  0.9071 -1.6004  0.3820
16402TIP3    H270698   1.003   2.663   0.119 -1.9364  2.2037 -0.4021
16403TIP3   OH270699   3.198   1.334  14.097  0.0798 -0.2365  0.1391
16403TIP3    H170700   3.283   1.343  14.055  0.3298  0.9287  0.8521
16403TIP3    H270701   3.135   1.368  14.033  0.1586 -0.9551 -0.3276
16404TIP3   OH270702   4.776   2.061  15.858  0.1947  0.1546  0.1721
16404TIP3    H170703   4.775   2.092  15.767  0.8298  3.0407  1.0430
16404TIP3    H270704   4.869   2.051  15.878  0.0340 -1.3039  0.2994
16405TIP3   OH270705   3.119   0.401  14.152  0.1259  0.5355  0.1706
16405TIP3    H170706   3.168   0.483  14.157  0.7108  0.1421  1.3036
16405TIP3    H270707   3.148   0.361  14.070  1.1824  0.6420  0.4755
16406TIP3   OH270708   3.546   6.379  11.386 -0.7449  0.0355  0.1394
16406TIP3    H170709   3.451   6.376  11.374 -1.2001 -3.3914  2.9059
16406TIP3    H270710   3.569   6.291  11.417  3.5066  0.4614 -1.0853
16407TIP3   OH270711   4.735   2.026  13.365  0.0711  0.1034  0.1280
16407TIP3    H170712   4.739   1.930  13.359  1.0041 -0.0355  2.1311
16407TIP3    H270713   4.660   2.043  13.422 -0.1517  0.5847 -0.3037
16408TIP3   OH270714   2.804   5.285  13.095 -0.1445 -0.2072 -0.1441
16408TIP3    H170715   2.850   5.328  13.166  1.4519 -0.0653 -1.2233
16408TIP3    H270716   2.772   5.356  13.039  0.8477 -0.3445 -0.9149
16409TIP3   OH270717   1.734   1.875  11.404  0.1623 -0.1238  0.3562
16409TIP3    H170718   1.673   1.874  11.478  0.0378 -0.1175  0.2544
16409TIP3    H270719   1.679   1.856  11.328  0.1648  0.5841  0.1680
16410TIP3   OH270720   6.258   1.447   1.172 -0.4134 -0.3436 -0.2073
16410TIP3    H170721   6.327   1.480   1.115 -1.5373  1.1637 -0.7572
16410TIP3    H270722   6.305   1.405   1.244  1.0542 -0.0053 -0.9250
16411TIP3   OH270723   5.078   5.739  16.280 -0.1050 -0.2863  0.0165
16411TIP3    H170724   5.161   5.693  16.291 -1.2278 -2.0890  1.6797
16411TIP3    H270725   5.019   5.672  16.244 -0.9067  0.9078 -0.9577
16412TIP3   OH270726   2.559   4.502   6.090  0.2090  0.3297 -0.3086
16412TIP3    H170727   2.535   4.595   6.092 -0.7530  0.1034  2.0884
16412TIP3    H270728   2.563   4.476   6.182 -0.0480 -2.1481 -0.9201
16413TIP3   OH270729   4.171   3.339  16.465  1.4557 -0.0114  0.1505
16413TIP3    H170730   4.082   3.303  16.467  0.7859  1.4639  3.0666
16413TIP3    H270731   4.228   3.262  16.461  0.0464 -1.1963  1.4468
16414TIP3   OH270732   2.017   3.708  14.194 -0.1871 -0.1173  0.1514
16414TIP3    H170733   2.052   3.752  14.117  0.2214  0.7990  0.8294
16414TIP3    H270734   2.088   3.653  14.225  1.2235  2.5818  2.1725
16415TIP3   OH270735   0.177   1.775  13.131  0.6586  0.3075  0.1485
16415TIP3    H170736   0.198   1.855  13.180  0.7939  0.7916 -0.6880
16415TIP3    H270737   0.184   1.705  13.196  2.4701  0.7360  0.4734
16416TIP3   OH270738   0.750   0.948   4.621  0.0415  0.4208  0.0717
16416TIP3    H170739   0.804   0.873   4.644  0.2257 -0.0640 -1.7575
16416TIP3    H270740   0.662   0.925   4.650  0.2030 -0.2625  0.0261
16417TIP3   OH270741   1.277   3.805   0.494  0.3022 -0.1965  0.5561
16417TIP3    H170742   1.327   3.752   0.432  0.6998 -0.3580  1.0091
16417TIP3    H270743   1.338   3.874   0.521 -0.0527  0.2082  0.3436
16418TIP3   OH270744   1.080   6.313   2.176  0.3806  0.5246 -0.2674
16418TIP3    H170745   1.058   6.221   2.160 -0.7614  0.6166  0.5968
16418TIP3    H270746   1.123   6.342   2.096  0.1745 -0.5862 -0.8053
16419TIP3   OH270747   2.046   1.914  11.170 -0.0890 -0.5636  0.5288
16419TIP3    H170748   2.090   1.862  11.103 -0.0882  1.5141 -1.1948
16419TIP3    H270749   1.956   1.925  11.137 -0.0767  0.5041  0.7990
16420TIP3   OH270750   3.580   2.098   2.649  0.1660 -0.3419 -0.9600
16420TIP3    H170751   3.639   2.049   2.706 -1.1903 -0.3599  0.4809
16420TIP3    H270752   3.554   2.174   2.700  0.7665  0.9338 -2.4706
16421TIP3   OH270753   2.639   2.534  16.167 -0.5618  0.4783  0.3216
16421TIP3    H170754   2.604   2.582  16.242  0.9882  1.5725  0.4061
16421TIP3    H270755   2.597   2.575  16.091 -1.7007 -0.2484  0.5339
16422TIP3   OH270756   2.820   3.315  15.166  0.1814 -0.0462  0.1499
16422TIP3    H170757   2.745   3.293  15.220  1.8767  0.5810  2.9778
16422TIP3    H270758   2.805   3.407  15.141 -0.2236 -0.0847  0.2437
16423TIP3   OH270759   6.312   1.141   1.870  0.3282  0.2291 -0.1380
16423TIP3    H170760   6.257   1.182   1.936  0.9980 -0.0093  0.5804
16423TIP3    H270761   6.400   1.141   1.908  0.3902 -1.6967 -0.1752
16424TIP3   OH270762   4.600   2.997   6.060 -0.0139 -0.1000 -0.4197
16424TIP3    H170763   4.556   2.954   5.987 -0.0951  1.2311 -1.1813
16424TIP3    H270764   4.678   2.945   6.076 -0.8507 -1.3735 -0.3261
16425TIP3   OH270765   0.826   1.549   4.438 -0.3973  0.5948  0.2920
16425TIP3    H170766   0.738   1.533   4.472 -0.4256  0.7409  0.2914
16425TIP3    H270767   0.845   1.474   4.382 -1.3225  1.5013 -1.3199
16426TIP3   OH270768   2.556   3.362   4.232 -0.3883  0.3151 -0.3598
16426TIP3    H170769   2.584   3.342   4.321 -2.8927  1.2334  0.7337
16426TIP3    H270770   2.583   3.453   4.219 -0.9242  0.5157 -0.1133
16427TIP3   OH270771   1.917   2.620  13.598  0.8424  0.3124 -0.3055
16427TIP3    H170772   1.925   2.659  13.511 -1.1745 -0.1651 -0.7570
16427TIP3    H270773   1.839   2.660  13.635  0.6738 -0.7834  0.5703
16428TIP3   OH270774   6.802   0.505  15.723  0.0814  0.0181  0.3805
16428TIP3    H170775   6.847   0.554  15.654  0.5719 -0.1905  0.5483
16428TIP3    H270776   6.871   0.455  15.766  0.1545  1.7212  2.3802
16429TIP3   OH270777   3.782   1.452  11.692  0.0958 -0.5425  0.2259
16429TIP3    H170778   3.772   1.365  11.654  0.6298 -0.7988  0.6557
16429TIP3    H270779   3.777   1.512  11.618  1.5625 -1.0624 -0.3239
16430TIP3   OH270780   4.861   1.366  17.011 -0.1234  0.4320 -0.8491
16430TIP3    H170781   4.816   1.343  17.092  2.0688  0.3601  0.4220
16430TIP3    H270782   4.819   1.448  16.983 -0.8772  0.4894  0.3783
16431TIP3   OH270783   3.900   4.516   2.825 -0.3824 -0.4764 -0.1430
16431TIP3    H170784   3.952   4.532   2.904 -0.0928 -0.5176 -0.3234
16431TIP3    H270785   3.905   4.598   2.775 -1.0353 -0.2551  0.1449
16432TIP3   OH270786   1.895   4.662   6.631  0.0585 -0.2736 -0.1646
16432TIP3    H170787   1.895   4.588   6.692 -0.7194 -0.0861  0.0685
16432TIP3    H270788   1.810   4.657   6.588  0.5223 -0.2830 -1.0953
16433TIP3   OH270789   1.902   5.516   6.186  0.3993 -0.3731 -0.1131
16433TIP3    H170790   1.848   5.498   6.263  2.1037 -0.3376  1.1437
16433TIP3    H270791   1.839   5.545   6.119 -0.9429  1.5945  1.8658
16434TIP3   OH270792   2.639   2.108   0.656 -0.1516 -0.1034  0.2863
16434TIP3    H170793   2.594   2.118   0.740  0.8814  1.3638  0.6904
16434TIP3    H270794   2.680   2.022   0.661  1.0554  0.5218  1.8734
16435TIP3   OH270795   3.088   5.423   6.002 -0.0466 -0.1680  0.1610
16435TIP3    H170796   3.089   5.407   6.096  0.9841  2.3025  0.6575
16435TIP3    H270797   3.033   5.501   5.992  1.1077  0.5205 -1.0783
16436TIP3   OH270798   5.412   1.828  15.534 -0.3995  0.0282 -0.2022
16436TIP3    H170799   5.430   1.871  15.618  0.4239  0.9156 -0.8154
16436TIP3    H270800   5.326   1.788  15.546  0.0565 -0.5724  1.3429
16437TIP3   OH270801   6.684   3.720   0.809 -0.2640  0.1672  0.6338
16437TIP3    H170802   6.769   3.750   0.842 -0.0231  0.7972 -0.5200
16437TIP3    H270803   6.700   3.697   0.718 -0.7005 -2.4806  1.1373
16438TIP3   OH270804   2.253   0.984   1.281  0.2497  0.3917 -0.5308
16438TIP3    H170805   2.255   1.076   1.257  0.1323  0.1786 -1.3905
16438TIP3    H270806   2.161   0.965   1.297  0.5829  1.3929  3.6907
16439TIP3   OH270807   3.486   5.218  10.826  0.5791  0.1653  0.2926
16439TIP3    H170808   3.445   5.182  10.905  0.3382 -3.4939 -1.2843
16439TIP3    H270809   3.580   5.210  10.842  0.5442  0.1969  0.5138
16440TIP3   OH270810   3.026   0.555   2.089  0.5967  0.7078  0.0116
16440TIP3    H170811   3.067   0.536   2.005 -0.8048  0.5459 -0.6710
16440TIP3    H270812   3.031   0.650   2.098  2.9799  0.5443  0.9629
16441TIP3   OH270813   5.381   0.856   4.107  0.6035  0.4251 -0.3605
16441TIP3    H170814   5.321   0.800   4.058  0.2239  0.2398  0.3077
16441TIP3    H270815   5.350   0.945   4.090  0.4217  0.3571 -0.3860
16442TIP3   OH270816   3.890   2.168  16.076 -0.2394 -0.1348 -0.6925
16442TIP3    H170817   3.985   2.175  16.077 -0.2202  1.5995 -3.7264
16442TIP3    H270818   3.871   2.092  16.132  2.7155  0.6594  1.6277
16443TIP3   OH270819   0.166   5.530   2.552  0.2383  0.0788 -0.6174
16443TIP3    H170820   0.254   5.562   2.574  0.4626 -0.7236 -0.3314
16443TIP3    H270821   0.112   5.558   2.625  0.5426 -0.6516 -0.1062
16444TIP3   OH270822   6.755   2.905   3.620 -0.2816 -0.0228 -0.1961
16444TIP3    H170823   6.726   2.984   3.666 -1.0856 -0.6897  0.4747
16444TIP3    H270824   6.762   2.839   3.689  0.5509 -0.4992 -0.7208
16445TIP3   OH270825   5.647   1.397   5.237  0.5828 -0.9692  0.1512
16445TIP3    H170826   5.584   1.325   5.236  1.3861 -1.7101  1.3490
16445TIP3    H270827   5.706   1.377   5.309  1.3065  0.4850  0.0019
16446TIP3   OH270828   5.996   2.620   3.752 -0.4542 -0.7825 -0.1228
16446TIP3    H170829   5.910   2.579   3.739 -0.2773 -1.6575  1.3280
16446TIP3    H270830   6.031   2.578   3.830  1.5108 -0.7717 -0.9480
16447TIP3   OH270831   1.905   0.835  12.556 -0.4300  0.4224 -0.1153
16447TIP3    H170832   1.956   0.898  12.506  0.5233  1.5578  2.1442
16447TIP3    H270833   1.913   0.753  12.507 -1.2240  1.8580 -2.8087
16448TIP3   OH270834   4.202   6.021   2.414  0.2352  0.2902  0.5637
16448TIP3    H170835   4.166   5.940   2.380  1.6160  0.6049 -1.8243
16448TIP3    H270836   4.297   6.007   2.416  0.5323  1.9292 -0.2045
16449TIP3   OH270837   3.177   4.015   0.830 -0.8230 -0.0462  0.2771
16449TIP3    H170838   3.183   4.067   0.750  0.0129  1.5528  1.3304
16449TIP3    H270839   3.109   3.950   0.811  2.0912 -2.5554 -3.2444
16450TIP3   OH270840   5.576   6.569  13.282 -0.0132  0.2867  0.2120
16450TIP3    H170841   5.546   6.554  13.372 -1.2196 -0.1057 -0.2368
16450TIP3    H270842   5.560   6.662  13.267 -0.8048  0.1274  0.0532
16451TIP3   OH270843   0.968   4.800  10.724 -0.2874 -0.7086 -0.3341
16451TIP3    H170844   1.044   4.855  10.741 -0.7268  0.2019 -1.1715
16451TIP3    H270845   0.895   4.862  10.718 -0.6134 -1.2093 -2.5124
16452TIP3   OH270846   3.983   0.826  13.431  0.3168  0.1401  0.0672
16452TIP3    H170847   3.896   0.788  13.419  1.0571 -1.4360 -0.6771
16452TIP3    H270848   3.967   0.919  13.443 -1.3864  0.1464 -1.6832
16453TIP3   OH270849   1.031   6.597  15.285 -0.0898 -0.1334  0.0156
16453TIP3    H170850   0.982   6.674  15.255 -1.7036 -0.4658  1.5759
16453TIP3    H270851   0.963   6.531  15.302  1.0641 -1.1611  0.7548
16454TIP3   OH270852   0.291   6.761  14.864 -0.5227 -0.1432 -0.4253
16454TIP3    H170853   0.253   6.811  14.936  0.6865 -0.6492  0.5950
16454TIP3    H270854   0.321   6.828  14.802 -1.7139  0.2913 -0.5574
16455TIP3   OH270855   3.862   4.014   5.115  0.4860 -0.0213 -0.9434
16455TIP3    H170856   3.934   3.959   5.146  0.0374  0.1649  0.5243
16455TIP3    H270857   3.788   3.955   5.108  0.9383 -0.4040 -3.3291
16456TIP3   OH270858   0.297   3.800  15.394 -0.0405  0.3240  0.1595
16456TIP3    H170859   0.321   3.714  15.361  0.6779  1.1250 -1.5130
16456TIP3    H270860   0.235   3.834  15.330  0.2467  1.3499  0.3988
16457TIP3   OH270861   2.396   4.225  13.052 -0.1003 -0.1037  0.3637
16457TIP3    H170862   2.377   4.150  12.995  0.1956  0.4346 -0.4752
16457TIP3    H270863   2.310   4.255  13.081 -0.3856  0.4852 -0.9816
16458TIP3   OH270864   3.963   5.351  15.091  0.0314  0.0420  0.0184
16458TIP3    H170865   3.989   5.437  15.059  0.1877  0.2987  0.8082
16458TIP3    H270866   3.876   5.364  15.129  0.4990  0.1125  1.1184
16459TIP3   OH270867   6.318   6.797  14.528 -0.1116 -0.2719  0.3086
16459TIP3    H170868   6.298   6.784  14.620  0.2620 -1.2278  0.2774
16459TIP3    H270869   6.305   6.710  14.489  1.2782 -0.2690 -0.2242
16460TIP3   OH270870   4.051   3.646  12.753 -0.4392 -0.4586  0.0827
16460TIP3    H170871   3.963   3.680  12.770 -1.0766 -2.7676  1.9065
16460TIP3    H270872   4.047   3.615  12.662 -0.4728  2.2046 -0.9083
16461TIP3   OH270873   4.633   3.544  14.460 -0.2134  0.4560 -0.4749
16461TIP3    H170874   4.610   3.453  14.477  1.2273  0.1239 -0.1573
16461TIP3    H270875   4.572   3.572  14.391 -0.7831 -0.6817 -0.4601
16462TIP3   OH270876   2.691   3.194   5.592 -0.4127 -0.1722  0.8987
16462TIP3    H170877   2.740   3.112   5.594 -0.0385 -0.0018 -0.3428
16462TIP3    H270878   2.600   3.168   5.605 -0.4515 -0.9486 -0.7108
16463TIP3   OH270879   1.517   3.455  15.519  0.5459 -0.1407 -0.3055
16463TIP3    H170880   1.437   3.404  15.537  0.2388 -0.3481 -2.0317
16463TIP3    H270881   1.572   3.442  15.596 -0.4908 -1.1914  0.2933
16464TIP3   OH270882   6.623   2.881   4.649  0.1321  0.9576  0.1964
16464TIP3    H170883   6.529   2.891   4.662 -0.0187 -0.5611  0.3892
16464TIP3    H270884   6.642   2.790   4.672  1.0301  0.1235 -3.1586
16465TIP3   OH270885   4.556   1.775   4.416  0.0963 -0.6121 -0.1289
16465TIP3    H170886   4.537   1.683   4.399 -0.6906 -0.3613 -0.6444
16465TIP3    H270887   4.643   1.789   4.379  0.0289 -1.0400 -0.4480
16466TIP3   OH270888   4.754   5.406   5.428  0.0540 -0.6500 -0.3253
16466TIP3    H170889   4.833   5.357   5.450  0.5695  0.4384  0.2717
16466TIP3    H270890   4.777   5.498   5.439 -1.3344 -0.3088 -0.0082
16467TIP3   OH270891   5.711   2.346   4.760  0.3377  0.3194  0.2642
16467TIP3    H170892   5.795   2.388   4.779 -0.1220  0.1907  2.9453
16467TIP3    H270893   5.736   2.259   4.728  1.2601  0.1712  1.3134
16468TIP3   OH270894   0.838   4.315  15.856 -0.0894 -0.0577  0.0817
16468TIP3    H170895   0.768   4.278  15.802  0.3971  0.1149 -0.6894
16468TIP3    H270896   0.903   4.245  15.861  0.7953  0.6192 -1.3064
16469TIP3   OH270897   3.849   1.669   4.208  0.9603 -0.4004  0.4077
16469TIP3    H170898   3.856   1.764   4.220  0.9886 -0.1379 -1.3705
16469TIP3    H270899   3.933   1.643   4.171  1.4221 -1.3614  2.0361
16470TIP3   OH270900   4.968   5.932   3.806  0.5962  0.8079 -0.0103
16470TIP3    H170901   4.963   5.993   3.880 -0.7808  1.2717 -0.4608
16470TIP3    H270902   4.975   5.846   3.847 -0.1258  1.0587  0.6784
16471TIP3   OH270903   3.479   6.433   2.476  0.1735 -0.1090  0.1346
16471TIP3    H170904   3.477   6.359   2.536  0.5157 -0.2478 -0.0240
16471TIP3    H270905   3.504   6.508   2.530  1.7518 -0.4585 -0.0591
16472TIP3   OH270906   4.438   4.389   0.582 -0.1824 -0.4768 -0.3839
16472TIP3    H170907   4.419   4.295   0.590  0.7979 -0.6165  0.6940
16472TIP3    H270908   4.430   4.423   0.671 -0.0004  0.3582 -0.6757
16473TIP3   OH270909   3.191   4.674   5.750  0.3936 -0.0318 -0.3146
16473TIP3    H170910   3.270   4.659   5.698 -1.8901 -1.7945 -3.6308
16473TIP3    H270911   3.118   4.659   5.689 -2.5624  0.9791  2.6439
16474TIP3   OH270912   6.778   2.777   0.695  0.1456  0.2352 -0.0703
16474TIP3    H170913   6.806   2.762   0.785 -2.6184 -0.5430  0.7588
16474TIP3    H270914   6.774   2.689   0.656 -1.0647  0.2880 -0.1176
16475TIP3   OH270915   2.320   3.374  10.989 -0.2523 -0.6318 -0.1528
16475TIP3    H170916   2.375   3.451  10.980 -1.1970  0.0814 -0.0084
16475TIP3    H270917   2.232   3.409  11.001 -0.5107 -1.6872  1.3674
16476TIP3   OH270918   3.658   6.564   6.456 -0.4149  0.5277 -0.2976
16476TIP3    H170919   3.746   6.581   6.423 -0.1067 -1.0450 -0.3474
16476TIP3    H270920   3.612   6.647   6.445  0.3842  0.7668 -2.4317
16477TIP3   OH270921   2.411   0.309   2.329  0.1325 -0.5699 -0.1540
16477TIP3    H170922   2.317   0.314   2.347 -0.0180 -1.3683 -0.6970
16477TIP3    H270923   2.452   0.347   2.407 -0.5980 -1.3147  0.6116
16478TIP3   OH270924   0.883   6.607  14.956  0.2163 -0.4802  0.0315
16478TIP3    H170925   0.798   6.597  14.913  0.6027  1.3710 -1.3030
16478TIP3    H270926   0.864   6.596  15.050 -1.5932  0.3522 -0.1912
16479TIP3   OH270927   6.552   6.078  14.579 -0.0387 -0.4967  0.5152
16479TIP3    H170928   6.540   6.093  14.673  0.5226 -2.6524  0.9637
16479TIP3    H270929   6.645   6.094  14.564 -0.3041  0.7858  0.1017
16480TIP3   OH270930   3.554   0.572   1.594 -0.1489 -0.0785 -0.0764
16480TIP3    H170931   3.489   0.640   1.614 -0.7063 -0.7992  0.6165
16480TIP3    H270932   3.630   0.621   1.563 -1.2889  0.7525 -1.7397
16481TIP3   OH270933   4.374   2.725   2.769  0.6292 -0.4026  0.0732
16481TIP3    H170934   4.417   2.646   2.802 -0.3560 -0.0863  2.2965
16481TIP3    H270935   4.445   2.787   2.757  1.1919 -0.9957  0.2512
16482TIP3   OH270936   5.277   4.009  12.084 -0.3678  0.1578 -0.2596
16482TIP3    H170937   5.358   4.010  12.032 -0.3196  0.3324 -0.1843
16482TIP3    H270938   5.243   3.921  12.074  0.3740 -0.2414  0.5393
16483TIP3   OH270939   1.993   0.746   3.450 -0.0007 -0.5824 -0.6369
16483TIP3    H170940   1.996   0.735   3.545  0.7832 -0.2149 -0.6113
16483TIP3    H270941   2.068   0.698   3.417 -1.6162 -2.7935 -1.3208
16484TIP3   OH270942   0.555   2.559  16.003  0.2402  0.0711 -0.3628
16484TIP3    H170943   0.505   2.542  15.923 -1.0922  0.2999  0.3852
16484TIP3    H270944   0.638   2.597  15.972 -0.6870  1.2065 -1.6080
16485TIP3   OH270945   3.842   5.473  13.197 -0.1526  0.4857 -0.2572
16485TIP3    H170946   3.930   5.502  13.220 -0.0746  1.9065 -2.1169
16485TIP3    H270947   3.788   5.551  13.207 -1.0183 -0.1186 -0.1171
16486TIP3   OH270948   4.871   5.120   0.439  0.0962 -0.2222  0.2089
16486TIP3    H170949   4.917   5.196   0.402  2.1144 -1.7306 -0.5921
16486TIP3    H270950   4.929   5.087   0.507 -1.2131 -0.4927  1.2332
16487TIP3   OH270951   1.421   2.321  14.773  0.6064 -0.0091 -0.2282
16487TIP3    H170952   1.451   2.234  14.799 -1.1054 -0.3196  0.8491
16487TIP3    H270953   1.439   2.377  14.849 -1.6443 -0.2723  0.5924
16488TIP3   OH270954   4.175   4.489   6.010  0.1735 -0.1005 -0.0858
16488TIP3    H170955   4.134   4.517   5.928 -1.3471 -0.6048  0.4629
16488TIP3    H270956   4.260   4.455   5.984  0.2820  1.0097 -1.2805
16489TIP3   OH270957   3.210   5.816   5.742  0.0649  0.2583 -0.0675
16489TIP3    H170958   3.196   5.721   5.737  0.3603  0.2255 -0.3375
16489TIP3    H270959   3.291   5.830   5.693  0.0455  0.6456  0.0120
16490TIP3   OH270960   3.750   4.204   0.033 -0.3478 -0.4599 -0.2111
16490TIP3    H170961   3.698   4.282   0.011 -0.9733 -0.3644  1.4226
16490TIP3    H270962   3.705   4.167   0.110  0.9298 -1.4544  0.0823
16491TIP3   OH270963   3.843   4.340  13.276 -0.3706 -0.6253 -0.4345
16491TIP3    H170964   3.829   4.429  13.246 -0.4548 -1.3151 -2.5694
16491TIP3    H270965   3.928   4.342  13.320  0.9355 -0.0256 -2.8692
16492TIP3   OH270966   2.615   5.761  11.708 -0.3636 -0.0534  0.1473
16492TIP3    H170967   2.706   5.772  11.680 -0.2437 -0.5701  0.3256
16492TIP3    H270968   2.585   5.850  11.726  0.2868  0.0744  0.6352
16493TIP3   OH270969   5.569   5.437   6.274  0.1037 -0.5529  0.2849
16493TIP3    H170970   5.608   5.437   6.187 -0.0516  1.5052  0.1561
16493TIP3    H270971   5.476   5.457   6.259  0.1711  0.3184  0.9109
16494TIP3   OH270972   5.381   2.093   2.663 -0.6012  0.7832  0.3139
16494TIP3    H170973   5.397   2.064   2.752 -0.4713 -1.7660 -0.4367
16494TIP3    H270974   5.418   2.181   2.658  0.5988  0.4466  2.3806
16495TIP3   OH270975   4.072   4.085   6.025 -0.5065  0.0539 -0.4651
16495TIP3    H170976   4.081   4.118   5.935  2.2332 -0.6608 -0.5384
16495TIP3    H270977   4.162   4.069   6.054 -1.4250 -1.9302  1.6113
16496TIP3   OH270978   4.818   6.246  12.027  0.1672  0.2567 -0.3473
16496TIP3    H170979   4.742   6.194  12.052  0.4128 -0.7267 -1.5819
16496TIP3    H270980   4.782   6.331  12.003 -0.3611  0.2950  0.5239
16497TIP3   OH270981   3.670   6.362  12.154 -0.2632 -0.1653  0.0401
16497TIP3    H170982   3.709   6.449  12.152 -0.0333 -0.2637  0.2642
16497TIP3    H270983   3.744   6.302  12.143 -0.0715 -0.4389  2.3248
16498TIP3   OH270984   1.488   3.521   2.532  0.1418  0.6092 -0.3936
16498TIP3    H170985   1.413   3.465   2.511  0.5750 -0.5019  0.9313
16498TIP3    H270986   1.548   3.509   2.458  1.1532 -2.3605  0.7762
16499TIP3   OH270987   5.932   3.709   5.900  1.2528  0.6266  0.1654
16499TIP3    H170988   5.860   3.723   5.962  0.8653 -1.8414  0.3673
16499TIP3    H270989   5.947   3.795   5.861 -2.6894  1.0198 -0.8503
16500TIP3   OH270990   0.318   2.893   4.945 -0.3451 -0.4622  0.2305
16500TIP3    H170991   0.333   2.924   4.856 -1.5002 -0.7283 -0.0709
16500TIP3    H270992   0.235   2.933   4.971 -3.2029 -4.8118 -1.0003
16501TIP3   OH270993   2.194   2.906  17.289  0.1655  0.3647 -0.0066
16501TIP3    H170994   2.160   2.994  17.272  0.4892  0.5005  0.0300
16501TIP3    H270995   2.287   2.920  17.310  0.2345  0.0082 -0.0626
16502TIP3   OH270996   1.761   4.594  14.507 -0.0694  0.2513 -0.0789
16502TIP3    H170997   1.815   4.672  14.515  1.0672 -0.6422  1.5123
16502TIP3    H270998   1.764   4.573  14.413  0.9267  1.1944 -0.2876
16503TIP3   OH270999   3.077   6.099  12.076 -0.2453 -0.2780 -0.5307
16503TIP3    H171000   3.049   6.189  12.061  1.9958  0.7021  0.7385
16503TIP3    H271001   3.009   6.046  12.035 -1.6108  1.9711 -1.3548
16504TIP3   OH271002   4.334   6.717  14.748  0.6151 -0.1897  0.3438
16504TIP3    H171003   4.261   6.660  14.772 -0.2627 -0.2429 -2.2353
16504TIP3    H271004   4.385   6.665  14.685 -1.0168  2.2438 -3.2594
16505TIP3   OH271005   6.699   2.306  16.851  0.0605 -0.3776 -0.1239
16505TIP3    H171006   6.687   2.256  16.770  0.3981 -0.6013 -0.0402
16505TIP3    H271007   6.613   2.306  16.893 -0.1557 -0.1250 -0.5612
16506TIP3   OH271008   5.061   1.975   0.513 -0.6516 -0.0054  0.4553
16506TIP3    H171009   5.146   1.972   0.558 -1.0359 -1.8038  1.1244
16506TIP3    H271010   5.001   2.011   0.577 -0.4347  1.2259 -0.0041
16507TIP3   OH271011   1.875   1.666  16.314 -0.5600 -0.1895  0.6674
16507TIP3    H171012   1.871   1.679  16.409  1.0639 -0.4624  0.8026
16507TIP3    H271013   1.968   1.673  16.293 -0.9494  0.4516 -1.0014
16508TIP3   OH271014   5.845   1.191   2.412  0.1051 -0.4859 -0.8926
16508TIP3    H171015   5.754   1.219   2.422 -0.0300 -0.7661 -1.2791
16508TIP3    H271016   5.879   1.188   2.501 -0.9386 -2.5445 -0.4940
16509TIP3   OH271017   1.766   6.575  16.375 -0.2081  0.0687  0.3560
16509TIP3    H171018   1.760   6.511  16.446  1.7061  0.3043  0.8048
16509TIP3    H271019   1.686   6.626  16.381 -0.5438 -0.5770  1.6900
16510TIP3   OH271020   2.249   6.202  11.739 -0.2527  0.1419  0.0512
16510TIP3    H171021   2.211   6.289  11.731 -0.2334  0.0275 -1.9367
16510TIP3    H271022   2.272   6.193  11.831 -0.3722  2.1826  0.3177
16511TIP3   OH271023   1.635   5.714   5.808  0.1045  0.0632  0.6895
16511TIP3    H171024   1.681   5.698   5.726  1.8515  0.7921  1.4759
16511TIP3    H271025   1.683   5.662   5.873 -0.4315  0.5295  1.4737
16512TIP3   OH271026   4.847   4.811   2.056  0.1368 -0.4413  0.2868
16512TIP3    H171027   4.870   4.724   2.085  0.6382 -1.2083 -2.1464
16512TIP3    H271028   4.918   4.867   2.088  0.2586 -1.0661  1.1381
16513TIP3   OH271029   6.365   1.825   4.224  0.1595  0.1840  0.2069
16513TIP3    H171030   6.352   1.821   4.130  0.2573 -0.6934  0.2193
16513TIP3    H271031   6.279   1.846   4.259  0.1791  0.7686 -0.0886
16514TIP3   OH271032   0.536   3.726  11.620  0.3291  0.6001  0.0612
16514TIP3    H171033   0.467   3.750  11.682 -0.2926  0.0449 -0.4110
16514TIP3    H271034   0.515   3.637  11.593  1.8987 -0.0447  0.8071
16515TIP3   OH271035   2.108   0.529   4.702 -0.5936 -0.5315  0.1619
16515TIP3    H171036   2.062   0.608   4.674  0.4218  0.6872  1.7607
16515TIP3    H271037   2.052   0.492   4.770 -0.2353 -0.2082  0.6375
16516TIP3   OH271038   1.989   6.376  15.888  0.2492  0.4840  0.0684
16516TIP3    H171039   1.978   6.427  15.968 -0.7772  2.0153 -1.0029
16516TIP3    H271040   1.969   6.437  15.817  0.2640 -1.0669 -1.3355
16517TIP3   OH271041   0.167   2.015  17.052 -0.8817  0.4511 -0.1436
16517TIP3    H171042   0.174   1.987  16.961 -1.3343 -0.6384  0.1502
16517TIP3    H271043   0.226   1.957  17.100 -0.4237  1.2078  0.2276
16518TIP3   OH271044   2.614   5.491   2.370  0.0206  0.2472 -0.2399
16518TIP3    H171045   2.521   5.485   2.347 -0.3009  1.0844  0.7622
16518TIP3    H271046   2.626   5.581   2.398  0.1645 -0.7763  3.5430
16519TIP3   OH271047   5.822   1.039   4.192 -0.3189  0.2957 -0.7574
16519TIP3    H171048   5.763   0.965   4.184 -2.3352  1.5496  1.3776
16519TIP3    H271049   5.898   1.015   4.139  1.5429 -5.5664  3.5670
16520TIP3   OH271050   0.066   4.290  16.552 -0.3707 -0.7910 -0.3878
16520TIP3    H171051  -0.011   4.317  16.602  0.5862 -2.6201  2.3813
16520TIP3    H271052   0.128   4.363  16.563 -0.3316 -0.9767  0.8737
16521TIP3   OH271053   6.286   5.066  12.224 -0.1520 -0.2558 -0.3159
16521TIP3    H171054   6.228   5.002  12.183  0.0559 -0.5914 -0.0882
16521TIP3    H271055   6.350   5.014  12.271 -0.2600  0.1238  0.2609
16522TIP3   OH271056   6.815   2.360   1.404  0.5115 -0.7279  0.4109
16522TIP3    H171057   6.752   2.419   1.446 -1.9143 -1.7903 -1.4700
16522TIP3    H271058   6.804   2.277   1.451 -0.8928 -1.4115 -1.0244
16523TIP3   OH271059   6.700   5.729   4.613  0.4093 -0.0168  0.0929
16523TIP3    H171060   6.717   5.764   4.525 -1.0165  0.4090 -0.0318
16523TIP3    H271061   6.649   5.797   4.656  1.7479  0.1182  1.5522
16524TIP3   OH271062   3.137   6.610   2.608 -0.4685  0.2485  0.4558
16524TIP3    H171063   3.112   6.520   2.628 -0.4488  0.2416  0.4503
16524TIP3    H271064   3.194   6.603   2.531 -0.0818  0.2197  0.7385
16525TIP3   OH271065   6.316   0.464  12.945  0.5967  0.1235 -0.2984
16525TIP3    H171066   6.324   0.432  12.856  3.7188  0.6298 -0.3126
16525TIP3    H271067   6.315   0.560  12.936 -3.7197  0.3057  0.0513
16526TIP3   OH271068   1.859   0.221  13.004 -0.1486 -0.6739  0.0217
16526TIP3    H171069   1.855   0.291  13.069  0.1784 -0.4055 -0.2459
16526TIP3    H271070   1.816   0.256  12.927 -0.4517 -0.9610  0.0564
16527TIP3   OH271071   2.903   1.599   1.870  0.1407 -0.1381 -1.1215
16527TIP3    H171072   2.983   1.569   1.826  1.0489 -0.1974  0.5246
16527TIP3    H271073   2.881   1.681   1.826  3.6974  2.3456  1.2224
16528TIP3   OH271074   5.683   0.056   0.048 -0.2678 -0.0179 -0.5971
16528TIP3    H171075   5.688   0.122  -0.022  0.1865 -0.6225 -1.1433
16528TIP3    H271076   5.669   0.107   0.128  0.3878  0.7620 -0.9689
16529TIP3   OH271077   4.994   5.108   0.701 -0.2389  0.2157 -0.3581
16529TIP3    H171078   4.922   5.141   0.756  1.1408  1.3496  0.8572
16529TIP3    H271079   5.065   5.172   0.714  0.5093 -0.0450 -2.6798
16530TIP3   OH271080   1.292   6.483  15.321  0.3095 -0.3925  0.4669
16530TIP3    H171081   1.264   6.433  15.398 -0.7511  0.0762  0.4076
16530TIP3    H271082   1.225   6.551  15.311  0.6180 -0.2309 -0.6659
16531TIP3   OH271083   1.803   0.962  11.395  0.2553  0.3712 -1.0076
16531TIP3    H171084   1.803   0.869  11.372  0.6974  0.5690 -1.8627
16531TIP3    H271085   1.735   0.971  11.462  0.1022 -0.5339 -1.0346
16532TIP3   OH271086   5.429   4.286  10.993 -0.1662 -0.3013 -0.3406
16532TIP3    H171087   5.509   4.252  10.952  0.8534 -1.6183  2.4649
16532TIP3    H271088   5.368   4.212  10.991 -0.1463 -0.3414  0.3462
16533TIP3   OH271089   1.992   4.991  11.971  0.7160  0.1555  0.2001
16533TIP3    H171090   1.998   5.011  11.878  0.6987 -2.6548 -0.4993
16533TIP3    H271091   1.907   4.948  11.981  1.4822 -1.1924  1.1408
16534TIP3   OH271092   5.378   5.036   4.314  0.1515  0.3068  0.0065
16534TIP3    H171093   5.387   4.965   4.250  1.3297 -1.1895  1.6933
16534TIP3    H271094   5.310   5.093   4.279  0.9848 -0.2483 -2.6904
16535TIP3   OH271095   6.688   2.834  15.281  0.1758 -0.2106  0.6476
16535TIP3    H171096   6.754   2.867  15.220  0.3665 -0.6973  0.5854
16535TIP3    H271097   6.650   2.912  15.320 -1.5968  0.2809 -1.7791
16536TIP3   OH271098   1.786   5.269  13.763  0.4459 -0.4130 -0.1525
16536TIP3    H171099   1.807   5.275  13.670  1.4910  2.1190  0.1707
16536TIP3    H271100   1.692   5.283  13.768  0.6596  1.3913 -0.7215
16537TIP3   OH271101   4.595   6.382  13.143 -0.2973  0.3342 -0.1573
16537TIP3    H171102   4.524   6.446  13.150 -1.7377 -0.7996 -2.8147
16537TIP3    H271103   4.551   6.297  13.152  1.0452 -0.3553  0.0883
16538TIP3   OH271104   6.235   5.891  13.448  0.5270 -0.0643 -0.7086
16538TIP3    H171105   6.183   5.908  13.526 -1.7550 -0.6438 -2.0282
16538TIP3    H271106   6.318   5.857  13.482  0.1975  1.1370  1.4826
16539TIP3   OH271107   3.376   1.869   4.898  0.7362  0.0861 -0.0750
16539TIP3    H171108   3.410   1.933   4.960 -0.3825  2.1716 -1.4901
16539TIP3    H271109   3.374   1.786   4.947  3.0920  0.8819  1.5382
16540TIP3   OH271110   5.567   5.219  13.588  0.2360  0.0429 -0.3160
16540TIP3    H171111   5.560   5.310  13.617  1.5560  0.2920 -0.7207
16540TIP3    H271112   5.659   5.196  13.602 -0.3941 -1.7427  1.2347
16541TIP3   OH271113   0.682   0.572   3.156 -0.0603  0.3798  0.7026
16541TIP3    H171114   0.649   0.637   3.094 -0.3342 -0.1690  0.2754
16541TIP3    H271115   0.608   0.514   3.172  0.4771 -0.4150  0.3144
16542TIP3   OH271116   0.280   5.961   3.825 -0.4858  0.8366  0.1770
16542TIP3    H171117   0.200   5.919   3.793 -0.2662  0.8693 -0.4244
16542TIP3    H271118   0.254   6.052   3.843 -0.7256  0.6955  0.5475
16543TIP3   OH271119   0.730   0.685   3.620  0.6507  0.3009 -0.2659
16543TIP3    H171120   0.796   0.718   3.560 -0.2871  0.0472 -1.4637
16543TIP3    H271121   0.687   0.614   3.573  1.6164 -1.7120  1.6838
16544TIP3   OH271122   5.128   6.075   5.322  0.3764 -0.5218  0.1257
16544TIP3    H171123   5.196   6.116   5.268  0.0081  0.5782  0.4534
16544TIP3    H271124   5.175   6.017   5.381  0.9696 -0.2538 -0.0796
16545TIP3   OH271125   6.011   1.188   0.809  0.3451  0.0640 -0.1634
16545TIP3    H171126   5.975   1.171   0.896 -0.5695  1.1136 -0.3155
16545TIP3    H271127   5.991   1.109   0.759  0.2029 -0.2382  0.3623
16546TIP3   OH271128   4.880   3.950  12.743 -0.1902 -0.0905  0.8271
16546TIP3    H171129   4.964   3.937  12.699 -0.7440  0.2028 -0.3469
16546TIP3    H271130   4.851   3.862  12.767  0.6853 -0.1517  1.6982
16547TIP3   OH271131   4.390   5.970  12.657 -0.2509  0.4321  0.0610
16547TIP3    H171132   4.437   6.012  12.729  0.4575  0.5303 -0.4469
16547TIP3    H271133   4.455   5.915  12.614  0.0439  2.2529 -2.0166
16548TIP3   OH271134   5.361   5.328  16.075  0.2082 -0.0412  0.5349
16548TIP3    H171135   5.277   5.342  16.119 -0.5837 -0.4462 -0.8098
16548TIP3    H271136   5.346   5.254  16.017  1.4507 -0.0011  0.1355
16549TIP3   OH271137   3.366   2.966   0.333  0.4030  0.0239  0.0027
16549TIP3    H171138   3.383   2.919   0.415 -0.4477  2.1102  1.4426
16549TIP3    H271139   3.272   2.960   0.322  0.3071  1.1964  0.1076
16550TIP3   OH271140   6.769   0.791   5.300  0.6778 -0.3330 -0.5671
16550TIP3    H171141   6.740   0.859   5.361 -0.9509 -1.4655 -0.0104
16550TIP3    H271142   6.717   0.807   5.221 -0.4583 -1.4651 -0.0905
16551TIP3   OH271143   6.123   2.707  15.743  0.6179  0.3763  0.1974
16551TIP3    H171144   6.207   2.700  15.698  0.1589  1.7697 -0.9507
16551TIP3    H271145   6.082   2.785  15.705 -0.1081  1.2242  2.5385
16552TIP3   OH271146   4.422   2.355  12.398 -0.0971 -0.3765  0.4251
16552TIP3    H171147   4.348   2.415  12.402 -0.5901 -0.7365 -1.9424
16552TIP3    H271148   4.420   2.309  12.482 -0.7609  1.6448  1.5714
16553TIP3   OH271149   3.551   5.157   1.199 -0.0954  0.1392  0.4789
16553TIP3    H171150   3.506   5.239   1.220  0.3154  0.1057  1.5332
16553TIP3    H271151   3.529   5.141   1.107 -2.8769 -0.2760  1.1173
16554TIP3   OH271152   4.518   0.970   5.976  0.0177 -0.5380  0.0463
16554TIP3    H171153   4.446   1.031   5.993  0.8203  0.8739 -1.3326
16554TIP3    H271154   4.537   0.931   6.061 -1.8489 -0.3608  0.5792
16555TIP3   OH271155   4.503   6.206   2.195 -0.1669  0.0818 -0.1199
16555TIP3    H171156   4.545   6.180   2.113  1.3153 -0.4423  0.7531
16555TIP3    H271157   4.546   6.288   2.218 -0.5378  0.1979  0.1574
16556TIP3   OH271158   6.522   2.240   2.479 -0.2892 -0.1243  0.1861
16556TIP3    H171159   6.446   2.215   2.426 -1.7322  0.4482  1.8991
16556TIP3    H271160   6.574   2.296   2.421 -1.9610  0.7269 -0.5433
16557TIP3   OH271161   6.710   0.845   5.008  0.0454  0.3227 -0.3501
16557TIP3    H171162   6.708   0.939   5.028  0.7301  1.1366 -3.5576
16557TIP3    H271163   6.640   0.833   4.943  1.4774 -0.8665 -1.7537
16558TIP3   OH271164   2.296   3.793   5.399  0.1588 -0.1576 -0.3300
16558TIP3    H171165   2.317   3.871   5.452 -0.4716 -0.5244  0.4769
16558TIP3    H271166   2.215   3.816   5.354 -0.2303 -0.4621  0.1930
16559TIP3   OH271167   2.623   3.635  15.690 -0.2417 -0.1721 -0.1201
16559TIP3    H171168   2.663   3.680  15.765  0.8771 -0.3779 -0.5661
16559TIP3    H271169   2.607   3.705  15.626 -2.7813  0.2844  0.9087
16560TIP3   OH271170   3.226   1.907  14.432  0.1263 -0.3735  0.1038
16560TIP3    H171171   3.236   1.844  14.361  0.5941  0.7323 -0.8374
16560TIP3    H271172   3.264   1.863  14.508 -0.2532 -1.5209 -0.3422
16561TIP3   OH271173   0.053   1.195  12.505 -0.0845  0.0901 -0.0693
16561TIP3    H171174   0.117   1.133  12.468  0.9234 -0.0316  1.7740
16561TIP3    H271175   0.092   1.281  12.489 -0.8059  0.1950 -1.3698
16562TIP3   OH271176   4.636   5.465  12.249  0.1339  0.3233  0.1815
16562TIP3    H171177   4.634   5.556  12.218  2.5632  0.3267 -0.1390
16562TIP3    H271178   4.570   5.420  12.196 -0.8748  1.8081  0.1073
16563TIP3   OH271179   2.936   2.778   6.560  0.1181 -0.0451 -1.0069
16563TIP3    H171180   2.861   2.757   6.615 -1.2769  2.4542 -1.8107
16563TIP3    H271181   2.994   2.829   6.617  0.0414  0.0929 -1.0514
16564TIP3   OH271182   3.517   5.993  16.822  0.1323  0.5013 -0.0765
16564TIP3    H171183   3.567   5.995  16.741 -0.1997 -0.6924 -0.3284
16564TIP3    H271184   3.577   6.026  16.888  1.7250 -1.9708 -0.1414
16565TIP3   OH271185   2.163   2.918   0.353  0.0356  0.3825 -0.2454
16565TIP3    H171186   2.103   2.846   0.335 -0.1543  0.3937  0.3039
16565TIP3    H271187   2.132   2.989   0.297 -0.6035  0.4534  0.1872
16566TIP3   OH271188   6.623   3.156   1.864  0.5771  0.3650  0.0080
16566TIP3    H171189   6.555   3.106   1.821  2.2136 -0.9006 -1.2294
16566TIP3    H271190   6.698   3.097   1.869  1.0609  1.0514  3.0158
16567TIP3   OH271191   2.356   6.260  16.533  0.1376 -0.3722 -0.1584
16567TIP3    H171192   2.435   6.311  16.551  0.1622  0.0847 -1.4335
16567TIP3    H271193   2.382   6.202  16.461 -0.2226 -1.3984  0.5166
16568TIP3   OH271194   3.797   4.502  14.753  0.1390 -0.4641  0.1154
16568TIP3    H171195   3.810   4.431  14.690  0.1869  0.1432 -0.5757
16568TIP3    H271196   3.779   4.579  14.699  2.3714  0.5684  0.7188
16569TIP3   OH271197   4.140   2.246   5.894  0.6079 -0.2884 -0.1293
16569TIP3    H171198   4.112   2.316   5.953  0.5380  0.4817 -1.0480
16569TIP3    H271199   4.180   2.181   5.951  1.5812  0.9558  0.6442
16570TIP3   OH271200   4.428   1.701  14.515 -0.3358 -0.3931  0.0783
16570TIP3    H171201   4.439   1.664  14.427 -0.5340 -2.3319  0.8388
16570TIP3    H271202   4.336   1.685  14.537  0.1046 -1.4456  1.2759
16571TIP3   OH271203   2.690   6.026  16.063  0.2545  0.2780  0.1275
16571TIP3    H171204   2.717   6.104  16.015  2.1159 -0.9811 -0.9763
16571TIP3    H271205   2.684   5.957  15.997 -1.2565 -0.5817  1.0873
16572TIP3   OH271206   4.349   5.339   4.655  0.3667  0.4606 -0.2223
16572TIP3    H171207   4.359   5.292   4.737  2.4897  0.3866 -0.4700
16572TIP3    H271208   4.348   5.271   4.588 -0.8023  0.5544 -0.3199
16573TIP3   OH271209   3.602   4.256  16.277  0.3272  0.2339  0.0847
16573TIP3    H171210   3.614   4.234  16.370  2.1508  3.0588  0.6358
16573TIP3    H271211   3.602   4.171  16.232  0.9425 -1.1397  2.4804
16574TIP3   OH271212   2.631   6.716  12.457 -0.4636 -0.2331  0.0367
16574TIP3    H171213   2.631   6.793  12.513 -1.3898 -0.7769  0.8379
16574TIP3    H271214   2.722   6.687  12.454 -0.5054 -0.7177  2.0597
16575TIP3   OH271215   1.291   2.805  10.723  0.0373  0.7009 -0.2046
16575TIP3    H171216   1.315   2.878  10.666 -0.6803  2.4822  1.6614
16575TIP3    H271217   1.213   2.834  10.769 -1.1763 -1.8729 -0.4427
16576TIP3   OH271218   2.599   3.555   3.958  0.2587 -0.4481 -0.2969
16576TIP3    H171219   2.609   3.594   4.045 -0.2026  0.3958 -0.6189
16576TIP3    H271220   2.616   3.626   3.897 -0.7362 -0.7045 -0.8898
16577TIP3   OH271221   4.755   3.426  10.787 -0.1892  0.0952 -0.5987
16577TIP3    H171222   4.744   3.410  10.693  1.3998 -1.7151 -0.5460
16577TIP3    H271223   4.850   3.426  10.800 -0.3824  0.3608  1.0067
16578TIP3   OH271224   1.249   3.565  14.008  0.9252 -0.6910 -0.3777
16578TIP3    H171225   1.169   3.616  13.992  1.0504 -0.1572  0.6459
16578TIP3    H271226   1.316   3.631  14.023  1.5744 -1.1419 -1.2127
16579TIP3   OH271227   6.428   4.314   3.042 -0.3469 -0.0443  0.1054
16579TIP3    H171228   6.451   4.310   2.949  0.0746  0.9325  0.1584
16579TIP3    H271229   6.336   4.339   3.043  0.2171  2.2129 -0.0452
16580TIP3   OH271230   3.387   0.213  10.843 -0.2918 -0.3093  0.1440
16580TIP3    H171231   3.351   0.213  10.755 -0.3984  0.1571  0.1838
16580TIP3    H271232   3.444   0.136  10.846 -1.1871 -0.9830  0.0471
16581TIP3   OH271233   4.217   2.937  16.849  0.0650 -0.8211 -0.5045
16581TIP3    H171234   4.184   3.024  16.828  0.3588 -0.9723 -1.6881
16581TIP3    H271235   4.225   2.937  16.944 -0.9769  0.0564 -0.3941
16582TIP3   OH271236   4.526   3.762  16.757  0.2484 -0.5936 -0.4788
16582TIP3    H171237   4.475   3.838  16.785 -3.8726 -3.0665 -0.3976
16582TIP3    H271238   4.600   3.760  16.817 -1.8132  0.9854  2.4238
16583TIP3   OH271239   4.682   1.053   4.076  0.2566  0.3519 -0.1756
16583TIP3    H171240   4.714   0.963   4.086 -1.2534 -0.0446  1.6449
16583TIP3    H271241   4.589   1.044   4.056  0.0958  1.4924 -0.0321
16584TIP3   OH271242   1.920   3.879   2.300  0.2852 -0.0414  0.0850
16584TIP3    H171243   1.842   3.872   2.354 -0.0540 -0.8937 -0.4900
16584TIP3    H271244   1.926   3.794   2.256  2.3380 -0.5685  1.2158
16585TIP3   OH271245   5.494   4.360   0.445  0.1964  0.5903 -0.0002
16585TIP3    H171246   5.400   4.376   0.440  0.0116  0.3031  1.7941
16585TIP3    H271247   5.531   4.445   0.468  0.2090  0.4139  0.6513
16586TIP3   OH271248   2.118   3.805  13.940 -0.5420 -0.5348 -0.5591
16586TIP3    H171249   2.080   3.892  13.930  0.2813 -0.1965 -0.7780
16586TIP3    H271250   2.103   3.762  13.855 -1.6438 -0.9017 -0.2023
16587TIP3   OH271251   1.778   1.720   2.524  0.1023 -0.0168 -0.1575
16587TIP3    H171252   1.753   1.807   2.491 -1.2356 -0.9150 -1.6621
16587TIP3    H271253   1.813   1.737   2.611 -0.6608  1.9753 -0.1763
16588TIP3   OH271254   2.359   1.583  11.762  1.0561 -0.4251 -0.1338
16588TIP3    H171255   2.264   1.580  11.758  0.9466 -2.5177  2.0896
16588TIP3    H271256   2.388   1.496  11.734  2.2886 -0.0170 -0.2034
16589TIP3   OH271257   0.253   1.991   1.196  0.2972  0.5832 -0.2995
16589TIP3    H171258   0.239   2.044   1.275  0.6008 -0.2111  0.2984
16589TIP3    H271259   0.207   2.039   1.127 -1.2363  0.5234  0.6396
16590TIP3   OH271260   4.855   1.474   6.220 -0.0947  0.8257  0.0380
16590TIP3    H171261   4.786   1.478   6.286 -0.5787  1.5093 -0.4908
16590TIP3    H271262   4.832   1.399   6.165  1.7047 -1.4063  2.1019
16591TIP3   OH271263   6.605   0.605  16.871 -0.0512  0.5802  0.0906
16591TIP3    H171264   6.636   0.516  16.854  1.4271  1.0491  0.1929
16591TIP3    H271265   6.632   0.655  16.794  0.5189  1.2542  0.7134
16592TIP3   OH271266   1.837   5.724  13.296 -0.2570  0.0288  0.2126
16592TIP3    H171267   1.782   5.795  13.265 -0.4625  1.1367  2.8346
16592TIP3    H271268   1.779   5.669  13.348  0.1986 -1.3118 -0.6500
16593TIP3   OH271269   1.221   1.220  10.955  0.1258  0.1740  0.2483
16593TIP3    H171270   1.220   1.298  10.899 -0.5441  2.1089  2.7452
16593TIP3    H271271   1.310   1.217  10.990 -0.0711  0.3107  0.7724
16594TIP3   OH271272   1.457   6.597   2.600  0.2986 -0.0050  0.0509
16594TIP3    H171273   1.542   6.552   2.598  0.3670  0.1063  0.4407
16594TIP3    H271274   1.478   6.688   2.580  0.0488 -0.2937 -1.6915
16595TIP3   OH271275   0.679   0.606  11.872 -1.2231 -0.6706  0.4642
16595TIP3    H171276   0.670   0.627  11.779  0.5601  0.0061  0.4210
16595TIP3    H271277   0.633   0.676  11.917 -0.2039  0.2282  0.1414
16596TIP3   OH271278   3.141   0.626   3.297 -0.4960 -0.0522 -0.6900
16596TIP3    H171279   3.150   0.702   3.354 -1.1119 -1.4049  1.3130
16596TIP3    H271280   3.221   0.575   3.311 -1.1114 -0.9090 -0.2170
16597TIP3   OH271281   5.482   4.037  12.361 -0.2427  0.2495 -0.3579
16597TIP3    H171282   5.488   3.969  12.428 -1.2972 -0.6205 -1.1071
16597TIP3    H271283   5.572   4.053  12.334  0.0585 -0.4463  0.2190
16598TIP3   OH271284   1.554   3.557  12.948 -0.1281  0.3749  0.0651
16598TIP3    H171285   1.637   3.569  12.994  0.0960 -0.2376 -0.1715
16598TIP3    H271286   1.537   3.463  12.951 -0.4437  0.4021 -0.5210
16599TIP3   OH271287   1.202   2.218   0.406 -0.6563 -0.2423  0.2758
16599TIP3    H171288   1.231   2.300   0.446 -0.4306  0.7663 -1.7989
16599TIP3    H271289   1.106   2.223   0.406 -0.6399  0.1408 -0.0225
16600TIP3   OH271290   5.321   3.269  12.454 -0.3459 -0.1751 -0.2913
16600TIP3    H171291   5.256   3.259  12.385 -0.9060  1.0936  0.0239
16600TIP3    H271292   5.288   3.216  12.526 -0.0280 -1.0764 -0.7841
16601TIP3   OH271293   1.464   0.054   2.561  0.1476  0.2901 -0.0194
16601TIP3    H171294   1.474   0.136   2.609  1.7864  1.0197 -1.4805
16601TIP3    H271295   1.441   0.082   2.472  1.2070 -0.8017 -0.6536
16602TIP3   OH271296   0.668   6.288   3.460 -0.4696 -0.2639 -0.1614
16602TIP3    H171297   0.749   6.254   3.498 -0.8267  1.5760  2.4972
16602TIP3    H271298   0.697   6.341   3.385  0.5640 -1.2272 -0.4664
16603TIP3   OH271299   0.459   5.119   4.173  0.1031 -0.1487  0.1898
16603TIP3    H171300   0.413   5.161   4.100 -1.0078  0.6436  1.3032
16603TIP3    H271301   0.395   5.059   4.210 -0.2088  1.2088  1.9669
16604TIP3   OH271302   3.881   0.293  17.047  0.0470  0.5439 -0.7319
16604TIP3    H171303   3.938   0.217  17.056  1.6056  1.6646 -0.6089
16604TIP3    H271304   3.941   0.364  17.024 -1.4827  1.5303 -1.8158
16605TIP3   OH271305   5.192   2.746  13.651 -0.3676  0.0347  0.1094
16605TIP3    H171306   5.233   2.766  13.566 -1.1532 -0.6285 -0.4329
16605TIP3    H271307   5.247   2.793  13.714 -0.6118  1.7687 -0.8798
16606TIP3   OH271308   2.831   4.386  16.437  0.5573 -0.4797  0.5577
16606TIP3    H171309   2.777   4.352  16.508  0.6735  0.3763  1.0755
16606TIP3    H271310   2.916   4.404  16.478  0.7456 -0.3433  0.1151
16607TIP3   OH271311   3.381   5.857  11.634 -0.0287 -0.2892  0.2371
16607TIP3    H171312   3.326   5.814  11.700 -1.2929  0.2577 -0.4311
16607TIP3    H271313   3.437   5.915  11.684 -0.2499 -0.6480  0.9181
16608TIP3   OH271314   1.498   1.064  12.260 -0.1645 -0.0779  0.0416
16608TIP3    H171315   1.434   1.109  12.315  0.5235  1.5032 -0.3625
16608TIP3    H271316   1.456   1.057  12.175  0.5709  2.0453 -0.5542
16609TIP3   OH271317   2.056   4.773  13.294 -0.8472  0.1784 -0.1008
16609TIP3    H171318   2.124   4.780  13.361 -1.0031 -0.5342  0.1423
16609TIP3    H271319   2.076   4.843  13.232  0.5896 -0.5067 -0.4592
16610TIP3   OH271320   4.471   0.713  16.973 -0.3435 -0.4634  0.0408
16610TIP3    H171321   4.548   0.724  17.028  0.0095  0.0739 -0.5486
16610TIP3    H271322   4.418   0.648  17.018  0.7070 -1.2431  0.1778
16611TIP3   OH271323   5.030   6.514  14.671 -0.1137  0.7052 -0.3836
16611TIP3    H171324   4.976   6.439  14.646  1.1869 -0.7979  1.1138
16611TIP3    H271325   5.111   6.504  14.620  1.7424 -1.2911  2.6554
16612TIP3   OH271326   0.284   4.120   3.200  0.2844 -0.0388  0.3275
16612TIP3    H171327   0.292   4.061   3.276 -0.7547  0.5202  0.8929
16612TIP3    H271328   0.374   4.146   3.181  0.5718 -0.2192  1.3549
16613TIP3   OH271329   4.794   4.462   5.687  0.7013 -0.5665 -0.1206
16613TIP3    H171330   4.771   4.487   5.597  1.5711  1.1738  0.0817
16613TIP3    H271331   4.732   4.510   5.741 -0.9395 -2.9484  0.2200
16614TIP3   OH271332   0.159   6.027  17.045 -0.2782  0.6909  0.3485
16614TIP3    H171333   0.233   5.979  17.085 -0.8685 -1.1928 -0.6806
16614TIP3    H271334   0.197   6.109  17.015  1.2355  0.1029  0.5458
16615TIP3   OH271335   0.431   4.678  15.722 -0.0968  0.1308 -0.1192
16615TIP3    H171336   0.488   4.645  15.651 -0.6772  0.8790 -0.9496
16615TIP3    H271337   0.492   4.716  15.785  0.4731 -1.0340  0.0695
16616TIP3   OH271338   5.351   0.003  13.885 -0.3657  0.3187  0.3387
16616TIP3    H171339   5.425  -0.045  13.921 -0.6238  1.1721  2.1209
16616TIP3    H271340   5.274  -0.051  13.904 -0.2866 -0.4396 -1.2745
16617TIP3   OH271341   2.074   5.503   2.363 -0.2963  0.8344  0.3947
16617TIP3    H171342   2.092   5.576   2.422  0.7687 -0.1315  1.3059
16617TIP3    H271343   2.027   5.439   2.417  0.8612 -0.1451  0.2817
16618TIP3   OH271344   6.798   0.152  12.517 -0.6853 -0.1030  1.0741
16618TIP3    H171345   6.772   0.086  12.452 -0.0918  0.8965 -0.2393
16618TIP3    H271346   6.892   0.139  12.529 -0.5911  0.3864  0.9104
16619TIP3   OH271347   2.271   3.093   2.075  0.5133  0.6644 -0.0839
16619TIP3    H171348   2.187   3.138   2.062 -0.5918 -1.1951  0.2905
16619TIP3    H271349   2.337   3.157   2.048 -0.8376  3.2740  2.2734
16620TIP3   OH271350   2.368   6.369   1.566 -0.3604  0.4083  0.4204
16620TIP3    H171351   2.436   6.431   1.592 -0.2535  0.2418  0.5420
16620TIP3    H271352   2.409   6.283   1.577  0.2206  0.3525 -1.7409
16621TIP3   OH271353   0.764   4.282   5.760 -0.1366 -0.1850 -0.4199
16621TIP3    H171354   0.804   4.358   5.802  3.3519 -0.6004 -2.5994
16621TIP3    H271355   0.763   4.215   5.827  0.2521  0.7037  0.5027
16622TIP3   OH271356   5.835   0.221  12.291  1.0210  0.6797 -0.4347
16622TIP3    H171357   5.739   0.217  12.292  1.0228  0.7106  0.0173
16622TIP3    H271358   5.863   0.132  12.270  0.8970  0.5426 -0.0356
16623TIP3   OH271359   6.431   5.408   3.157 -0.3233  0.3675 -0.4535
16623TIP3    H171360   6.367   5.436   3.093 -0.9452 -0.1822 -0.0862
16623TIP3    H271361   6.494   5.355   3.106 -2.1616 -2.1953 -0.2813
16624TIP3   OH271362   0.627   4.992  15.040 -0.7016  0.1599 -0.4703
16624TIP3    H171363   0.577   5.066  15.074  0.1965  1.1366 -1.2123
16624TIP3    H271364   0.641   4.936  15.116 -2.0438  0.3606 -0.0461
16625TIP3   OH271365   4.071   2.927   3.666  0.0753  0.1411  0.9503
16625TIP3    H171366   4.084   2.888   3.752 -0.1082  1.0399  1.3988
16625TIP3    H271367   3.998   2.879   3.628  0.3056 -0.4079  1.2027
16626TIP3   OH271368   1.878   2.315  11.669  0.5774  0.0664 -0.5395
16626TIP3    H171369   1.943   2.332  11.601  1.4474  2.4765  0.8139
16626TIP3    H271370   1.886   2.388  11.731 -3.4025  0.5320 -0.2733
16627TIP3   OH271371   2.256   0.012  14.678 -0.0996  0.4251  0.0081
16627TIP3    H171372   2.313   0.087  14.664  1.5667 -0.6419  0.7511
16627TIP3    H271373   2.294  -0.058  14.625 -1.0426 -0.1607  0.0805
16628TIP3   OH271374   1.899   3.773   1.546  0.5449  0.1090  0.1312
16628TIP3    H171375   1.863   3.862   1.544  0.2919  0.0069  0.0850
16628TIP3    H271376   1.950   3.770   1.627  2.3093  0.9687 -0.8719
16629TIP3   OH271377   0.873   6.205  13.838 -0.4634 -0.0636 -0.2355
16629TIP3    H171378   0.930   6.246  13.773 -1.4530  1.7182 -0.0401
16629TIP3    H271379   0.869   6.268  13.910 -1.6358 -0.7402  0.3236
16630TIP3   OH271380   4.698   6.608  11.289  0.0847 -0.1471 -0.1128
16630TIP3    H171381   4.634   6.574  11.352  1.4367  0.3456  1.6189
16630TIP3    H271382   4.672   6.570  11.206 -1.9109 -0.6809  0.6903
16631TIP3   OH271383   5.917   1.754  16.943 -0.5630 -0.5123 -0.1940
16631TIP3    H171384   6.012   1.742  16.949 -0.8399 -2.4261  1.6792
16631TIP3    H271385   5.888   1.683  16.885 -0.8717 -0.0258 -0.6358
16632TIP3   OH271386   3.113   1.693   3.663 -0.4755 -0.3269 -0.2361
16632TIP3    H171387   3.087   1.671   3.752 -3.3271 -1.1483 -1.1595
16632TIP3    H271388   3.169   1.620   3.635  1.2399  0.3926  1.0964
16633TIP3   OH271389   1.670   0.907   3.025 -0.0827 -0.0263  0.1806
16633TIP3    H171390   1.633   0.820   3.037 -0.0778 -0.3759 -1.9541
16633TIP3    H271391   1.594   0.966   3.025 -0.3168 -0.3220 -0.7264
16634TIP3   OH271392   5.662   5.377  10.706 -0.3692 -0.3546  0.6430
16634TIP3    H171393   5.606   5.445  10.668  0.3511  0.5503  1.1779
16634TIP3    H271394   5.676   5.405  10.797  0.1373 -1.0895  0.7989
16635TIP3   OH271395   2.977   0.114   6.229  0.1287  0.0022 -0.2323
16635TIP3    H171396   3.058   0.136   6.275  1.1718  0.5257 -2.1993
16635TIP3    H271397   2.967   0.020   6.239  1.1026 -0.0944 -0.1469
16636TIP3   OH271398   6.679   1.755  16.465  0.1690  0.2954 -0.5188
16636TIP3    H171399   6.703   1.694  16.396  1.0363 -0.3036  0.2731
16636TIP3    H271400   6.670   1.700  16.543 -0.5028  0.9919 -0.0905
16637TIP3   OH271401   2.970   5.039   5.149 -0.5331  0.1791  0.3814
16637TIP3    H171402   3.059   5.060   5.176 -0.2002  2.4285 -2.0425
16637TIP3    H271403   2.933   5.123   5.119 -1.5697 -1.4729 -3.6284
16638TIP3   OH271404   6.488   2.384  13.080  0.1581 -0.4878 -0.0891
16638TIP3    H171405   6.560   2.434  13.118 -0.0584 -0.1207 -0.1590
16638TIP3    H271406   6.409   2.431  13.107 -0.0457 -0.7705 -0.1871
16639TIP3   OH271407   1.514   0.831   5.884  0.5934 -0.4274 -0.1016
16639TIP3    H171408   1.480   0.764   5.943 -1.1827  0.9514  0.5146
16639TIP3    H271409   1.558   0.894   5.942 -0.0840  0.2979 -0.3638
16640TIP3   OH271410   5.020   6.563  11.235 -0.7234 -0.1190  0.4063
16640TIP3    H171411   5.020   6.542  11.142  2.4947 -2.3498  0.7349
16640TIP3    H271412   4.927   6.572  11.257 -1.5711  2.5250 -3.2898
16641TIP3   OH271413   4.853   2.082   1.236  0.0867 -0.0605  0.4583
16641TIP3    H171414   4.946   2.062   1.240  0.2096  0.3046 -0.2696
16641TIP3    H271415   4.813   2.004   1.197  0.2817  0.2747 -0.4545
16642TIP3   OH271416   5.879   5.001   3.358  0.6844 -0.1619  0.0806
16642TIP3    H171417   5.876   4.910   3.328  0.3520 -0.3949  0.7839
16642TIP3    H271418   5.949   5.041   3.308 -0.1025 -0.4212 -1.2758
16643TIP3   OH271419   3.148   0.855  11.347 -0.4266 -0.6592 -0.2846
16643TIP3    H171420   3.118   0.836  11.258 -0.4160  1.1365 -0.7214
16643TIP3    H271421   3.177   0.771  11.382 -1.0882 -1.5175 -1.7249
16644TIP3   OH271422   6.439   2.923  17.132  0.4760 -0.0760 -0.1171
16644TIP3    H171423   6.484   2.844  17.162 -0.6092 -0.8958 -0.5745
16644TIP3    H271424   6.387   2.894  17.057 -1.0651  0.7497  0.5809
16645TIP3   OH271425   5.780   4.846   2.263  0.7068 -0.2605  0.2054
16645TIP3    H171426   5.803   4.761   2.301  0.7768  0.7896  2.7108
16645TIP3    H271427   5.688   4.858   2.285  0.6256  0.2125 -0.3671
16646TIP3   OH271428   6.474   2.318  12.285 -0.2681  0.3243  0.3427
16646TIP3    H171429   6.417   2.381  12.330  0.7627  0.9351  0.8100
16646TIP3    H271430   6.520   2.273  12.355 -0.4564 -0.4544 -0.0210
16647TIP3   OH271431   0.422   4.465   3.362 -0.1178  0.0911  0.0726
16647TIP3    H171432   0.437   4.408   3.286 -0.0434  0.3955 -0.1406
16647TIP3    H271433   0.452   4.413   3.436  0.2513 -0.0299 -0.1560
16648TIP3   OH271434   4.474   0.634   3.428 -0.0685  0.8073  0.5845
16648TIP3    H171435   4.406   0.658   3.365 -0.6425 -0.0077  0.8651
16648TIP3    H271436   4.456   0.541   3.447  3.0841 -0.4553 -1.8099
16649TIP3   OH271437   6.704   2.370   0.860 -0.0828 -0.1897  0.2685
16649TIP3    H171438   6.635   2.305   0.848  0.4077 -0.7243  0.3069
16649TIP3    H271439   6.683   2.413   0.943 -0.4905 -0.1894  0.1678
16650TIP3   OH271440   4.016   1.347   2.092  0.1305 -0.0604 -0.0726
16650TIP3    H171441   3.932   1.364   2.135  0.9297  0.1054  1.5100
16650TIP3    H271442   4.067   1.427   2.106  0.8761 -0.4985 -0.1995
16651TIP3   OH271443   3.751   3.033   5.189 -0.4709  0.3480 -0.6206
16651TIP3    H171444   3.749   3.015   5.283 -0.3932  0.4273 -0.6041
16651TIP3    H271445   3.837   3.072   5.173 -0.7765  1.0498 -0.5905
16652TIP3   OH271446   4.958   0.062   3.244  0.5895  0.1350 -0.0654
16652TIP3    H171447   4.914   0.027   3.322 -0.9266  1.6052 -0.2004
16652TIP3    H271448   4.939  -0.002   3.175 -1.2686  0.6551 -0.0797
16653TIP3   OH271449   5.064   5.595  12.308  0.1511 -0.1207  0.5738
16653TIP3    H171450   5.079   5.575  12.400  0.2234 -0.4490  0.4937
16653TIP3    H271451   4.977   5.558  12.290  0.1454 -0.0741  0.5090
16654TIP3   OH271452   3.710   4.430   5.839  0.3757 -0.6014 -0.1166
16654TIP3    H171453   3.773   4.401   5.773  0.2239 -0.4381 -0.3313
16654TIP3    H271454   3.739   4.517   5.865  0.7271 -0.8632  0.4007
16655TIP3   OH271455   6.049   5.705   1.117  0.1269  0.1843  0.5258
16655TIP3    H171456   6.034   5.619   1.077  0.2050  0.6878 -0.6366
16655TIP3    H271457   6.059   5.764   1.042  4.1698  0.5676  1.1426
16656TIP3   OH271458   3.766   1.668   2.509  0.4320  0.4105 -0.9856
16656TIP3    H171459   3.790   1.756   2.536 -1.5973  1.1023 -1.2692
16656TIP3    H271460   3.693   1.644   2.566  0.2893 -0.6706 -1.5929
16657TIP3   OH271461   6.760   1.591  15.960  0.1517  0.3381 -0.4811
16657TIP3    H171462   6.682   1.610  15.909  0.7947  1.4631 -1.0646
16657TIP3    H271463   6.829   1.646  15.922  0.9235  0.3362  0.8419
16658TIP3   OH271464   6.559   2.472   4.420 -0.3179 -0.6063  0.1364
16658TIP3    H171465   6.485   2.528   4.395 -0.5919 -0.9642  0.1366
16658TIP3    H271466   6.557   2.470   4.515  0.2396  0.1088  0.1667
16659TIP3   OH271467   5.850   1.952   1.561  0.0170 -0.3798  0.0907
16659TIP3    H171468   5.928   1.977   1.510 -1.0441  0.9177 -0.9913
16659TIP3    H271469   5.853   2.008   1.638 -1.1960  1.7385 -1.2728
16660TIP3   OH271470   5.649   1.559   5.901 -0.0481  0.4385 -0.2993
16660TIP3    H171471   5.637   1.631   5.963 -0.4138 -0.0799  0.2531
16660TIP3    H271472   5.684   1.600   5.822 -0.9632  1.3347 -0.2634
16661TIP3   OH271473   6.811   1.095  14.190  0.3262 -0.0918  0.4059
16661TIP3    H171474   6.846   1.097  14.279  1.9236 -0.7894 -0.1690
16661TIP3    H271475   6.761   1.014  14.185 -0.8168  0.5604  1.0266
16662TIP3   OH271476   4.533   6.104  13.923 -0.0886 -0.1513 -0.1326
16662TIP3    H171477   4.502   6.158  13.996  0.7067 -2.4172  2.0124
16662TIP3    H271478   4.615   6.146  13.896 -0.2560  0.5680  0.4457
16663TIP3   OH271479   5.042   2.104  16.997 -0.0782 -0.5084  0.3229
16663TIP3    H171480   5.110   2.099  16.930 -0.9790  1.6405 -0.8387
16663TIP3    H271481   5.088   2.083  17.079  1.7110 -0.3073 -0.5804
16664TIP3   OH271482   6.281   4.882   5.174  0.1571 -0.7615 -0.2155
16664TIP3    H171483   6.352   4.838   5.128  0.1656  0.3241 -1.2533
16664TIP3    H271484   6.323   4.956   5.218 -0.3005 -0.1719 -0.7553
16665TIP3   OH271485   1.427   4.417  11.825 -0.9688 -0.2356 -0.7974
16665TIP3    H171486   1.386   4.345  11.873 -0.9150 -1.1499 -2.0728
16665TIP3    H271487   1.521   4.404  11.837 -0.9784  0.9522  0.8275
16666TIP3   OH271488   0.207   3.753  14.849 -0.3563  0.1518 -0.2431
16666TIP3    H171489   0.232   3.837  14.810  0.6617  0.1263  0.3320
16666TIP3    H271490   0.287   3.701  14.848 -0.6199 -0.2879  0.7564
16667TIP3   OH271491   2.383   3.705  11.892 -0.2628 -0.4622  0.0425
16667TIP3    H171492   2.358   3.659  11.811  0.8130 -1.8822  0.4725
16667TIP3    H271493   2.351   3.794  11.879 -1.6703 -1.0860 -1.2137
16668TIP3   OH271494   3.595   6.227  14.250 -0.3039 -0.2459 -0.1448
16668TIP3    H171495   3.553   6.307  14.283  0.6717  0.4358 -0.5076
16668TIP3    H271496   3.651   6.198  14.322  0.7083  0.4191 -0.6476
16669TIP3   OH271497   5.348   2.733  17.087 -0.3781  0.0127 -0.1836
16669TIP3    H171498   5.270   2.743  17.033 -0.1550 -0.2705 -0.5665
16669TIP3    H271499   5.325   2.666  17.151 -0.5387  0.1129 -0.1389
16670TIP3   OH271500   5.000   4.730  12.358  0.5988 -0.1708  0.5233
16670TIP3    H171501   4.974   4.641  12.382  1.7120 -1.3891 -2.3853
16670TIP3    H271502   5.081   4.745  12.407  1.7720 -1.8004 -0.8194
16671TIP3   OH271503   4.391   0.124  11.876  0.2388  0.3561 -0.5401
16671TIP3    H171504   4.358   0.187  11.812  0.9809 -0.9120 -2.2870
16671TIP3    H271505   4.363   0.039  11.842  1.6290 -0.4474  0.2050
16672TIP3   OH271506   5.863   5.334  11.192  0.2708  0.0407 -0.0823
16672TIP3    H171507   5.795   5.395  11.219  1.4058  1.8697 -1.1512
16672TIP3    H271508   5.911   5.313  11.273  0.2359  1.0501  0.2039
16673TIP3   OH271509   5.619   5.090   4.092  0.0095 -0.2809 -0.2808
16673TIP3    H171510   5.624   5.109   4.186  0.5272  1.6119 -0.6614
16673TIP3    H271511   5.555   5.151   4.058 -0.0023 -0.7930 -1.2163
16674TIP3   OH271512   1.490   2.870   0.879 -0.6171  0.0506  0.6096
16674TIP3    H171513   1.577   2.907   0.861 -1.1350  0.4253 -1.3161
16674TIP3    H271514   1.506   2.776   0.887  0.0996  0.2138  1.3069
16675TIP3   OH271515   2.585   3.815  11.542  0.0203 -0.1448  0.0891
16675TIP3    H171516   2.673   3.843  11.570  0.1074  2.1948 -2.1414
16675TIP3    H271517   2.526   3.876  11.586 -0.1592  0.6556 -1.2063
16676TIP3   OH271518   3.031   5.765   2.256  0.6762  0.3239 -0.4648
16676TIP3    H171519   3.031   5.820   2.178 -0.7262  0.6157 -0.2814
16676TIP3    H271520   2.943   5.729   2.260  1.1916 -0.9169  0.1393
16677TIP3   OH271521   6.569   5.374  13.201  0.0751  0.0755  0.1182
16677TIP3    H171522   6.587   5.391  13.293 -0.1928  1.7472 -0.1087
16677TIP3    H271523   6.547   5.460  13.164 -1.6344 -0.8314 -1.1059
16678TIP3   OH271524   2.623   4.598   0.220 -0.4073  0.2689  0.0385
16678TIP3    H171525   2.701   4.634   0.177  1.3879 -1.0318  1.9854
16678TIP3    H271526   2.640   4.503   0.223 -2.6921 -0.2061 -0.5920
16679TIP3   OH271527   1.597   0.614  10.739  0.1936  0.3696 -0.2037
16679TIP3    H171528   1.584   0.681  10.807 -1.3999  0.2775 -0.3877
16679TIP3    H271529   1.592   0.531  10.785  1.6534  0.3250 -0.0617
16680TIP3   OH271530   0.873   2.248   4.364  0.3862 -0.3598  0.3641
16680TIP3    H171531   0.966   2.226   4.373  0.9483  1.4012 -0.5572
16680TIP3    H271532   0.866   2.336   4.402 -1.4148 -1.3485  2.5358
16681TIP3   OH271533   0.209   2.776  14.599  0.0098 -0.0500  0.4818
16681TIP3    H171534   0.168   2.790  14.513 -1.6058 -1.8613  0.8725
16681TIP3    H271535   0.135   2.759  14.658  1.1903 -0.6357  1.8457
16682TIP3   OH271536   4.031   2.387  13.298 -0.2864 -0.1366 -0.2244
16682TIP3    H171537   4.108   2.363  13.349 -0.9715  1.4507  1.7308
16682TIP3    H271538   4.024   2.320  13.230  1.1632 -1.9348  1.2935
16683TIP3   OH271539   1.902   2.486   2.792 -0.8655  0.1942 -0.3103
16683TIP3    H171540   1.978   2.540   2.813  0.1168 -0.8437 -1.0429
16683TIP3    H271541   1.868   2.457   2.876 -0.5080  0.7512  0.0287
16684TIP3   OH271542   5.768   3.679  17.187 -0.4716 -0.1455 -0.5245
16684TIP3    H171543   5.703   3.749  17.180  0.0288  0.4700  0.6880
16684TIP3    H271544   5.850   3.725  17.204  0.1116 -0.9734 -1.0348
16685TIP3   OH271545   4.098   2.904   5.254  0.0572 -0.9029 -0.0709
16685TIP3    H171546   4.077   2.985   5.208  1.1933 -0.6289 -0.1355
16685TIP3    H271547   4.057   2.914   5.340 -1.4441 -1.1035 -0.7395
16686TIP3   OH271548   1.686   1.421  12.739  0.6210 -0.0720 -0.3536
16686TIP3    H171549   1.773   1.437  12.775  0.6932 -0.1735 -0.4838
16686TIP3    H271550   1.627   1.465  12.801  0.6121 -1.6665  0.8271
16687TIP3   OH271551   1.920   4.996   5.093 -0.1599  0.2204  0.3004
16687TIP3    H171552   1.934   5.014   5.185 -0.2101 -1.1394  0.6027
16687TIP3    H271553   1.891   4.905   5.091  1.5919 -0.3686 -1.1966
16688TIP3   OH271554   1.539   4.412  16.468  0.1293 -0.4773  0.0667
16688TIP3    H171555   1.445   4.397  16.478  0.2522 -1.0436  0.3513
16688TIP3    H271556   1.581   4.335  16.506  0.7411  0.2655  0.9337
16689TIP3   OH271557   4.572   0.229   1.486 -0.1491 -0.1352  0.4992
16689TIP3    H171558   4.609   0.308   1.446 -3.0170  0.5380 -1.1498
16689TIP3    H271559   4.580   0.243   1.580  0.0607  1.8195  0.2339
16690TIP3   OH271560   3.388   1.043  12.063 -0.1136  0.4005  0.2413
16690TIP3    H171561   3.321   1.060  12.129 -0.9610  0.1761 -0.5515
16690TIP3    H271562   3.410   1.129  12.028  0.9864  0.6293  1.4084
16691TIP3   OH271563   2.416   0.224  16.741  0.3206 -0.0143 -0.6468
16691TIP3    H171564   2.447   0.157  16.680  0.7449 -0.6623  0.2545
16691TIP3    H271565   2.382   0.175  16.816 -0.8850  0.7418 -0.6712
16692TIP3   OH271566   3.153   4.364  12.533 -0.1226  0.0430 -0.3344
16692TIP3    H171567   3.079   4.413  12.569  0.5952  1.0545 -0.2100
16692TIP3    H271568   3.178   4.412  12.453 -1.3111 -1.8295 -1.9279
16693TIP3   OH271569   4.401   0.007  16.325 -0.3777  0.1265  0.2451
16693TIP3    H171570   4.361   0.005  16.412  0.8754 -0.8948  0.8405
16693TIP3    H271571   4.405   0.100  16.302 -0.5930  0.4214  1.3459
16694TIP3   OH271572   4.943   2.055   1.916 -0.1663 -0.3258  0.2374
16694TIP3    H171573   4.939   2.014   1.829  1.2385 -1.3470  0.6190
16694TIP3    H271574   4.902   1.991   1.974  0.0124 -0.1882  0.5136
16695TIP3   OH271575   5.446   1.741   5.300  0.3794 -0.3090 -0.3205
16695TIP3    H171576   5.536   1.770   5.284  0.6891 -0.5170  0.9298
16695TIP3    H271577   5.455   1.669   5.362 -0.6548 -0.3129 -0.1606
16696TIP3   OH271578   3.550   4.402   0.332  0.4290  0.2127 -0.0103
16696TIP3    H171579   3.596   4.319   0.345  0.9084  0.3842 -0.5495
16696TIP3    H271580   3.540   4.409   0.237  0.2999  0.7277  0.0375
16697TIP3   OH271581   4.282   2.025   2.361  0.4866 -0.1943  0.2292
16697TIP3    H171582   4.348   1.988   2.420  1.3464  1.9789  0.7396
16697TIP3    H271583   4.205   1.970   2.374  2.2134 -3.0241 -0.6068
16698TIP3   OH271584   4.872   5.646  13.357  0.0438 -0.1326  0.2590
16698TIP3    H171585   4.940   5.708  13.384 -1.1606  1.0629  0.6068
16698TIP3    H271586   4.826   5.689  13.285 -0.5460 -0.7910  0.2297
16699TIP3   OH271587   5.802   6.131   4.906 -0.1077 -0.7057  0.2888
16699TIP3    H171588   5.752   6.052   4.884 -0.3679 -0.3177 -0.5785
16699TIP3    H271589   5.826   6.120   4.998 -2.4222 -0.5938  0.9697
16700TIP3   OH271590   6.474   2.385   5.010 -0.2846  0.3489 -0.6495
16700TIP3    H171591   6.456   2.359   5.100  0.2996  0.5507 -0.4728
16700TIP3    H271592   6.475   2.480   5.012  0.9238  0.3451 -0.6248
16701TIP3   OH271593   0.767   5.016  16.202  0.4632 -0.4869  0.7932
16701TIP3    H171594   0.792   5.046  16.114  2.3232 -1.9071  0.7482
16701TIP3    H271595   0.790   5.088  16.260 -0.8082  0.4769  0.1270
16702TIP3   OH271596   0.349   3.124   3.051 -0.0900  0.4854  0.1057
16702TIP3    H171597   0.267   3.145   3.096 -0.2430 -0.9259  0.5489
16702TIP3    H271598   0.407   3.093   3.121  0.3170  0.0765 -0.4050
16703TIP3   OH271599   5.337   1.447   0.884  0.1074  1.1100  0.0860
16703TIP3    H171600   5.286   1.471   0.961  1.5422  0.3002  1.3322
16703TIP3    H271601   5.419   1.495   0.894  0.9670 -0.2804 -0.0476
16704TIP3   OH271602   2.158   3.988  17.066  0.1637  0.7744 -0.5989
16704TIP3    H171603   2.248   4.013  17.043  1.3139 -0.7536  1.8067
16704TIP3    H271604   2.122   4.065  17.110  0.4449  1.2293 -1.1530
16705TIP3   OH271605   6.105   1.414   5.516 -0.0549  0.0199  0.8819
16705TIP3    H171606   6.073   1.335   5.471 -2.2197  0.9061  0.7813
16705TIP3    H271607   6.031   1.444   5.568  1.1465  1.2930  1.9380
16706TIP3   OH271608   6.366   1.051   0.081 -0.6718  1.0351 -0.4815
16706TIP3    H171609   6.401   1.055   0.170 -2.0325  2.1028  0.0413
16706TIP3    H271610   6.286   0.998   0.089  0.9240 -1.7496 -1.7257
16707TIP3   OH271611   2.239   0.586   3.079 -0.3976  0.2068 -0.2407
16707TIP3    H171612   2.227   0.664   3.132  1.9034  0.0722  0.6201
16707TIP3    H271613   2.224   0.513   3.139  0.6399  0.0492 -0.1389
16708TIP3   OH271614   0.303   2.240  13.706 -0.2281 -0.2424  0.1730
16708TIP3    H171615   0.311   2.145  13.706 -0.1256 -0.3677 -3.1922
16708TIP3    H271616   0.218   2.257  13.667  0.7242  0.9807 -1.5109
16709TIP3   OH271617   0.832   0.410   5.822  0.4380  0.5925  0.3857
16709TIP3    H171618   0.744   0.394   5.789  1.2453  2.1215 -2.8822
16709TIP3    H271619   0.849   0.337   5.882 -1.9661 -1.3462 -1.1108
16710TIP3   OH271620   2.108   5.862  15.828  0.1862  0.0358 -0.2176
16710TIP3    H171621   2.141   5.804  15.896 -1.5453 -0.2794  0.4105
16710TIP3    H271622   2.175   5.860  15.759  1.8765  0.1758  1.3461
16711TIP3   OH271623   4.115   6.728  11.579 -0.3581 -0.9175 -0.8382
16711TIP3    H171624   4.060   6.707  11.504  1.4802  0.0789 -2.5563
16711TIP3    H271625   4.126   6.823  11.575  0.1318 -0.8995  0.4450
16712TIP3   OH271626   1.990   2.997  14.381 -0.2575  0.4539 -0.1336
16712TIP3    H171627   1.973   3.080  14.425 -0.4222  0.9889 -1.1869
16712TIP3    H271628   2.048   3.019  14.309 -0.0101 -0.4092 -0.2166
16713TIP3   OH271629   3.589   4.848   2.543  0.0247 -0.8350  0.9593
16713TIP3    H171630   3.587   4.942   2.526 -0.4096 -0.8296  1.0432
16713TIP3    H271631   3.538   4.809   2.472  0.9471 -1.0865  0.4175
16714TIP3   OH271632   4.431   2.644   4.391  0.5158 -0.5576  0.1991
16714TIP3    H171633   4.519   2.652   4.354 -0.1869  0.5537 -1.3652
16714TIP3    H271634   4.399   2.734   4.394 -0.9990 -1.0516 -0.3789
16715TIP3   OH271635   6.749   3.917  16.411 -0.1806  0.6194  0.6091
16715TIP3    H171636   6.724   3.834  16.370  1.3696 -0.9472  2.6193
16715TIP3    H271637   6.717   3.908  16.501 -1.5794  3.0297  0.4381
16716TIP3   OH271638   1.614   0.424   4.892  0.2360 -0.3415  1.0566
16716TIP3    H171639   1.552   0.471   4.947  0.4181 -0.8258  1.6951
16716TIP3    H271640   1.576   0.336   4.882 -0.4078  0.0907 -0.6284
16717TIP3   OH271641   3.636   2.686   2.778  0.7614 -0.1143 -0.3987
16717TIP3    H171642   3.605   2.711   2.865 -1.6043 -1.8635 -0.6395
16717TIP3    H271643   3.572   2.722   2.717  2.4748  1.2318 -1.4954
16718TIP3   OH271644   3.948   4.284   4.293  0.4334 -0.4462 -0.1849
16718TIP3    H171645   3.951   4.351   4.362  0.2030 -0.6435  0.0184
16718TIP3    H271646   3.948   4.201   4.341 -1.2368 -0.5769 -0.3689
16719TIP3   OH271647   6.208   5.218   5.171  0.2352 -0.5585 -0.0545
16719TIP3    H171648   6.280   5.202   5.110 -0.3652  0.7169 -1.1478
16719TIP3    H271649   6.141   5.155   5.147  1.5054 -2.8697  2.0099
16720TIP3   OH271650   3.628   0.815  16.808  0.1898  0.3968  0.1902
16720TIP3    H171651   3.619   0.827  16.902  0.8336 -1.0823  0.4655
16720TIP3    H271652   3.722   0.818  16.792  0.0511  2.0529 -0.6526
16721TIP3   OH271653   0.486   3.561   5.574 -0.5202 -0.0670  0.1487
16721TIP3    H171654   0.569   3.513   5.579  1.2451  2.8092  2.3008
16721TIP3    H271655   0.453   3.561   5.664 -0.8353  1.9563  0.0856
16722TIP3   OH271656   3.666   3.555  12.498 -0.0622  0.1943  0.2400
16722TIP3    H171657   3.715   3.490  12.548  0.4062 -0.4915 -1.0557
16722TIP3    H271658   3.576   3.548  12.529 -0.2437 -1.8483 -0.6012
16723TIP3   OH271659   6.472   6.307  16.695  0.5673 -0.2367  0.0470
16723TIP3    H171660   6.408   6.308  16.624  1.0427 -0.3317 -0.3929
16723TIP3    H271661   6.437   6.366  16.761 -0.2399 -0.7148  0.0526
16724TIP3   OH271662   5.537   1.567   5.517  0.0659  0.5724  0.0023
16724TIP3    H171663   5.618   1.604   5.553 -1.0592  1.5350  1.6927
16724TIP3    H271664   5.545   1.473   5.534  1.4348  0.4358 -1.1831
16725TIP3   OH271665   2.725   1.780  15.910  0.5249  0.3111 -0.1056
16725TIP3    H171666   2.677   1.789  15.992 -1.8513  0.3511 -1.3941
16725TIP3    H271667   2.740   1.686  15.901  1.6989  0.3884  0.8089
16726TIP3   OH271668   2.450   4.085   0.272  0.1973  0.0953  0.2507
16726TIP3    H171669   2.391   4.088   0.197  0.5307  1.3739  0.0139
16726TIP3    H271670   2.392   4.080   0.348 -0.1296 -1.8103 -0.0944
16727TIP3   OH271671   6.365   2.972   2.111 -0.3334 -0.0840 -0.2479
16727TIP3    H171672   6.402   2.969   2.022 -0.1414 -0.0178 -0.1709
16727TIP3    H271673   6.300   2.902   2.112 -0.4408  0.0125 -0.4896
16728TIP3   OH271674   4.093   3.098  13.772  0.3353 -0.3845  0.0742
16728TIP3    H171675   4.089   3.094  13.867 -0.0721 -0.3126  0.0584
16728TIP3    H271676   4.187   3.092  13.752  0.5493  0.9721  0.5542
16729TIP3   OH271677   6.606   0.400   2.885 -0.1282 -0.3788  0.3008
16729TIP3    H171678   6.566   0.323   2.925  0.5339  0.3885  2.5955
16729TIP3    H271679   6.666   0.433   2.951  1.1894  0.9252 -1.4331
16730TIP3   OH271680   4.698   5.279  13.626  0.4908 -0.2669 -0.0049
16730TIP3    H171681   4.765   5.221  13.590  0.2932 -0.8321  0.5365
16730TIP3    H271682   4.661   5.231  13.700  0.1667  0.4503  0.3081
16731TIP3   OH271683   6.052   0.463   2.318 -0.3475  0.0380 -0.2841
16731TIP3    H171684   6.052   0.380   2.365 -1.5347 -0.9021 -1.8679
16731TIP3    H271685   6.126   0.456   2.258 -1.6528 -0.7779 -1.8618
16732TIP3   OH271686   2.530   0.564  16.333 -0.5842  0.1667  0.2235
16732TIP3    H171687   2.515   0.630  16.401 -0.3661 -0.6587  1.0955
16732TIP3    H271688   2.561   0.613  16.258 -0.2394  1.0382  0.9201
16733TIP3   OH271689   2.700   0.222   0.972  0.3615  0.3243 -0.3898
16733TIP3    H171690   2.670   0.171   0.897 -1.5960 -0.0489  0.5651
16733TIP3    H271691   2.737   0.302   0.935 -1.2003  0.4619 -1.7506
16734TIP3   OH271692   3.167   1.736  15.146  0.3865 -0.5050 -0.0077
16734TIP3    H171693   3.129   1.671  15.087  0.3641 -1.8571  1.4356
16734TIP3    H271694   3.261   1.733  15.126  0.2828 -0.3380 -0.5477
16735TIP3   OH271695   5.085   5.009  12.622 -0.2848  0.1036  0.7655
16735TIP3    H171696   5.112   4.918  12.609 -1.5938 -0.2968  0.7464
16735TIP3    H271697   5.062   5.014  12.714 -0.8019  0.2432  0.6320
16736TIP3   OH271698   4.482   4.100   1.875  0.5804  0.4009 -0.1826
16736TIP3    H171699   4.558   4.151   1.846  0.5124  0.5116 -0.1667
16736TIP3    H271700   4.488   4.018   1.826 -0.1681  1.0352 -1.3893
16737TIP3   OH271701   5.761   3.937  15.752  0.1043 -0.1508 -0.2998
16737TIP3    H171702   5.758   3.971  15.663  0.4309  0.5299 -0.0628
16737TIP3    H271703   5.834   3.875  15.752 -0.0982 -0.3922 -0.5810
16738TIP3   OH271704   3.175   6.311  14.568 -0.2733  0.2579 -0.4899
16738TIP3    H171705   3.197   6.225  14.531  1.3074  0.9814 -1.3484
16738TIP3    H271706   3.141   6.360  14.494 -2.5821 -0.0445  0.3092
16739TIP3   OH271707   4.883   4.152   2.211 -0.4685  0.1267 -0.4521
16739TIP3    H171708   4.920   4.185   2.293  0.1675  0.3732 -0.8396
16739TIP3    H271709   4.921   4.206   2.143 -0.7766 -0.2664 -0.9449
16740TIP3   OH271710   6.343   0.874  10.554  0.1970 -0.3671 -0.3856
16740TIP3    H171711   6.332   0.781  10.573 -1.5371 -0.1722 -0.2608
16740TIP3    H271712   6.417   0.901  10.608  0.2429 -1.4980  0.1573
16741TIP3   OH271713   5.677   3.485  14.581  0.3596 -0.0498  0.0453
16741TIP3    H171714   5.626   3.404  14.588 -0.1226  0.0468 -1.7981
16741TIP3    H271715   5.672   3.509  14.488 -0.6220  2.8007  0.7186
16742TIP3   OH271716   5.965   5.705  11.147 -0.4351 -0.5499  0.0922
16742TIP3    H171717   6.003   5.791  11.128 -1.3919 -0.0870  0.1892
16742TIP3    H271718   5.921   5.716  11.232 -0.6449 -1.1050  0.0612
16743TIP3   OH271719   2.839   5.570  11.468 -0.2273  0.3273 -0.1733
16743TIP3    H171720   2.781   5.611  11.404  0.3106  0.4758 -0.5647
16743TIP3    H271721   2.910   5.534  11.417 -0.8525 -1.4161  0.1298
16744TIP3   OH271722   5.814   0.659  13.674 -0.8900 -0.3328  0.5660
16744TIP3    H171723   5.903   0.663  13.710 -0.9829  2.6401  0.6549
16744TIP3    H271724   5.761   0.708  13.737 -2.0361  0.4619 -0.9603
16745TIP3   OH271725   0.917   4.378   1.695  0.0604  0.0548 -0.3676
16745TIP3    H171726   0.826   4.380   1.665 -0.1167 -1.1750  0.0269
16745TIP3    H271727   0.953   4.297   1.659  0.4950 -0.3254  0.8558
16746TIP3   OH271728   2.876   3.719   3.623  0.6143 -0.7578  0.1074
16746TIP3    H171729   2.925   3.654   3.674  2.4501  0.0126 -0.5682
16746TIP3    H271730   2.922   3.801   3.641 -0.0545 -0.1112 -1.0748
16747TIP3   OH271731   6.334   2.661   2.278  0.2503 -0.2497  0.3352
16747TIP3    H171732   6.273   2.705   2.218 -0.0087 -0.9481  0.0682
16747TIP3    H271733   6.390   2.731   2.311 -0.6980  0.4079  0.5833
16748TIP3   OH271734   0.643   0.255   4.503  0.8776 -0.5927  0.1293
16748TIP3    H171735   0.584   0.225   4.573  0.5263  0.0915  0.1450
16748TIP3    H271736   0.633   0.191   4.434 -0.9019  0.1762 -0.3926
16749TIP3   OH271737   2.671   5.290   5.732 -0.0175 -0.4353  0.4587
16749TIP3    H171738   2.677   5.302   5.637  2.6617 -3.4124  0.0904
16749TIP3    H271739   2.715   5.207   5.748  1.2337  0.7922  4.4957
16750TIP3   OH271740   3.320   1.089  15.857 -0.3001 -0.3531  0.0283
16750TIP3    H171741   3.372   1.014  15.885 -0.1433 -0.6565 -1.0456
16750TIP3    H271742   3.332   1.153  15.927  1.3479 -0.5029 -0.0789
16751TIP3   OH271743   4.531   5.812  11.007  0.1390  0.5784  0.3419
16751TIP3    H171744   4.540   5.898  10.965 -0.6163  0.6559  0.3282
16751TIP3    H271745   4.580   5.752  10.951 -2.3314  0.3237 -1.7268
16752TIP3   OH271746   1.635   6.036   5.294 -0.2366 -0.0636 -0.6189
16752TIP3    H171747   1.634   5.946   5.264 -1.1843 -0.2831  0.0254
16752TIP3    H271748   1.644   6.030   5.389  1.1544  0.5741 -0.6879
16753TIP3   OH271749   4.407   2.506   1.621  0.0091  0.2727 -0.2190
16753TIP3    H171750   4.444   2.548   1.543  0.9623 -0.0030  0.0716
16753TIP3    H271751   4.460   2.427   1.633 -1.3620 -0.7270 -0.4120
16754TIP3   OH271752   0.762   6.691  12.916 -0.1831  0.4583  0.4271
16754TIP3    H171753   0.833   6.736  12.872 -1.0996  0.2721 -1.3159
16754TIP3    H271754   0.805   6.640  12.985  1.2481  1.1140  0.0510
16755TIP3   OH271755   1.241   2.801   5.272  0.5844  0.5028  0.1194
16755TIP3    H171756   1.241   2.744   5.196  2.0190 -2.3086  2.0716
16755TIP3    H271757   1.316   2.772   5.324 -1.5457  0.8053  3.6450
16756TIP3   OH271758   1.252   0.542   0.047  0.4502  0.0061 -0.3394
16756TIP3    H171759   1.254   0.487   0.125  0.7162  1.0171  0.3875
16756TIP3    H271760   1.323   0.508  -0.008  0.1015 -0.8693 -0.2684
16757TIP3   OH271761   6.774   0.163   0.180 -0.2350  0.1968  0.2465
16757TIP3    H171762   6.690   0.141   0.140 -0.1203 -0.4864  0.3572
16757TIP3    H271763   6.753   0.180   0.272 -0.2217 -0.2296  0.3313
16758TIP3   OH271764   4.513   2.808  16.531  0.7966  0.5617 -0.1666
16758TIP3    H171765   4.566   2.797  16.610 -0.4136 -0.0714  0.5851
16758TIP3    H271766   4.549   2.886  16.489 -0.1793  2.5219  2.3804
16759TIP3   OH271767   2.262   6.589  10.658 -0.6891 -0.5150 -0.1164
16759TIP3    H171768   2.238   6.529  10.588  1.3207 -0.1523 -1.1827
16759TIP3    H271769   2.254   6.537  10.738 -1.9450 -1.2605 -0.6942
16760TIP3   OH271770   2.674   3.808   3.804 -0.5810  0.2730  0.4518
16760TIP3    H171771   2.687   3.892   3.847  0.4445  0.4361 -0.1395
16760TIP3    H271772   2.754   3.795   3.752 -1.8443  0.1837 -1.5612
16761TIP3   OH271773   6.666   6.305  13.863 -0.0514 -0.0242  0.2387
16761TIP3    H171774   6.630   6.383  13.905 -0.5263 -1.2429  2.2398
16761TIP3    H271775   6.690   6.247  13.936  1.7583 -1.1298 -1.1358
16762TIP3   OH271776   2.734   0.700  14.937 -0.1182  0.5714 -0.0191
16762TIP3    H171777   2.780   0.623  14.968 -1.6224 -0.6099 -0.5636
16762TIP3    H271778   2.741   0.764  15.008  0.9295 -0.1460  0.5406
16763TIP3   OH271779   5.816   0.056   4.818  0.2685 -0.0615  0.1004
16763TIP3    H171780   5.725   0.037   4.793  0.0546  1.9088 -0.7839
16763TIP3    H271781   5.810   0.096   4.904  0.2977  0.1188  0.0186
16764TIP3   OH271782   1.136   3.542  16.761 -0.0984 -0.0801 -0.4099
16764TIP3    H171783   1.172   3.454  16.756 -0.9938 -0.4225 -1.1803
16764TIP3    H271784   1.134   3.572  16.670  2.0285  1.5267  0.0094
16765TIP3   OH271785   4.899   0.232   1.267  0.4738  0.3572  0.4028
16765TIP3    H171786   4.860   0.311   1.303 -0.9728 -0.5652  0.9727
16765TIP3    H271787   4.877   0.163   1.330  1.5985 -0.5383 -0.1240
16766TIP3   OH271788   0.260   1.445   4.394 -0.3643  0.2143 -0.4866
16766TIP3    H171789   0.165   1.439   4.388 -0.3790 -0.8154  0.5405
16766TIP3    H271790   0.277   1.526   4.442 -0.8188 -0.7608  1.3814
16767TIP3   OH271791   4.461   5.659   0.180  0.3502  0.6042  0.4937
16767TIP3    H171792   4.461   5.678   0.086 -2.6537  1.7333  0.6197
16767TIP3    H271793   4.486   5.567   0.186  1.8986  0.8581 -1.2750
16768TIP3   OH271794   1.505   2.330  16.096  0.4341 -0.5419  0.6930
16768TIP3    H171795   1.526   2.405  16.151 -0.2293  0.5762 -0.5084
16768TIP3    H271796   1.462   2.368  16.019  1.2272 -2.0256 -0.5483
16769TIP3   OH271797   6.147   6.305  13.068  0.2977  0.4256  0.4689
16769TIP3    H171798   6.129   6.268  12.981 -0.5938  0.5576  0.5830
16769TIP3    H271799   6.242   6.308  13.074  0.3862 -0.9580  0.0790
16770TIP3   OH271800   3.956   5.880  10.804 -0.4761 -0.1602 -0.2959
16770TIP3    H171801   3.954   5.972  10.829 -0.7008 -0.3521  0.4101
16770TIP3    H271802   3.865   5.851  10.813 -0.1591 -0.8407  1.0254
16771TIP3   OH271803   1.683   6.372  16.603  0.5639 -0.0624  0.0735
16771TIP3    H171804   1.757   6.422  16.636 -0.5153  2.0011 -0.4886
16771TIP3    H271805   1.606   6.425  16.623 -0.4623 -0.4648 -2.4058
16772TIP3   OH271806   5.149   1.100   5.328  0.0084  0.1834  0.4435
16772TIP3    H171807   5.173   1.015   5.293  3.2186  1.2992 -0.4162
16772TIP3    H271808   5.124   1.082   5.419  0.9334 -1.6476  0.3780
16773TIP3   OH271809   3.529   1.278   4.002  0.0713 -0.3251 -0.8513
16773TIP3    H171810   3.517   1.369   3.976 -0.7713 -0.6069 -1.5114
16773TIP3    H271811   3.603   1.248   3.948  1.0331  0.2365  0.1180
16774TIP3   OH271812   1.191   0.560  13.765 -0.5012 -0.4073  0.1935
16774TIP3    H171813   1.238   0.484  13.731  2.2075  1.4370 -0.5128
16774TIP3    H271814   1.113   0.567  13.709 -0.3927 -2.1801 -0.2180
16775TIP3   OH271815   3.061   5.933  14.547 -0.2356 -0.1801 -0.9356
16775TIP3    H171816   3.118   5.998  14.506 -1.3383  0.7499 -1.0681
16775TIP3    H271817   3.100   5.915  14.632  0.8730 -0.4520 -1.4928
16776TIP3   OH271818   0.020   5.327  14.165  0.7810 -0.4345 -0.1224
16776TIP3    H171819   0.113   5.303  14.164  0.1481 -3.2143 -1.6288
16776TIP3    H271820  -0.018   5.272  14.234 -0.1411 -1.1969 -1.2171
16777TIP3   OH271821   6.194   6.295   5.510  0.1032 -0.0144 -0.2507
16777TIP3    H171822   6.260   6.249   5.459  0.9265 -1.0738  1.6532
16777TIP3    H271823   6.120   6.234   5.514  0.2404 -0.1582  0.2108
16778TIP3   OH271824   6.581   1.040  16.347  0.0762  0.4604 -0.0162
16778TIP3    H171825   6.574   0.958  16.396 -1.6706  1.3007  1.2868
16778TIP3    H271826   6.593   1.013  16.256 -1.1139 -1.2846  0.2844
16779TIP3   OH271827   5.315   5.912  12.323  0.0341 -0.1152 -0.8621
16779TIP3    H171828   5.392   5.854  12.329 -1.0385 -1.6704 -1.5254
16779TIP3    H271829   5.309   5.934  12.230 -0.3858 -0.0674 -0.8225
16780TIP3   OH271830   1.730   4.918   3.144  0.4651  0.3902 -0.3694
16780TIP3    H171831   1.768   4.880   3.064  1.7509 -0.1624  0.4642
16780TIP3    H271832   1.692   4.843   3.190  2.2561  0.1810  0.8703
16781TIP3   OH271833   0.948   2.454   2.428  0.4686  0.3084  0.5373
16781TIP3    H171834   0.860   2.433   2.397  0.6150 -0.1926  0.4570
16781TIP3    H271835   0.962   2.544   2.398 -0.2798  0.6370  1.1465
16782TIP3   OH271836   0.320   2.943   4.657 -0.6756 -0.9299 -0.0660
16782TIP3    H171837   0.322   3.014   4.592 -2.5561 -1.6095 -0.9661
16782TIP3    H271838   0.368   2.871   4.616  0.3401 -0.5434  0.4111
16783TIP3   OH271839   4.460   6.796  11.477  0.4777  0.1445  0.6638
16783TIP3    H171840   4.412   6.874  11.507  0.3627  0.2323  0.2543
16783TIP3    H271841   4.550   6.825  11.467  0.3455  0.3519  0.0473
16784TIP3   OH271842   5.729   6.091   5.931  0.5088  0.4289  0.9627
16784TIP3    H171843   5.664   6.154   5.964  0.8099  1.3227 -0.0970
16784TIP3    H271844   5.808   6.109   5.983 -0.6331 -2.2066  3.8907
16785TIP3   OH271845   2.865   2.112  10.657  0.4259 -0.2818  0.3071
16785TIP3    H171846   2.770   2.125  10.657  0.4961  0.3772 -1.0478
16785TIP3    H271847   2.891   2.131  10.747 -0.3109  2.9598 -0.0153
16786TIP3   OH271848   4.637   5.293   3.547  0.1852 -0.1472 -0.0389
16786TIP3    H171849   4.651   5.202   3.575 -0.0316  0.0880  0.8841
16786TIP3    H271850   4.616   5.339   3.628 -1.1051  0.4511 -0.6821
16787TIP3   OH271851   3.812   1.365  13.777  0.0360 -0.1678  0.0649
16787TIP3    H171852   3.802   1.414  13.695  1.1242 -1.0842 -0.6422
16787TIP3    H271853   3.805   1.273  13.752  0.2179 -0.4611  1.0348
16788TIP3   OH271854   4.838   3.722  13.653  0.1973  0.0933 -0.1593
16788TIP3    H171855   4.775   3.667  13.607  0.8994  0.3992 -1.5366
16788TIP3    H271856   4.791   3.804  13.671  0.2419  0.4006 -1.3716
16789TIP3   OH271857   0.328   6.382   5.060  0.7279  0.0486  0.0743
16789TIP3    H171858   0.310   6.307   5.117  0.4032 -0.4184 -0.6307
16789TIP3    H271859   0.286   6.456   5.104  0.0880 -0.3884  0.2103
16790TIP3   OH271860   2.714   1.251   0.901 -0.1968  0.2398  0.1835
16790TIP3    H171861   2.642   1.188   0.903  0.0158 -0.0084  1.5695
16790TIP3    H271862   2.697   1.308   0.977  0.6892  0.6106  0.1103
16791TIP3   OH271863   5.720   4.380  17.127  0.5274  0.3062 -0.7527
16791TIP3    H171864   5.769   4.418  17.200  1.7282  2.4683 -2.5771
16791TIP3    H271865   5.707   4.452  17.066  0.7153 -1.6746 -3.3223
16792TIP3   OH271866   0.890   3.809  12.053  0.4294  0.3372  0.0656
16792TIP3    H171867   0.796   3.815  12.071  0.3089  0.8405 -0.6563
16792TIP3    H271868   0.931   3.809  12.139 -0.1190  2.3389  0.3950
16793TIP3   OH271869   4.209   3.673   4.215 -0.3182 -0.2027  0.0385
16793TIP3    H171870   4.192   3.595   4.268 -1.0153 -0.1527 -0.0978
16793TIP3    H271871   4.241   3.640   4.132 -0.3816 -0.3345  0.0669
16794TIP3   OH271872   3.304   3.415  14.793  0.3364 -0.2402  0.4197
16794TIP3    H171873   3.233   3.420  14.729  1.4662 -0.7049 -0.9187
16794TIP3    H271874   3.305   3.324  14.821  0.3504 -0.2177  0.4919
16795TIP3   OH271875   4.485   3.090   4.844  0.0601  0.7613  0.5212
16795TIP3    H171876   4.521   3.008   4.809  0.7095  1.4427 -0.4369
16795TIP3    H271877   4.561   3.143   4.866 -0.2434  2.5443 -2.2730
16796TIP3   OH271878   3.844   6.702   2.939 -0.3706 -0.0500  0.5182
16796TIP3    H171879   3.879   6.662   3.018  3.2389  1.1730 -0.2741
16796TIP3    H271880   3.855   6.796   2.952 -0.1105  0.2053 -1.2199
16797TIP3   OH271881   4.041   3.764   2.196  0.2074 -0.1527  0.0300
16797TIP3    H171882   4.067   3.739   2.107  1.0216 -2.9566  0.9530
16797TIP3    H271883   4.109   3.826   2.224 -0.5799  1.5295 -1.5487
16798TIP3   OH271884   1.752   3.200   1.281  0.7953 -0.1040  0.3932
16798TIP3    H171885   1.723   3.237   1.365  0.5180  1.2147 -0.2502
16798TIP3    H271886   1.833   3.152   1.303  0.0097 -0.9261  1.6219
16799TIP3   OH271887   6.230   4.661  12.050 -0.2007  0.4321  0.1215
16799TIP3    H171888   6.145   4.686  12.014  0.0680 -0.2534 -1.0426
16799TIP3    H271889   6.244   4.572  12.019  0.4837  0.1523  1.1778
16800TIP3   OH271890   3.619   6.103  11.432  0.5709 -0.1060 -0.9128
16800TIP3    H171891   3.615   6.012  11.402  0.3772 -0.1237 -0.8312
16800TIP3    H271892   3.711   6.127  11.422  0.7487 -0.5142 -0.3316
16801TIP3   OH271893   0.536   5.192   2.818  0.0482  0.2773  0.0301
16801TIP3    H171894   0.620   5.191   2.772  0.5627  1.0083  0.9057
16801TIP3    H271895   0.547   5.259   2.885 -1.1581  0.2033  0.3243
16802TIP3   OH271896   4.924   0.762   3.146  0.2005  0.7922 -0.5265
16802TIP3    H171897   4.859   0.696   3.169  1.1286 -0.3648 -1.0782
16802TIP3    H271898   4.910   0.833   3.209 -1.2064  0.3344 -0.2898
16803TIP3   OH271899   3.583   4.827  13.211  0.1151 -0.2688 -0.2189
16803TIP3    H171900   3.638   4.796  13.283  0.9013  0.0333 -0.6867
16803TIP3    H271901   3.557   4.915  13.236 -2.4029 -1.3131  1.2765
16804TIP3   OH271902   0.238   1.380  12.953  0.0741 -0.3948 -0.8189
16804TIP3    H171903   0.170   1.400  12.888 -2.0234 -0.8491  1.0785
16804TIP3    H271904   0.259   1.288  12.939 -0.1412 -0.4096 -1.0482
16805TIP3   OH271905   1.442   0.149  11.179 -0.1937  0.5990 -0.0104
16805TIP3    H171906   1.482   0.236  11.179  2.2406 -0.4489  0.4818
16805TIP3    H271907   1.484   0.103  11.251 -3.1708 -0.3035  1.3209
16806TIP3   OH271908   2.548   3.731  15.420 -0.4595 -0.1497 -0.4738
16806TIP3    H171909   2.628   3.781  15.407 -0.2381  0.3109  2.1327
16806TIP3    H271910   2.483   3.796  15.446 -1.2141 -0.7380 -0.8393
16807TIP3   OH271911   1.703   4.290  12.598 -0.3263 -0.0834  0.0137
16807TIP3    H171912   1.656   4.286  12.682  1.2405  1.9150  1.0847
16807TIP3    H271913   1.709   4.383  12.578  1.1828 -0.4047 -1.2358
16808TIP3   OH271914   5.773   1.925   1.065 -0.8664 -0.2330  0.6669
16808TIP3    H171915   5.804   1.976   1.140 -0.7988 -0.8758  1.0827
16808TIP3    H271916   5.772   1.834   1.097 -1.7657 -0.3939  0.2005
16809TIP3   OH271917   3.983   1.002  10.552  0.5321  0.2108 -0.3902
16809TIP3    H171918   3.920   1.042  10.493 -0.2201 -1.1766 -0.5950
16809TIP3    H271919   4.068   1.035  10.524 -0.0619  1.8754 -0.3144
16810TIP3   OH271920   5.486   1.681  17.042  0.0269 -0.0459  0.2200
16810TIP3    H171921   5.521   1.599  17.008 -0.5782 -0.1701 -0.1210
16810TIP3    H271922   5.480   1.667  17.137 -1.0265 -0.7869  0.0644
16811TIP3   OH271923   2.621   0.107   1.629  0.1947 -0.0792 -0.6128
16811TIP3    H171924   2.697   0.148   1.670  0.0164 -1.1549  0.8711
16811TIP3    H271925   2.550   0.121   1.691 -0.8281  0.8137 -1.9291
16812TIP3   OH271926   1.881   3.946  13.512  0.0918  0.1160 -0.1967
16812TIP3    H171927   1.810   4.002  13.480 -0.4224 -0.6377 -0.4040
16812TIP3    H271928   1.930   3.923  13.433  1.5282  1.8799  0.1096
16813TIP3   OH271929   0.158   3.116  10.712 -0.0624  0.0151  0.0063
16813TIP3    H171930   0.121   3.130  10.625 -1.6196  1.6331  0.8538
16813TIP3    H271931   0.112   3.040  10.746  1.1782 -1.1756 -0.8552
16814TIP3   OH271932   0.993   6.053   2.221 -0.5949  0.2086 -0.0303
16814TIP3    H171933   1.024   6.042   2.311  1.2434  0.2128 -0.6052
16814TIP3    H271934   0.952   5.969   2.199  3.0477 -1.6230 -0.6148
16815TIP3   OH271935   6.770   3.624   2.674 -0.1516 -0.3732 -0.1642
16815TIP3    H171936   6.859   3.630   2.708 -0.5825  0.1335  0.9008
16815TIP3    H271937   6.747   3.714   2.651 -0.7816 -0.3208  0.6229
16816TIP3   OH271938   5.491   6.139  15.108  0.4959  0.0017 -0.2908
16816TIP3    H171939   5.438   6.114  15.032 -0.9556 -0.0301  0.6814
16816TIP3    H271940   5.539   6.216  15.079 -1.1946  0.9214 -0.8234
16817TIP3   OH271941   5.756   4.398   5.462 -0.0285 -0.2810 -0.3529
16817TIP3    H171942   5.833   4.454   5.454  0.1325 -0.2172  1.4083
16817TIP3    H271943   5.698   4.427   5.391  0.9658  0.5966 -0.8425
16818TIP3   OH271944   6.682   2.364   2.035  0.1397  0.2408 -0.7995
16818TIP3    H171945   6.770   2.386   2.064  0.3468  1.7713 -2.4242
16818TIP3    H271946   6.624   2.414   2.092  0.3590  0.0557 -0.4134
16819TIP3   OH271947   6.033   5.722   1.932 -0.1497 -0.7363 -0.3709
16819TIP3    H171948   6.028   5.813   1.902 -2.0418 -1.4158 -2.3699
16819TIP3    H271949   6.000   5.670   1.858  0.3088 -3.0095  0.9268
16820TIP3   OH271950   3.800   4.907  15.398  0.0333 -0.9492  0.5457
16820TIP3    H171951   3.812   4.843  15.327  0.9843 -1.2106  0.9262
16820TIP3    H271952   3.721   4.877  15.443 -0.7756 -0.5861 -0.5922
16821TIP3   OH271953   0.170   1.619  13.492  0.2432  0.3423 -0.2602
16821TIP3    H171954   0.242   1.647  13.549 -0.1698 -1.0459  1.0498
16821TIP3    H271955   0.107   1.690  13.497 -0.0444  0.0272  1.5781
16822TIP3   OH271956   3.930   0.983   0.970  0.5652  0.0217 -0.6539
16822TIP3    H171957   3.880   0.962   0.891 -1.9815 -0.8913  1.0603
16822TIP3    H271958   3.903   1.071   0.993 -0.5585 -0.5728  0.4309
16823TIP3   OH271959   0.184   0.351  12.069 -0.2391 -0.0070 -0.0625
16823TIP3    H171960   0.170   0.278  12.009 -0.7458  0.1158 -0.0957
16823TIP3    H271961   0.258   0.400  12.031 -0.2463 -0.2006 -0.3247
16824TIP3   OH271962   6.137   5.849  13.719 -0.6162 -0.0460  0.2288
16824TIP3    H171963   6.182   5.904  13.783  0.5182  0.6671 -1.1092
16824TIP3    H271964   6.045   5.874  13.725 -0.5502 -0.0805  1.6338
16825TIP3   OH271965   1.565   1.579  12.937 -0.2608  0.2019  0.5053
16825TIP3    H171966   1.521   1.585  13.022 -1.5830  0.8425 -0.1820
16825TIP3    H271967   1.563   1.668  12.903  1.4863  0.2192  0.3692
16826TIP3   OH271968   0.219   3.620   6.329  0.0294 -0.3095 -0.1942
16826TIP3    H171969   0.292   3.682   6.329  0.9170 -1.1898 -3.0008
16826TIP3    H271970   0.258   3.538   6.360  0.0644 -0.6123 -1.0335
16827TIP3   OH271971   5.030   1.977  15.963 -0.4267  0.3509  0.6568
16827TIP3    H171972   5.002   1.890  15.935 -0.5726  0.3819  0.7034
16827TIP3    H271973   4.973   1.997  16.038  1.8326 -0.9283  2.8605
16828TIP3   OH271974   5.127   5.083  14.909 -0.3654  0.1973  0.9700
16828TIP3    H171975   5.107   5.061  15.000  2.2935 -0.5189  1.4468
16828TIP3    H271976   5.192   5.152  14.914  2.9822 -2.6076 -0.1726
16829TIP3   OH271977   4.732   0.979  13.625 -0.6276 -0.3583 -0.0831
16829TIP3    H171978   4.724   0.890  13.658 -1.5214  0.4838  2.1989
16829TIP3    H271979   4.695   0.976  13.537 -0.5745 -2.2330 -0.0837
16830TIP3   OH271980   5.360   1.900   1.800 -0.3847 -0.1956 -0.8881
16830TIP3    H171981   5.340   1.807   1.808 -0.6583  0.0187  1.8341
16830TIP3    H271982   5.452   1.907   1.828 -1.2808  0.6411  2.2154
16831TIP3   OH271983   4.604   6.210   2.681 -0.0212 -0.1438 -0.5082
16831TIP3    H171984   4.644   6.297   2.688 -0.4429 -0.0500  1.6895
16831TIP3    H271985   4.677   6.151   2.664  0.5393  0.4405 -0.1793
16832TIP3   OH271986   4.167   6.297   3.798 -0.1502  0.7582 -0.0829
16832TIP3    H171987   4.169   6.239   3.874 -1.4930  0.8478  0.0515
16832TIP3    H271988   4.259   6.318   3.781  0.1421  1.4919  2.0984
16833TIP3   OH271989   6.709   1.462   1.076 -0.0453 -0.7681 -0.3453
16833TIP3    H171990   6.666   1.534   1.123  0.8330 -0.8261  0.5769
16833TIP3    H271991   6.637   1.414   1.035 -0.6612  0.5006 -0.8065
16834TIP3   OH271992   4.263   0.975   0.147  0.3936  0.1530  0.1551
16834TIP3    H171993   4.334   1.038   0.137 -1.2844  1.9194 -1.3964
16834TIP3    H271994   4.273   0.916   0.073  0.6765 -0.0819  0.3766
16835TIP3   OH271995   5.749   3.645  15.148  0.6655 -0.1946 -0.5682
16835TIP3    H171996   5.793   3.727  15.169 -1.3300 -0.0154  4.0575
16835TIP3    H271997   5.660   3.672  15.122 -0.4934 -0.6838  2.4248
16836TIP3   OH271998   4.351   4.283   3.662  0.6523  0.2650 -0.4650
16836TIP3    H171999   4.434   4.326   3.679  0.7892  0.2333 -1.0390
16836TIP3    H272000   4.355   4.201   3.711  0.7033  0.5485  0.0069
16837TIP3   OH272001   0.920   5.696  10.817 -0.7779  0.2254 -0.2698
16837TIP3    H172002   0.970   5.744  10.882  0.0767  0.6164 -1.1940
16837TIP3    H272003   0.904   5.611  10.857 -1.7354  1.0181  1.1160
16838TIP3   OH272004   5.724   5.595   1.153  0.5535 -0.2718  0.1832
16838TIP3    H172005   5.734   5.542   1.074 -0.2647  0.0592 -0.1536
16838TIP3    H272006   5.752   5.538   1.224  0.4689 -0.8698 -0.2597
16839TIP3   OH272007   1.318   4.093  15.354 -0.4368 -0.4751 -0.8137
16839TIP3    H172008   1.367   4.015  15.326 -0.7353 -0.6912 -0.7311
16839TIP3    H272009   1.235   4.059  15.387 -1.3095 -0.0092 -2.4217
16840TIP3   OH272010   0.178   1.773  13.792  0.0250  0.2762 -0.0196
16840TIP3    H172011   0.151   1.862  13.813  0.4484  0.3642  0.1507
16840TIP3    H272012   0.102   1.735  13.748 -0.5682  0.3637  0.9010
16841TIP3   OH272013   6.157   5.876  11.003 -0.3624 -0.1913  0.0478
16841TIP3    H172014   6.141   5.810  10.936  1.6714 -1.9989  1.2210
16841TIP3    H272015   6.202   5.947  10.956  0.2187 -1.0246 -0.7010
16842TIP3   OH272016   0.927   2.562   6.322  0.1812 -0.7121  0.3276
16842TIP3    H172017   0.849   2.608   6.290  1.2044  0.5698 -0.4308
16842TIP3    H272018   0.917   2.472   6.290  0.1351  0.0061 -1.8779
16843TIP3   OH272019   3.958   0.033   3.438 -0.4964 -0.4053 -0.0856
16843TIP3    H172020   3.978   0.080   3.519 -0.3025 -0.0018 -0.3673
16843TIP3    H272021   4.000   0.084   3.369  0.5555 -1.5103 -0.3079
16844TIP3   OH272022   2.432   5.162  11.648  0.0747  0.4346  0.1568
16844TIP3    H172023   2.520   5.175  11.682  1.2482 -0.1543 -2.4170
16844TIP3    H272024   2.395   5.250  11.641  0.6626  0.7348  0.7548
16845TIP3   OH272025   5.037   0.564  16.067  0.2140  0.1934 -0.1977
16845TIP3    H172026   5.090   0.484  16.061 -0.7829 -0.5833  0.8945
16845TIP3    H272027   4.956   0.542  16.020  0.9210  1.4570 -2.0856
16846TIP3   OH272028   0.663   6.124   3.057  0.6079 -0.0658  0.3893
16846TIP3    H172029   0.731   6.191   3.058 -1.1682  1.8144  1.6220
16846TIP3    H272030   0.584   6.168   3.027 -0.2244 -2.0970 -0.6364
16847TIP3   OH272031   6.208   4.259   1.107 -0.0064  0.4806 -0.1872
16847TIP3    H172032   6.145   4.227   1.043  0.2377  0.4878 -0.4331
16847TIP3    H272033   6.282   4.199   1.101 -1.5022 -1.9716  2.8596
16848TIP3   OH272034   5.151   0.125   4.053  0.8946  0.1016 -0.4460
16848TIP3    H172035   5.113   0.169   4.129  0.3545 -0.8620 -0.1386
16848TIP3    H272036   5.139   0.186   3.981 -1.7953 -0.3381 -0.4887
16849TIP3   OH272037   3.157   2.153  11.037 -0.0749  0.1788  0.4822
16849TIP3    H172038   3.226   2.100  10.996 -0.6498  0.3843 -0.8165
16849TIP3    H272039   3.190   2.242  11.032 -0.0766  0.1857  0.6079
16850TIP3   OH272040   2.868   2.072  11.330 -0.1690 -0.5784 -0.3980
16850TIP3    H172041   2.863   1.981  11.359 -0.0277 -0.8956 -1.3475
16850TIP3    H272042   2.958   2.098  11.348 -0.6565 -0.0374  1.5275
16851TIP3   OH272043   3.102   3.544  16.170 -0.1331 -0.2939 -0.2945
16851TIP3    H172044   3.147   3.469  16.131 -0.4721 -0.1927 -0.9020
16851TIP3    H272045   3.128   3.543  16.262  1.0552 -0.2803 -0.6063
16852TIP3   OH272046   4.961   2.231   5.566  0.1268 -0.0288  0.4734
16852TIP3    H172047   5.019   2.154   5.573 -0.2655 -0.3990 -0.2256
16852TIP3    H272048   5.020   2.306   5.575  0.7955 -0.3940 -0.6004
16853TIP3   OH272049   1.317   1.302  11.276 -0.1823  0.2375  0.5252
16853TIP3    H172050   1.245   1.361  11.255 -0.7024 -0.6629 -0.2566
16853TIP3    H272051   1.395   1.347  11.242 -0.6376  0.2226 -0.5721
16854TIP3   OH272052   1.359   5.473  15.535 -0.3270 -0.5157  0.5120
16854TIP3    H172053   1.358   5.471  15.439  0.9152  1.8945  0.3719
16854TIP3    H272054   1.267   5.476  15.560 -0.6640 -1.0703 -0.5925
16855TIP3   OH272055   4.450   6.606   2.680  0.9631 -0.4125 -0.0015
16855TIP3    H172056   4.504   6.683   2.658  2.1806 -0.7918  1.4585
16855TIP3    H272057   4.481   6.580   2.767  0.4329 -2.4328 -0.3697
16856TIP3   OH272058   3.358   6.186  17.115  0.0169  0.2918  0.0020
16856TIP3    H172059   3.270   6.166  17.085  0.2481 -0.0056 -0.4958
16856TIP3    H272060   3.382   6.112  17.171 -0.2668  0.6578  0.6197
16857TIP3   OH272061   6.424   3.524  15.259 -0.2522 -0.0966  0.2531
16857TIP3    H172062   6.334   3.542  15.232 -0.2058 -1.0092 -0.5786
16857TIP3    H272063   6.478   3.566  15.192 -0.0413  0.6267  0.8624
16858TIP3   OH272064   0.312   6.727   4.504 -0.5091 -0.3415 -0.1439
16858TIP3    H172065   0.343   6.775   4.581 -2.0193  0.0809  0.2418
16858TIP3    H272066   0.224   6.760   4.490 -0.1819 -0.2462 -2.2164
16859TIP3   OH272067   2.221   0.100  13.640  0.6791  0.4202 -0.6358
16859TIP3    H172068   2.168   0.173  13.673  1.3542  1.3658 -1.5482
16859TIP3    H272069   2.198   0.095  13.547 -0.4723 -1.5448 -0.3117
16860TIP3   OH272070   2.862   5.115  15.877  0.0825  0.5506 -0.1584
16860TIP3    H172071   2.899   5.047  15.934  2.1208  0.9918 -0.8613
16860TIP3    H272072   2.773   5.127  15.908  0.3458 -0.9921  1.3109
16861TIP3   OH272073   2.238   0.028  14.956 -0.3395  0.4915 -0.1324
16861TIP3    H172074   2.211   0.066  14.873 -0.2652 -1.5752 -1.1686
16861TIP3    H272075   2.211   0.092  15.022  1.3357  3.1385 -1.8168
16862TIP3   OH272076   2.573   2.034   2.132  0.1134  0.5042 -0.1523
16862TIP3    H172077   2.480   2.051   2.148  0.0108 -0.1705  0.0316
16862TIP3    H272078   2.593   1.958   2.187  0.9125  0.9740  0.2198
16863TIP3   OH272079   4.003   3.772   1.092  0.2312 -0.0251  0.2092
16863TIP3    H172080   4.044   3.686   1.086 -0.4504 -0.3603  0.2832
16863TIP3    H272081   4.064   3.824   1.144  1.0236 -0.2265 -0.4976
16864TIP3   OH272082   4.621   1.878   1.225  0.4391 -0.2717  0.6150
16864TIP3    H172083   4.624   1.850   1.316 -2.3507 -1.7524  0.3341
16864TIP3    H272084   4.657   1.805   1.176 -1.2071 -0.9310  0.3307
16865TIP3   OH272085   3.747   0.828   0.383  0.4310 -0.5601  0.3030
16865TIP3    H172086   3.652   0.827   0.390  0.4773 -0.6803  1.0032
16865TIP3    H272087   3.768   0.914   0.347  0.0093 -0.8718 -0.6943
16866TIP3   OH272088   0.377   1.453   3.036  0.0476  0.7872 -0.2404
16866TIP3    H172089   0.456   1.455   3.091  0.0022 -0.2870 -0.1111
16866TIP3    H272090   0.326   1.528   3.065  1.3554  1.9575 -0.8420
16867TIP3   OH272091   5.247   2.398  11.054  0.2080 -0.4642 -0.5382
16867TIP3    H172092   5.182   2.443  11.001 -0.4079  1.0555  1.3966
16867TIP3    H272093   5.222   2.305  11.048 -2.0197  0.0417 -0.0591
16868TIP3   OH272094   5.740   0.450   5.481 -0.9320 -0.8353 -0.1219
16868TIP3    H172095   5.829   0.418   5.471  0.8466  2.7025  2.3087
16868TIP3    H272096   5.730   0.516   5.412 -0.2151  1.2627  1.6510
16869TIP3   OH272097   2.869   4.161   6.659  0.2194 -0.1469  0.0940
16869TIP3    H172098   2.962   4.182   6.659  0.4183 -0.8599  1.7108
16869TIP3    H272099   2.825   4.246   6.654  0.9380  0.1938 -0.6388
16870TIP3   OH272100   5.458   0.503   5.777  0.3362  0.3669  0.7019
16870TIP3    H172101   5.549   0.480   5.795  0.3433  0.3289  0.6189
16870TIP3    H272102   5.462   0.578   5.719  0.3313 -0.4545 -0.3870
16871TIP3   OH272103   6.506   3.421  16.238 -0.2101 -0.4322 -0.6401
16871TIP3    H172104   6.489   3.453  16.150 -0.6761  2.4990  0.4252
16871TIP3    H272105   6.425   3.437  16.286  1.2010  1.6292  1.2355
16872TIP3   OH272106   3.956   3.181  17.084 -1.2398 -0.8624  0.3310
16872TIP3    H172107   3.899   3.220  17.150  0.6150  2.1777  0.3600
16872TIP3    H272108   3.971   3.252  17.021  2.8114 -1.1806  0.6311
16873TIP3   OH272109   0.094   1.407   4.955 -0.3907  0.0354 -0.6174
16873TIP3    H172110   0.109   1.355   4.877 -2.2480 -2.4837  0.5626
16873TIP3    H272111   0.077   1.496   4.923 -0.1100 -0.7092 -2.9544
16874TIP3   OH272112   2.046   0.153  16.523 -0.0604 -0.0305  0.2097
16874TIP3    H172113   2.046   0.210  16.600  0.2083  1.0089 -0.5373
16874TIP3    H272114   1.955   0.124  16.515 -0.1489  0.0689  0.7523
16875TIP3   OH272115   0.177   4.676   2.667  0.0555  0.2249  0.3578
16875TIP3    H172116   0.083   4.684   2.681 -0.0604 -0.1099 -0.1655
16875TIP3    H272117   0.185   4.625   2.586  0.6902 -0.5430  0.8850
16876TIP3   OH272118   4.749   2.617  10.923  0.2426  0.2537 -0.2217
16876TIP3    H172119   4.802   2.683  10.877 -0.1662  1.2299  0.6628
16876TIP3    H272120   4.679   2.595  10.862  0.2602  0.8017 -0.4447
16877TIP3   OH272121   1.578   4.314   2.450  0.1062  0.7492  0.0530
16877TIP3    H172122   1.649   4.374   2.429  1.9864 -1.2939  0.1770
16877TIP3    H272123   1.549   4.279   2.366  0.5035  0.2632  0.1114
16878TIP3   OH272124   2.188   6.620   4.998  0.3249  0.4933 -0.4286
16878TIP3    H172125   2.159   6.593   5.085  2.4390  3.7453  1.4898
16878TIP3    H272126   2.129   6.691   4.974  0.1208  0.0044 -1.4828
16879TIP3   OH272127   5.610   4.053   5.167 -0.5970  0.2282  0.1422
16879TIP3    H172128   5.605   3.966   5.128  0.8897 -0.2317  0.9354
16879TIP3    H272129   5.646   4.109   5.097 -1.9850  0.3504 -0.5231
16880TIP3   OH272130   2.499   4.962  10.713 -0.0897 -0.2052 -0.0624
16880TIP3    H172131   2.427   4.969  10.651 -0.9321 -1.1680  0.7581
16880TIP3    H272132   2.559   4.898  10.674 -0.1178 -0.0556 -0.3471
16881TIP3   OH272133   1.231   4.448   6.579 -0.2639  0.4988  0.2900
16881TIP3    H172134   1.205   4.529   6.623 -0.6468  0.3957  0.2633
16881TIP3    H272135   1.300   4.475   6.518 -1.4636  1.0974 -0.8623
16882TIP3   OH272136   1.046   6.708   6.236 -0.9747 -0.1803 -0.0054
16882TIP3    H172137   1.113   6.736   6.299 -1.0246 -0.9457  0.3924
16882TIP3    H272138   1.040   6.781   6.174  0.8880 -0.4741 -0.5927
16883TIP3   OH272139   1.755   2.698   5.322 -0.0730  0.1526 -0.1091
16883TIP3    H172140   1.721   2.761   5.386  0.0007  0.0759  0.0044
16883TIP3    H272141   1.679   2.644   5.300 -0.3500  0.8314 -0.8584
16884TIP3   OH272142   2.549   1.406  13.216 -0.2106  0.6862  0.8950
16884TIP3    H172143   2.479   1.450  13.167 -0.1340  2.3639  2.1924
16884TIP3    H272144   2.602   1.364  13.149 -1.1481  1.3584 -0.3100
16885TIP3   OH272145   3.994   2.881   5.518 -0.2637 -0.0978  0.4542
16885TIP3    H172146   3.904   2.913   5.523 -0.2791 -0.0543 -0.0476
16885TIP3    H272147   4.002   2.819   5.590 -1.6150 -2.3824 -1.2604
16886TIP3   OH272148   1.083   6.312  13.680  0.0777 -0.0192  0.6135
16886TIP3    H172149   1.062   6.285  13.591  1.7845  0.3753  0.0515
16886TIP3    H272150   1.126   6.235  13.719  0.0068  0.0544  0.8403
16887TIP3   OH272151   2.098   4.035  13.265  0.4045  0.2043 -0.1261
16887TIP3    H172152   2.123   4.111  13.213  2.6142 -0.1576  0.3190
16887TIP3    H272153   2.064   3.972  13.202  1.7189  0.3084 -0.9844
16888TIP3   OH272154   0.970   5.947  13.987 -0.1151  0.2605  0.0413
16888TIP3    H172155   0.938   6.022  13.937 -0.1835  0.6014  0.5831
16888TIP3    H272156   0.992   5.984  14.073 -2.6361 -0.7942  1.2091
16889TIP3   OH272157   5.264   5.299   1.984 -0.2214 -0.1510  0.2041
16889TIP3    H172158   5.341   5.277   2.036  0.1716 -0.3780 -0.4561
16889TIP3    H272159   5.193   5.305   2.047  0.5244  1.0825  0.9734
16890TIP3   OH272160   3.378   5.148  14.735 -0.3078 -0.1236 -0.5095
16890TIP3    H172161   3.390   5.242  14.743  1.1166 -0.2731 -0.6331
16890TIP3    H272162   3.467   5.112  14.735 -0.8379 -1.6037  1.1562
16891TIP3   OH272163   3.831   6.378   4.694 -0.6304 -0.0620 -0.4153
16891TIP3    H172164   3.878   6.349   4.616  1.3299  1.0983  0.2754
16891TIP3    H272165   3.856   6.315   4.762  1.3863  1.4601  0.3710
16892TIP3   OH272166   0.874   5.399   2.423 -0.5056 -0.4265 -0.1530
16892TIP3    H172167   0.940   5.433   2.362 -0.6443 -0.2767 -0.2202
16892TIP3    H272168   0.797   5.452   2.406 -0.9577 -1.2629 -0.7906
16893TIP3   OH272169   4.720   4.112  15.051  0.3298 -0.2565  0.3488
16893TIP3    H172170   4.676   4.145  15.129 -1.2248  2.2780 -1.4614
16893TIP3    H272171   4.772   4.038  15.082 -1.4771 -0.3680  3.4588
16894TIP3   OH272172   6.704   1.972   3.645  0.1707 -0.0887 -0.3707
16894TIP3    H172173   6.653   1.935   3.717 -1.6954  0.5016 -1.3088
16894TIP3    H272174   6.665   2.058   3.630  2.3772  0.9986 -0.2728
16895TIP3   OH272175   3.255   0.281   0.030 -0.0519  0.1824 -0.0060
16895TIP3    H172176   3.187   0.222   0.062  0.2735 -0.6756 -0.8445
16895TIP3    H272177   3.268   0.344   0.101  1.5929 -2.4096  2.1797
16896TIP3   OH272178   4.808   3.116  16.713  0.2231 -0.9433 -0.4294
16896TIP3    H172179   4.838   3.188  16.657  1.0132 -1.6450 -0.9361
16896TIP3    H272180   4.868   3.118  16.788 -0.5242 -0.3159  0.1680
16897TIP3   OH272181   4.839   1.031   2.657  0.2486 -0.1826 -0.2371
16897TIP3    H172182   4.800   1.096   2.598  2.1050  0.7705 -0.4882
16897TIP3    H272183   4.917   1.074   2.693 -0.1707 -1.1698  2.0390
16898TIP3   OH272184   6.575   4.941  11.587  1.0598 -0.1016  0.0232
16898TIP3    H172185   6.538   5.030  11.582  0.6755 -0.2962 -0.6942
16898TIP3    H272186   6.519   4.897  11.652 -0.4950 -0.6131 -1.5785
16899TIP3   OH272187   6.361   1.723  12.497  1.3156  0.2067 -0.3627
16899TIP3    H172188   6.326   1.639  12.528  0.5817  0.7686  0.3717
16899TIP3    H272189   6.287   1.764  12.451  2.0631 -0.1207 -1.9347
16900TIP3   OH272190   1.119   1.464   3.385 -0.1594  0.1470  0.3806
16900TIP3    H172191   1.148   1.464   3.476 -2.0336  0.7907  1.0407
16900TIP3    H272192   1.061   1.540   3.379 -0.8344 -0.4482 -1.0768
16901TIP3   OH272193   0.072   1.517   1.469 -0.2502  0.3412 -0.3611
16901TIP3    H172194  -0.002   1.575   1.486  1.0622  1.6622  1.0595
16901TIP3    H272195   0.074   1.457   1.544  0.2290  0.4338 -0.2949
16902TIP3   OH272196   2.929   3.824  15.745 -0.2616 -0.1509 -0.1087
16902TIP3    H172197   2.843   3.858  15.719  0.0829  1.1266  0.3768
16902TIP3    H272198   2.992   3.876  15.695  0.2558 -0.8480 -0.2025
16903TIP3   OH272199   0.052   1.601  11.462 -0.3749 -0.4332  0.2507
16903TIP3    H172200   0.008   1.571  11.542  0.3305 -2.3485 -0.0203
16903TIP3    H272201   0.140   1.562  11.467  0.9602  2.3434  0.2261
16904TIP3   OH272202   2.464   6.310   3.958 -0.0333  0.2295  0.3999
16904TIP3    H172203   2.521   6.324   3.882  2.0250 -1.6106  1.5163
16904TIP3    H272204   2.384   6.273   3.920 -0.0706  1.7021 -1.0826
16905TIP3   OH272205   3.911   1.465   1.837  0.5135  0.0549 -0.3759
16905TIP3    H172206   3.887   1.429   1.923 -0.7587 -0.0185 -0.7334
16905TIP3    H272207   3.926   1.387   1.783 -0.5740  0.0460 -0.7015
16906TIP3   OH272208   2.874   2.017   4.293 -0.3122 -0.7907  0.1512
16906TIP3    H172209   2.921   1.955   4.237  0.2223 -0.3278  0.0802
16906TIP3    H272210   2.793   1.972   4.315 -0.3431 -1.1457 -0.6553
16907TIP3   OH272211   0.902   0.205   5.979  0.1700  0.3365  0.1913
16907TIP3    H172212   0.855   0.213   6.062 -0.2952 -3.6169  0.5228
16907TIP3    H272213   0.986   0.167   6.002  1.0044  1.3798 -0.9893
16908TIP3   OH272214   0.819   1.225  16.334  0.5847  0.3719  0.1548
16908TIP3    H172215   0.840   1.317  16.344  1.8544 -0.0878  2.1339
16908TIP3    H272216   0.894   1.188  16.287  0.1515  0.2965 -0.4954
16909TIP3   OH272217   2.635   2.567  14.100 -0.0871  0.4144 -0.0415
16909TIP3    H172218   2.669   2.631  14.163 -0.6910  1.1463 -0.4440
16909TIP3    H272219   2.582   2.508  14.153  0.5659  0.1618  0.3518
16910TIP3   OH272220   5.412   0.186  15.886  0.1078  0.1369  0.8985
16910TIP3    H172221   5.437   0.186  15.979  2.6898 -0.8249  0.2851
16910TIP3    H272222   5.463   0.256  15.847  0.2318 -0.4836 -0.0784
16911TIP3   OH272223   4.960   5.574   0.149  0.2627 -0.0853 -0.4974
16911TIP3    H172224   5.018   5.626   0.205  0.9925 -0.3097 -1.0326
16911TIP3    H272225   4.894   5.636   0.119 -0.2073  0.0219  0.6773
16912TIP3   OH272226   3.282   1.466   1.066  0.3559  0.0331  0.4140
16912TIP3    H172227   3.233   1.540   1.101  1.2414  0.7509  0.1689
16912TIP3    H272228   3.364   1.504   1.034  0.6425 -0.9873 -0.1109
16913TIP3   OH272229   6.231   3.071  12.310  0.4142 -0.4638  0.0727
16913TIP3    H172230   6.217   3.057  12.403 -1.4828 -0.2305 -0.1466
16913TIP3    H272231   6.317   3.033  12.293  0.2886 -1.5693  1.6782
16914TIP3   OH272232   5.103   3.725   1.147  0.0366 -0.5465  0.3369
16914TIP3    H172233   5.119   3.646   1.198  2.3823 -0.8177 -0.6861
16914TIP3    H272234   5.168   3.788   1.178 -0.9807  0.5836  0.2761
16915TIP3   OH272235   5.600   1.325   0.632  0.6817  0.6600  0.0416
16915TIP3    H172236   5.578   1.247   0.580  1.1027 -0.4324  1.4385
16915TIP3    H272237   5.575   1.302   0.721  0.0450  2.4640  0.3744
16916TIP3   OH272238   5.308   2.285  15.699  0.1660 -0.1416  0.3220
16916TIP3    H172239   5.338   2.255  15.613 -1.1255 -2.1126  0.4900
16916TIP3    H272240   5.213   2.294  15.689  0.2931  2.3927  0.7915
16917TIP3   OH272241   6.736   3.976   3.320 -0.4650 -0.2040 -0.0191
16917TIP3    H172242   6.764   4.051   3.268 -0.5143 -0.7877 -0.9098
16917TIP3    H272243   6.750   4.003   3.411  1.2171  0.2051 -0.3703
16918TIP3   OH272244   4.838   6.009   0.167  0.0981  0.0168 -0.0797
16918TIP3    H172245   4.813   6.031   0.257  1.1047  1.9678 -0.2075
16918TIP3    H272246   4.933   6.015   0.167  0.2308 -1.7676 -0.8754
16919TIP3   OH272247   1.260   1.048   3.440 -0.3910 -0.7389  0.4114
16919TIP3    H172248   1.192   0.990   3.406 -1.1979  0.3092  0.1996
16919TIP3    H272249   1.340   0.995   3.437 -0.9181 -1.5102 -0.7253
16920TIP3   OH272250   2.680   3.534   1.763  0.0736 -0.9370  1.0272
16920TIP3    H172251   2.767   3.493   1.767  1.1561  0.7425 -2.1019
16920TIP3    H272252   2.636   3.489   1.690 -1.1518 -0.7981  1.6605
16921TIP3   OH272253   3.002   1.613   2.949  0.1764  0.0102 -0.7948
16921TIP3    H172254   2.948   1.644   2.876  0.4179  0.0175 -0.9693
16921TIP3    H272255   3.090   1.645   2.929  0.7868 -2.1445 -1.8120
16922TIP3   OH272256   0.534   5.098   3.201 -0.1759 -0.2145 -0.8951
16922TIP3    H172257   0.461   5.142   3.158 -0.6510 -1.5154 -1.4815
16922TIP3    H272258   0.545   5.144   3.284 -0.9431  0.6914 -1.2816
16923TIP3   OH272259   0.711   2.402  15.777  0.0097 -0.9306 -0.2643
16923TIP3    H172260   0.750   2.327  15.822  1.0497 -0.9665 -1.1682
16923TIP3    H272261   0.623   2.373  15.753 -1.0294 -0.5003  2.6948
16924TIP3   OH272262   6.367   2.944   4.875 -0.0352 -0.3196  0.2862
16924TIP3    H172263   6.272   2.954   4.876 -0.1270 -1.1130  0.5544
16924TIP3    H272264   6.395   2.987   4.794 -0.7047 -0.7878 -0.2087
16925TIP3   OH272265   5.999   1.062   1.610  0.3882 -0.4646  0.0533
16925TIP3    H172266   6.089   1.092   1.602 -0.0188  1.1989  1.2083
16925TIP3    H272267   6.001   0.994   1.677  0.8800 -0.9803 -0.4756
16926TIP3   OH272268   4.018   6.137   0.206  0.4789  0.2723 -0.3750
16926TIP3    H172269   4.019   6.110   0.114 -0.3600 -0.7994 -0.0950
16926TIP3    H272270   3.968   6.068   0.250  0.0849  1.2449  0.7368
16927TIP3   OH272271   6.710   0.304   4.860 -0.1966 -0.2478  0.3449
16927TIP3    H172272   6.628   0.350   4.843 -0.6164 -0.4909  1.5996
16927TIP3    H272273   6.747   0.288   4.773 -1.0417  0.6358 -0.1977
16928TIP3   OH272274   5.843   1.810  13.658  0.2458 -0.5366  1.4001
16928TIP3    H172275   5.893   1.869  13.714  1.0903  0.3465 -0.1989
16928TIP3    H272276   5.782   1.867  13.611 -0.1060 -1.1719  1.0656
16929TIP3   OH272277   5.996   5.612  15.270  0.4242  0.2330 -0.4935
16929TIP3    H172278   5.927   5.676  15.251 -2.4221 -2.5009 -0.1932
16929TIP3    H272279   6.017   5.625  15.362 -1.3153 -0.2356  0.0066
16930TIP3   OH272280   1.183   4.826  14.306 -0.3101 -0.4730 -0.2258
16930TIP3    H172281   1.227   4.799  14.387  0.0738 -1.2791 -0.6893
16930TIP3    H272282   1.093   4.846  14.333  0.3571  1.4284  0.7771
16931TIP3   OH272283   3.100   2.941   6.014  0.1401 -0.1953 -0.0398
16931TIP3    H172284   3.060   3.025   5.994 -2.4667 -1.2126  0.5690
16931TIP3    H272285   3.043   2.902   6.081  1.9264 -1.9645  0.5596
16932TIP3   OH272286   2.310   6.730   0.549 -0.2705  0.0850 -0.9378
16932TIP3    H172287   2.322   6.819   0.582 -0.6371 -0.3373  0.4221
16932TIP3    H272288   2.339   6.673   0.621 -1.0252 -0.8904 -1.3711
16933TIP3   OH272289   2.203   1.417  14.654 -0.5888  0.2159  0.1026
16933TIP3    H172290   2.111   1.408  14.678 -1.3777  0.5509 -2.4909
16933TIP3    H272291   2.239   1.329  14.662 -1.1015  0.0983  1.2131
16934TIP3   OH272292   5.712   3.209   3.764  0.3065  0.0726  0.2926
16934TIP3    H172293   5.661   3.264   3.823  1.3652 -0.0886  1.4143
16934TIP3    H272294   5.649   3.146   3.728 -0.2405 -0.3127  1.8608
16935TIP3   OH272295   5.753   4.401  15.397 -0.0457 -0.3428 -0.1991
16935TIP3    H172296   5.666   4.393  15.357  0.8402 -0.9653 -2.1353
16935TIP3    H272297   5.801   4.458  15.338  0.6876  0.5359  1.2057
16936TIP3   OH272298   3.415   1.481   6.220  1.1262  0.6113 -0.1481
16936TIP3    H172299   3.342   1.421   6.208  2.0216 -0.2948 -1.3363
16936TIP3    H272300   3.381   1.566   6.195  0.1544  0.4072  0.4357
16937TIP3   OH272301   5.367   1.190   2.538 -0.3871  0.0107  0.5063
16937TIP3    H172302   5.293   1.174   2.479  0.4290 -1.5789 -0.1627
16937TIP3    H272303   5.331   1.243   2.609 -1.8423  0.3841 -0.4689
16938TIP3   OH272304   5.776   1.854  11.603  0.0663  0.3283 -0.1568
16938TIP3    H172305   5.785   1.829  11.695 -0.3648 -1.7577 -0.6343
16938TIP3    H272306   5.810   1.943  11.599 -1.1527  0.9833  2.2618
16939TIP3   OH272307   4.499   3.303  10.738 -0.2976  0.0379  0.1156
16939TIP3    H172308   4.552   3.314  10.659 -0.6886 -0.0893 -0.1691
16939TIP3    H272309   4.558   3.325  10.810 -0.2266  1.1487 -0.2658
16940TIP3   OH272310   5.397   6.624   6.391 -0.1284 -0.2457  0.1029
16940TIP3    H172311   5.459   6.566   6.435  0.4391  0.5465  0.3849
16940TIP3    H272312   5.351   6.568   6.329  1.2417 -0.7624 -0.4861
16941TIP3   OH272313   0.730   3.716  12.509  0.1476 -0.1099  0.6728
16941TIP3    H172314   0.641   3.734  12.537 -0.0900  1.5923 -1.0275
16941TIP3    H272315   0.779   3.704  12.591 -1.6085 -1.1791  1.6328
16942TIP3   OH272316   0.933   5.540  11.980  0.5387 -0.0669  0.1409
16942TIP3    H172317   0.997   5.469  11.970 -1.6657 -2.5318  2.0371
16942TIP3    H272318   0.852   5.502  11.946 -0.8591  1.3166  1.8038
16943TIP3   OH272319   4.570   6.648   1.282 -0.0021 -0.3400 -0.0540
16943TIP3    H172320   4.583   6.706   1.357 -0.4716 -0.3336  0.0224
16943TIP3    H272321   4.654   6.649   1.237 -0.1244  0.7268 -0.2826
16944TIP3   OH272322   1.325   5.243   2.700 -0.6689  0.3240  0.6323
16944TIP3    H172323   1.286   5.235   2.612  0.2871 -1.2230  0.3088
16944TIP3    H272324   1.265   5.195   2.757 -0.0015 -0.8499  0.3724
16945TIP3   OH272325   4.777   0.554   3.773  0.2630 -0.3946 -0.1943
16945TIP3    H172326   4.853   0.597   3.811  0.0890  0.6827 -1.0268
16945TIP3    H272327   4.740   0.618   3.713 -1.0647 -1.0473 -0.1245
16946TIP3   OH272328   3.931   4.062  16.630 -0.1444 -0.3255  0.0066
16946TIP3    H172329   3.936   3.974  16.592  0.5167 -0.7190  0.9564
16946TIP3    H272330   3.958   4.120  16.558 -2.5267 -0.6590 -1.2638
16947TIP3   OH272331   5.039   4.767  11.175  0.0705 -0.2302  0.3637
16947TIP3    H172332   5.083   4.724  11.248  2.0623 -1.0517 -1.2062
16947TIP3    H272333   4.949   4.737  11.180  0.3341 -0.8371  2.0490
16948TIP3   OH272334   4.883   2.548  11.410  0.8712  0.5151  0.3224
16948TIP3    H172335   4.842   2.545  11.496 -1.5008  0.8504 -0.7116
16948TIP3    H272336   4.817   2.586  11.352  1.9852 -0.5997 -1.8527
16949TIP3   OH272337   6.689   5.565  12.393  0.5094 -0.2162 -0.2385
16949TIP3    H172338   6.597   5.587  12.411  0.4212 -0.2135 -0.6799
16949TIP3    H272339   6.739   5.622  12.451  0.2086 -0.9808  0.7963
16950TIP3   OH272340   4.685   4.832  13.590 -0.1928  0.2101  0.3672
16950TIP3    H172341   4.656   4.768  13.656  1.4553 -0.4325  0.5280
16950TIP3    H272342   4.722   4.904  13.642  0.1918  0.1647  0.1578
16951TIP3   OH272343   3.708   2.206  15.515  0.6296  0.2298  0.2253
16951TIP3    H172344   3.658   2.285  15.534 -0.7788 -0.7344  0.7139
16951TIP3    H272345   3.694   2.192  15.421  0.1110  0.0788  0.3180
16952TIP3   OH272346   6.033   1.375  16.238 -0.0733 -0.1955 -0.4036
16952TIP3    H172347   6.120   1.387  16.202  0.0772  0.6662  0.2110
16952TIP3    H272348   5.976   1.367  16.162  0.3048  1.0832 -0.8395
16953TIP3   OH272349   4.528   5.257  12.707 -0.4098 -0.1302 -0.4832
16953TIP3    H172350   4.514   5.242  12.613 -1.1426 -3.3023  0.0058
16953TIP3    H272351   4.623   5.258  12.717 -0.3071 -1.0144 -1.1613
16954TIP3   OH272352   5.941   3.632   3.863  0.1638 -0.1185  0.0296
16954TIP3    H172353   5.877   3.675   3.919  0.1397 -0.9439  0.6690
16954TIP3    H272354   5.889   3.592   3.793 -0.0687 -0.9617  0.6600
16955TIP3   OH272355   0.137   5.442  13.508  0.7231 -0.1899  0.0437
16955TIP3    H172356   0.190   5.383  13.561 -0.6252  0.1892  1.9328
16955TIP3    H272357   0.180   5.527  13.515  1.7182 -0.5528 -1.2770
16956TIP3   OH272358   1.393   6.660   1.532 -0.2736 -0.0831  0.0158
16956TIP3    H172359   1.429   6.617   1.454 -0.2943  1.0242 -0.6244
16956TIP3    H272360   1.423   6.751   1.526 -0.5263  0.0951  1.1498
16957TIP3   OH272361   4.541   1.775   0.331  0.1548 -0.0456 -0.1795
16957TIP3    H172362   4.445   1.774   0.323  0.1112  0.2607  0.2551
16957TIP3    H272363   4.564   1.683   0.346 -0.2694  0.1025  1.6719
16958TIP3   OH272364   0.132   5.473  15.981 -0.4115  0.3156  0.5000
16958TIP3    H172365   0.222   5.443  15.969 -0.3919 -0.2093  1.8386
16958TIP3    H272366   0.136   5.567  15.961 -0.2791 -0.2858 -2.7333
16959TIP3   OH272367   4.529   6.137   3.219 -0.2309 -0.1122 -0.0635
16959TIP3    H172368   4.557   6.210   3.165  0.2930  0.0029  0.3608
16959TIP3    H272369   4.434   6.147   3.225 -0.1784  0.4437 -0.1284
16960TIP3   OH272370   5.035   6.124  12.383  0.8684 -0.4934  0.1450
16960TIP3    H172371   5.097   6.144  12.313  0.3032  0.6987 -0.0301
16960TIP3    H272372   5.090   6.117  12.462  1.3843 -0.8902 -0.2384
16961TIP3   OH272373   3.080   2.625   1.822 -0.0111 -0.2264 -0.4214
16961TIP3    H172374   3.122   2.705   1.791 -1.6495  1.3848  1.2881
16961TIP3    H272375   3.000   2.618   1.771 -0.2027 -0.3994 -0.1003
16962TIP3   OH272376   0.959   0.593  14.495 -0.3933 -0.1438  0.1380
16962TIP3    H172377   0.919   0.578  14.409 -1.0403 -1.5229  0.6450
16962TIP3    H272378   1.047   0.627  14.475 -0.5681 -0.3521 -1.0590
16963TIP3   OH272379   5.829   0.211   1.597 -0.1845 -0.2444  0.2653
16963TIP3    H172380   5.912   0.219   1.549  1.1024 -0.1663  2.3844
16963TIP3    H272381   5.787   0.134   1.560  1.2032 -0.7453 -0.3414
16964TIP3   OH272382   0.758   1.966   0.301  0.1116 -0.5601 -0.1818
16964TIP3    H172383   0.792   2.036   0.358 -0.5422  1.6008 -2.2590
16964TIP3    H272384   0.669   1.950   0.334 -0.2049  0.5598 -0.4307
16965TIP3   OH272385   3.756   1.673   2.038  0.7719 -0.3784  0.3100
16965TIP3    H172386   3.799   1.750   2.076 -1.2685  1.2412 -0.4432
16965TIP3    H272387   3.734   1.700   1.948  0.5725 -2.0965 -0.1866
16966TIP3   OH272388   6.108   6.791   6.019 -0.7767 -0.1788 -0.1704
16966TIP3    H172389   6.100   6.747   6.104  0.3416  0.8467  0.4983
16966TIP3    H272390   6.075   6.879   6.035 -0.6314 -0.0053 -0.8218
16967TIP3   OH272391   4.002   5.254  15.433 -0.0065 -0.1288 -0.4052
16967TIP3    H172392   4.028   5.317  15.501  0.0572 -1.0802  0.4724
16967TIP3    H272393   3.946   5.305  15.374  0.9871  1.0443 -0.3758
16968TIP3   OH272394   2.634   0.521  12.650  0.1945 -0.2857 -0.5964
16968TIP3    H172395   2.730   0.523  12.656  0.2317 -0.0818 -1.2083
16968TIP3    H272396   2.608   0.457  12.717  0.5838  1.4485  1.3158
16969TIP3   OH272397   5.354   3.158  13.380  0.2874 -0.2674 -0.7026
16969TIP3    H172398   5.391   3.163  13.468  0.1245  0.9597 -0.6835
16969TIP3    H272399   5.324   3.068  13.371  0.4880 -0.4547  0.4212
16970TIP3   OH272400   5.031   1.641  17.261 -0.0103  0.1592 -0.4475
16970TIP3    H172401   4.939   1.624  17.281  0.3959 -0.4877  0.9464
16970TIP3    H272402   5.080   1.583  17.319  1.2793 -0.2818 -1.8935
16971TIP3   OH272403   2.474   0.352   2.753  0.7285  0.0534 -0.2777
16971TIP3    H172404   2.416   0.425   2.772  0.1771  0.6295 -3.6373
16971TIP3    H272405   2.471   0.298   2.832  0.1641  2.9428  1.8237
16972TIP3   OH272406   1.890   4.842  14.507  0.4564 -0.5776  0.0148
16972TIP3    H172407   1.811   4.877  14.465  0.6821  0.8093  0.6973
16972TIP3    H272408   1.962   4.889  14.464  0.9541 -2.0702 -0.8335
16973TIP3   OH272409   2.702   3.790   5.435  0.0019 -0.1326 -0.3727
16973TIP3    H172410   2.623   3.843   5.428  0.2495  0.7709  2.4839
16973TIP3    H272411   2.774   3.853   5.442  0.6310 -0.8815  0.1599
16974TIP3   OH272412   2.613   4.859   2.315  0.1025  0.0797  0.1203
16974TIP3    H172413   2.584   4.877   2.226  0.6061 -0.2963 -0.1174
16974TIP3    H272414   2.607   4.764   2.324  2.3244 -0.1377 -0.3048
16975TIP3   OH272415   5.053   1.942  11.407 -0.5955  0.0908  0.0392
16975TIP3    H172416   5.094   2.029  11.402 -0.3316  0.0707  1.4956
16975TIP3    H272417   5.062   1.907  11.319 -2.8741  2.4740 -1.2844
16976TIP3   OH272418   0.608   0.029   3.513 -0.0266 -0.2816  0.3834
16976TIP3    H172419   0.553   0.076   3.575 -0.0391 -1.1418  1.0417
16976TIP3    H272420   0.550   0.010   3.439  0.4193  2.2228 -0.6942
16977TIP3   OH272421   5.099   4.415  15.703 -0.1471  0.2590 -0.3866
16977TIP3    H172422   5.056   4.496  15.676 -2.4226  0.1850  2.4904
16977TIP3    H272423   5.086   4.411  15.798  3.3273 -1.5913  0.1839
16978TIP3   OH272424   4.220   6.301   1.207  0.2992 -0.3899  0.3453
16978TIP3    H172425   4.257   6.356   1.276  1.1344  1.8101 -1.7129
16978TIP3    H272426   4.152   6.251   1.251  1.5149  0.0797  2.9708
16979TIP3   OH272427   4.647   1.285  11.686 -0.0336 -0.0008  0.6193
16979TIP3    H172428   4.663   1.198  11.649 -0.4525  0.2459 -0.1542
16979TIP3    H272429   4.706   1.290  11.762  2.3103  0.2141 -1.1014
16980TIP3   OH272430   3.072   1.767   1.459  0.2739  0.1823 -0.1846
16980TIP3    H172431   3.146   1.799   1.407 -0.9223  3.1092 -0.3055
16980TIP3    H272432   3.083   1.809   1.544 -0.7225 -0.0933  0.0932
16981TIP3   OH272433   5.656   2.664  12.752 -0.1711 -0.2136 -0.0513
16981TIP3    H172434   5.640   2.726  12.824  1.7732  1.8765 -1.2778
16981TIP3    H272435   5.752   2.657  12.747 -0.2661 -0.7289 -2.0652
16982TIP3   OH272436   0.409   3.769  15.927 -0.1548 -0.0275  0.2630
16982TIP3    H172437   0.491   3.815  15.944  0.7036 -1.2774 -0.2795
16982TIP3    H272438   0.380   3.801  15.842 -1.2818  1.8283  1.2954
16983TIP3   OH272439   5.925   3.303  11.981 -0.7458  0.0496  0.4162
16983TIP3    H172440   5.915   3.325  12.074  0.7752  1.2886  0.3179
16983TIP3    H272441   5.950   3.211  11.982  1.4019  0.5787  1.4221
16984TIP3   OH272442   2.345   5.925   4.547  0.2339 -0.4410  0.5810
16984TIP3    H172443   2.418   5.868   4.523 -0.2034 -2.1975  3.0578
16984TIP3    H272444   2.271   5.866   4.558 -0.7208  0.8519  1.3442
16985TIP3   OH272445   3.822   4.931   3.258  0.1149 -0.1377 -0.5504
16985TIP3    H172446   3.831   4.840   3.229  0.6437  0.0911 -1.1201
16985TIP3    H272447   3.771   4.973   3.189  0.7912  0.2505 -0.8183
16986TIP3   OH272448   4.869   5.588   2.103 -0.5336  0.2440  0.0919
16986TIP3    H172449   4.833   5.518   2.157 -0.8105  1.5170  1.6297
16986TIP3    H272450   4.837   5.569   2.015 -0.5212 -1.5954  0.4363
16987TIP3   OH272451   1.361   4.713  12.752  0.4952  0.3460 -0.1639
16987TIP3    H172452   1.376   4.670  12.668  0.5921 -0.0238  0.0401
16987TIP3    H272453   1.439   4.768  12.765  1.1494 -0.6732  0.3419
16988TIP3   OH272454   5.993   2.184   3.444  0.0230  0.2328 -0.5161
16988TIP3    H172455   5.904   2.210   3.467  1.0253  2.1245  1.6312
16988TIP3    H272456   5.989   2.089   3.434 -1.9724  0.1110  0.8471
16989TIP3   OH272457   4.625   3.800  13.023 -0.5644 -0.0990 -0.2388
16989TIP3    H172458   4.570   3.813  12.947 -0.3707  0.9076 -0.2183
16989TIP3    H272459   4.713   3.784  12.987 -0.4368  0.5653 -0.2240
16990TIP3   OH272460   6.704   3.809   5.014 -0.4286  0.3331  0.3279
16990TIP3    H172461   6.662   3.785   5.097 -1.2278  0.3881 -0.0451
16990TIP3    H272462   6.772   3.871   5.038 -2.3310  2.3952  0.7364
16991TIP3   OH272463   5.484   0.888  11.769  0.2437 -0.3208 -0.2908
16991TIP3    H172464   5.443   0.895  11.683  0.0657 -1.3715 -0.3060
16991TIP3    H272465   5.488   0.978  11.802 -0.7600 -0.0477 -0.8946
16992TIP3   OH272466   5.957   6.002   4.034  0.8649  0.3686  0.6681
16992TIP3    H172467   5.900   6.066   4.077  1.6616  0.1745  2.0733
16992TIP3    H272468   5.952   5.925   4.089  1.0475 -0.2974 -0.2250
16993TIP3   OH272469   4.594   6.639  14.039  0.8073  0.6182  0.0757
16993TIP3    H172470   4.665   6.692  14.075  2.6112 -0.0807 -2.1962
16993TIP3    H272471   4.571   6.681  13.957  1.9112 -1.6443 -1.5225
16994TIP3   OH272472   5.603   1.209  15.193 -0.0012  0.7388  0.2485
16994TIP3    H172473   5.606   1.265  15.116 -0.0336  1.3334  0.6739
16994TIP3    H272474   5.578   1.123  15.159  0.2284  0.9370 -0.4321
16995TIP3   OH272475   6.678   5.082  13.528  0.2019 -0.0304  0.5040
16995TIP3    H172476   6.601   5.137  13.546  0.5554  0.5503  0.2789
16995TIP3    H272477   6.726   5.130  13.462 -0.0705 -1.1958 -0.5700
16996TIP3   OH272478   2.879   2.633   5.423 -0.7932  0.1591 -0.6026
16996TIP3    H172479   2.906   2.673   5.340  0.3056 -0.3796 -0.5301
16996TIP3    H272480   2.955   2.644   5.481 -1.8185  1.2279  0.6044
16997TIP3   OH272481   4.659   0.339  11.501 -0.2677 -0.6653 -0.0284
16997TIP3    H172482   4.721   0.329  11.574  1.6000  1.2731 -1.2205
16997TIP3    H272483   4.594   0.270  11.515  1.6424 -2.2327  1.8118
16998TIP3   OH272484   5.941   5.853   2.202  0.0942 -0.5408  0.0006
16998TIP3    H172485   5.975   5.822   2.118 -0.7886 -1.0938 -0.1670
16998TIP3    H272486   5.942   5.948   2.194  0.1868 -0.5833 -0.5615
16999TIP3   OH272487   5.083   2.153  11.669  0.7184  0.2496  0.1596
16999TIP3    H172488   5.078   2.057  11.664  0.1549  0.2525  0.5825
16999TIP3    H272489   5.063   2.183  11.581  3.2663 -0.0914 -0.6088
17000TIP3   OH272490   6.414   3.493  13.820  0.3486  0.0858  0.4358
17000TIP3    H172491   6.480   3.450  13.765 -1.2754 -2.4993  0.3661
17000TIP3    H272492   6.331   3.474  13.777 -0.8053 -0.2851  2.6983
17001TIP3   OH272493   2.061   4.054   4.954 -0.8583  0.3722  0.1586
17001TIP3    H172494   2.101   4.096   4.878 -0.3312 -0.9830 -0.3395
17001TIP3    H272495   1.967   4.061   4.938 -0.8207  2.0002  0.4669
17002TIP3   OH272496   1.531   3.133   3.979 -0.6057  0.5504 -0.3185
17002TIP3    H172497   1.597   3.198   4.003  0.4129 -0.6929  0.3477
17002TIP3    H272498   1.540   3.125   3.884  2.2665 -1.6304 -0.0068
17003TIP3   OH272499   1.503   1.956  16.218 -0.0329 -0.7939 -0.3557
17003TIP3    H172500   1.419   1.973  16.261  0.0885 -0.2862 -0.3068
17003TIP3    H272501   1.567   2.003  16.271 -0.0195  0.8174 -1.7075
17004TIP3   OH272502   3.036   4.494   4.292 -0.3378  0.1544  0.4816
17004TIP3    H172503   3.089   4.414   4.286 -0.3458  0.1726  0.1360
17004TIP3    H272504   3.093   4.558   4.335  0.1774  0.3798 -0.4879
17005TIP3   OH272505   0.787   0.038   1.175 -0.1184 -0.2551 -0.6898
17005TIP3    H172506   0.812  -0.030   1.238  0.7288 -0.4665 -1.2417
17005TIP3    H272507   0.800   0.120   1.222  3.3754 -0.2127 -1.4261
17006TIP3   OH272508   0.645   2.495   2.398  0.1933  0.2637  0.6530
17006TIP3    H172509   0.647   2.533   2.486 -2.4781  0.1930  0.8419
17006TIP3    H272510   0.565   2.442   2.397 -0.9585  1.7871 -2.3905
17007TIP3   OH272511   4.243   6.652   2.500 -0.4433  0.0942  0.3809
17007TIP3    H172512   4.311   6.642   2.567 -0.2753 -0.4410  0.1355
17007TIP3    H272513   4.269   6.591   2.431  0.2026  1.6761 -0.8306
17008TIP3   OH272514   0.976   1.930   1.374  0.3385  0.2942 -0.4010
17008TIP3    H172515   0.932   1.865   1.319 -1.5037  1.9258 -0.9392
17008TIP3    H272516   1.069   1.922   1.351  0.2471 -2.3225 -0.1987
17009TIP3   OH272517   0.620   4.863  13.296  0.1363 -0.4241  0.1580
17009TIP3    H172518   0.542   4.847  13.350 -0.3763  0.8891 -0.1470
17009TIP3    H272519   0.634   4.958  13.302  0.1432 -0.2429 -1.8842
17010TIP3   OH272520   3.382   2.731   4.259  0.3348  0.5062  0.4313
17010TIP3    H172521   3.447   2.776   4.313 -1.4810  1.2045  2.1509
17010TIP3    H272522   3.298   2.766   4.288 -0.8436 -0.3901 -1.6851
17011TIP3   OH272523   2.100   4.048   2.129  0.3816 -0.3654 -0.5426
17011TIP3    H172524   2.077   3.985   2.198  0.3546  1.9305  1.6946
17011TIP3    H272525   2.029   4.040   2.066 -2.8268  1.2585  2.4891
17012TIP3   OH272526   1.767   5.919   1.034  1.0774  0.2060  0.2729
17012TIP3    H172527   1.753   5.964   0.950  0.0708  0.3040  0.4756
17012TIP3    H272528   1.846   5.959   1.070  0.5106  1.4386  0.1898
17013TIP3   OH272529   0.492   3.853  13.352 -0.2318 -0.6452 -0.0223
17013TIP3    H172530   0.512   3.835  13.260  0.7361 -1.8548  0.3855
17013TIP3    H272531   0.528   3.777  13.399 -1.2456 -0.3450  1.2973
17014TIP3   OH272532   3.345   4.367   3.571 -0.0283 -0.2430 -0.1339
17014TIP3    H172533   3.418   4.310   3.547  0.5945  0.4590  0.0522
17014TIP3    H272534   3.348   4.439   3.509  1.4673  1.4755  1.7867
17015TIP3   OH272535   2.451   2.964   4.254  0.3985  0.1377 -0.0914
17015TIP3    H172536   2.363   2.987   4.223 -0.1503  0.0008  1.3083
17015TIP3    H272537   2.445   2.969   4.349  1.8923  0.0198  0.0272
17016TIP3   OH272538   0.539   4.332   2.225 -0.5607  0.1843  0.4450
17016TIP3    H172539   0.631   4.327   2.254 -0.3063 -0.0453 -0.3724
17016TIP3    H272540   0.544   4.344   2.130 -1.3734 -0.8968  0.2367
17017TIP3   OH272541   5.592   1.269  12.767  0.4015  0.6806  0.4479
17017TIP3    H172542   5.622   1.202  12.706 -2.4182 -1.8409  1.6063
17017TIP3    H272543   5.521   1.313  12.722 -1.2909 -0.7917  1.5532
17018TIP3   OH272544   0.532   0.840   5.067 -0.7134 -0.0134  0.1223
17018TIP3    H172545   0.476   0.917   5.068 -0.7816 -0.0593  1.5544
17018TIP3    H272546   0.474   0.767   5.088 -0.3946 -0.2664  0.1397
17019TIP3   OH272547   5.272   1.925   5.343 -0.1283 -0.8096 -0.0132
17019TIP3    H172548   5.328   1.847   5.346 -0.9321 -1.3804  0.4298
17019TIP3    H272549   5.210   1.906   5.272  0.2972 -0.1339 -0.5738
17020TIP3   OH272550   2.865   1.674  15.201 -0.0658 -0.3773  0.1183
17020TIP3    H172551   2.860   1.646  15.110  0.9350 -0.4013  0.0612
17020TIP3    H272552   2.959   1.685  15.218 -0.2136 -0.6989  1.2380
17021TIP3   OH272553   3.251   4.915   4.898 -0.4030  0.3221 -0.3769
17021TIP3    H172554   3.279   4.930   4.988  0.1029  1.1626 -0.6624
17021TIP3    H272555   3.330   4.928   4.845 -0.4070 -1.3840 -0.8542
17022TIP3   OH272556   6.528   4.698   6.198 -0.2250  0.0508  0.7239
17022TIP3    H172557   6.445   4.745   6.204 -0.2859  0.1219 -0.5164
17022TIP3    H272558   6.560   4.716   6.110  0.4480 -1.0805  0.7168
17023TIP3   OH272559   5.263   6.782   3.372 -0.0986 -0.3763 -0.0099
17023TIP3    H172560   5.226   6.794   3.284 -0.6095 -0.6358  0.1644
17023TIP3    H272561   5.187   6.760   3.427  0.2232 -0.2615  0.4878
17024TIP3   OH272562   3.156   0.128  14.307 -0.4701 -0.6646  0.6843
17024TIP3    H172563   3.160   0.078  14.389  0.8401 -0.4755  0.7452
17024TIP3    H272564   3.100   0.203  14.328  1.8346  0.7474  2.1934
17025TIP3   OH272565   0.368   1.284   2.797 -0.3538 -0.1788  0.3774
17025TIP3    H172566   0.463   1.288   2.783 -0.6450  0.2470 -2.1096
17025TIP3    H272567   0.352   1.341   2.872  1.2092  1.2575 -0.3011
17026TIP3   OH272568   3.857   2.181   1.739 -0.2804  0.3125  0.1872
17026TIP3    H172569   3.806   2.262   1.735 -1.1213 -0.2107 -0.0216
17026TIP3    H272570   3.940   2.202   1.697  0.0839  1.4703  1.4139
17027TIP3   OH272571   1.848   1.465  15.832  0.0050 -0.1290  0.0373
17027TIP3    H172572   1.924   1.417  15.868 -0.0442 -1.2544 -1.2749
17027TIP3    H272573   1.774   1.434  15.883  0.3694  0.8429  1.2091
17028TIP3   OH272574   5.631   1.024  17.058 -0.2494  0.4481  0.2472
17028TIP3    H172575   5.714   1.017  17.012  0.7337 -1.0767  2.0896
17028TIP3    H272576   5.567   0.980  17.002  0.0708  1.8842 -1.3165
17029TIP3   OH272577   0.946   4.558   3.899  0.0742  0.0944  0.0893
17029TIP3    H172578   1.016   4.621   3.880 -1.8245  2.2332 -0.1301
17029TIP3    H272579   0.981   4.505   3.971  1.5083  1.7910  0.7098
17030TIP3   OH272580   0.764   5.562  13.522 -0.2940  0.4182 -0.4124
17030TIP3    H172581   0.831   5.517  13.572 -1.3724 -1.3879 -0.4900
17030TIP3    H272582   0.697   5.495  13.506 -1.6096  1.8583 -1.2468
17031TIP3   OH272583   5.780   2.266  15.670 -0.0774 -0.7252 -0.0772
17031TIP3    H172584   5.837   2.341  15.686  1.7585 -2.5971  3.1694
17031TIP3    H272585   5.836   2.202  15.626 -0.5725 -1.4179  0.2800
17032TIP3   OH272586   5.623   3.684  11.904  0.0520 -0.2265  0.2111
17032TIP3    H172587   5.637   3.590  11.913 -0.7171 -0.4031 -0.2877
17032TIP3    H272588   5.586   3.711  11.988 -0.5513 -0.5462  0.0573
17033TIP3   OH272589   4.164   6.449   3.132  0.3691  0.2093  0.1206
17033TIP3    H172590   4.168   6.477   3.041  0.2290  0.6536  0.2510
17033TIP3    H272591   4.238   6.493   3.175  0.0596  0.5090  0.3563
17034TIP3   OH272592   4.070   0.745  14.636 -0.1601  0.7042 -0.3451
17034TIP3    H172593   4.118   0.668  14.667 -0.1337  0.9300  0.1797
17034TIP3    H272594   4.001   0.758  14.701  1.4517  2.7099  1.0389
17035TIP3   OH272595   1.335   3.310  14.653  0.5872  0.0300  0.6163
17035TIP3    H172596   1.335   3.345  14.565  0.2021  0.7017  0.8762
17035TIP3    H272597   1.250   3.267  14.661 -0.2731  1.7727  1.3419
17036TIP3   OH272598   0.192   4.465  11.144 -0.0023  0.2929 -0.2296
17036TIP3    H172599   0.259   4.474  11.076  0.2981  0.2780  0.0650
17036TIP3    H272600   0.160   4.554  11.158  0.8248  0.4840  0.5066
17037TIP3   OH272601   0.797   4.161   1.925  0.4649  0.0716  0.1964
17037TIP3    H172602   0.858   4.128   1.859  0.8570 -0.0853  0.6297
17037TIP3    H272603   0.843   4.235   1.965 -0.2283  0.8878 -0.4648
17038TIP3   OH272604   4.178   1.207  14.302  0.0880 -0.4268  0.4115
17038TIP3    H172605   4.198   1.120  14.269 -0.6507  0.1221 -1.6066
17038TIP3    H272606   4.088   1.223  14.274  0.4968  1.3182 -0.0017
17039TIP3   OH272607   3.570   0.465   6.265  0.0991  0.4092 -0.4191
17039TIP3    H172608   3.639   0.532   6.264 -0.2956  0.8177 -0.7098
17039TIP3    H272609   3.493   0.510   6.232 -0.8888  0.5878  1.9281
17040TIP3   OH272610   6.292   0.186  14.794  0.2618  0.1626  1.1225
17040TIP3    H172611   6.346   0.146  14.862  1.6298  1.1803  0.7042
17040TIP3    H272612   6.347   0.256  14.759 -1.2551  1.0676  0.4545
17041TIP3   OH272613   6.505   3.604   5.194  0.4532  0.0616  0.0915
17041TIP3    H172614   6.523   3.683   5.246 -0.2168  0.7012 -0.6111
17041TIP3    H272615   6.478   3.538   5.258  0.8193  0.4711  0.6698
17042TIP3   OH272616   6.679   0.540   5.807 -0.0505 -0.1967 -0.7627
17042TIP3    H172617   6.712   0.606   5.746  1.7878 -0.4148 -0.0628
17042TIP3    H272618   6.731   0.552   5.886 -2.1740 -0.1051  0.7165
17043TIP3   OH272619   2.735   3.784   4.463  0.2245 -0.1791  0.0460
17043TIP3    H172620   2.662   3.841   4.438 -0.1915 -0.1177  1.3096
17043TIP3    H272621   2.800   3.797   4.394 -1.0230 -0.3876 -1.2150
17044TIP3   OH272622   5.978   0.832   5.615  0.2383  0.6428 -0.0493
17044TIP3    H172623   5.991   0.739   5.633  0.9473  0.9490  1.1070
17044TIP3    H272624   6.027   0.847   5.534 -0.5189 -0.1352 -0.6785
17045TIP3   OH272625   1.027   3.736  15.634 -0.1109  0.2216  0.2119
17045TIP3    H172626   1.075   3.793  15.694 -0.3623  0.2838  0.3565
17045TIP3    H272627   0.936   3.742  15.664 -0.4504  1.2300 -0.9334
17046TIP3   OH272628   0.216   2.185   4.786 -0.1349  0.0779 -0.1646
17046TIP3    H172629   0.297   2.209   4.740 -0.5191 -0.6596 -1.2804
17046TIP3    H272630   0.227   2.091   4.805 -0.2851  0.2181  0.6319
17047TIP3   OH272631   1.897   6.194  14.575 -0.6750 -0.3365  0.2429
17047TIP3    H172632   1.877   6.101  14.584  0.9658 -0.5332  3.1712
17047TIP3    H272633   1.826   6.238  14.623 -1.3925 -0.0386 -1.0496
17048TIP3   OH272634   4.722   3.354   4.330 -0.7454 -0.2356  0.7429
17048TIP3    H172635   4.749   3.411   4.402  2.3724 -2.6881  1.7596
17048TIP3    H272636   4.762   3.394   4.252 -0.9607  0.4091  0.9529
17049TIP3   OH272637   1.495   0.927   5.367  0.0076  0.4265 -0.0732
17049TIP3    H172638   1.456   0.940   5.281  2.6287  0.5562 -1.3547
17049TIP3    H272639   1.517   0.833   5.370  2.6316  0.9299 -0.9030
17050TIP3   OH272640   4.624   2.785  10.519  0.1443 -0.4299 -0.0624
17050TIP3    H172641   4.715   2.809  10.502  0.0943 -0.1380  0.0726
17050TIP3    H272642   4.612   2.702  10.473  0.2481 -0.0653 -0.7519
17051TIP3   OH272643   0.263   3.656  12.499 -0.7304 -0.0987  0.2473
17051TIP3    H172644   0.266   3.730  12.437  0.3003  0.2434  0.6806
17051TIP3    H272645   0.240   3.581  12.445 -3.3761  0.7442  0.0285
17052TIP3   OH272646   1.039   4.689  13.860 -0.0943  0.0295 -0.2851
17052TIP3    H172647   1.107   4.636  13.819 -0.4920 -1.4340  0.8552
17052TIP3    H272648   1.088   4.757  13.907  0.3703  1.5310 -2.7833
17053TIP3   OH272649   0.625   6.455   3.646 -0.5561 -0.4579  0.6893
17053TIP3    H172650   0.707   6.506   3.646 -1.8142  1.6925  0.2120
17053TIP3    H272651   0.636   6.393   3.574  0.7654 -0.4159  0.8299
17054TIP3   OH272652   5.312   6.279   2.684 -1.0475 -0.1168  0.3311
17054TIP3    H172653   5.312   6.309   2.593 -1.3041 -1.5216 -0.1503
17054TIP3    H272654   5.222   6.294   2.714 -0.7318  1.2507  0.6980
17055TIP3   OH272655   5.298   4.854  14.363 -0.5478  0.3924 -0.4920
17055TIP3    H172656   5.385   4.818  14.346  0.1782  2.1528 -0.7398
17055TIP3    H272657   5.302   4.886  14.453 -0.4836  1.6411 -0.9183
17056TIP3   OH272658   0.849   2.457  16.430  0.1294 -0.3811  0.3646
17056TIP3    H172659   0.938   2.477  16.403  0.2154 -2.6614 -1.3074
17056TIP3    H272660   0.799   2.454  16.349 -1.1416 -0.7407  1.1242
17057TIP3   OH272661   2.522   0.177  15.145 -0.4649  0.0574  0.4068
17057TIP3    H172662   2.475   0.114  15.200 -1.8448  1.9481  1.5190
17057TIP3    H272663   2.460   0.249  15.133  1.2839  1.5278 -0.2189
17058TIP3   OH272664   0.908   4.714   5.024 -0.0106 -0.2005 -0.1955
17058TIP3    H172665   0.839   4.665   5.068  0.7717 -0.0947  1.1941
17058TIP3    H272666   0.985   4.657   5.029  0.9992  1.2266  1.7221
17059TIP3   OH272667   5.442   6.341  14.403 -0.7315 -0.1221  0.3396
17059TIP3    H172668   5.523   6.292  14.415  0.7815  2.4962  1.7843
17059TIP3    H272669   5.464   6.408  14.338 -1.9159  0.2667  0.3132
17060TIP3   OH272670   2.814   4.186  12.834  0.1983  0.2654 -0.0496
17060TIP3    H172671   2.812   4.130  12.912 -0.3656 -0.6536 -0.7216
17060TIP3    H272672   2.879   4.253  12.856  0.6898 -0.4823  0.8706
17061TIP3   OH272673   3.421   2.412   1.700  0.4477 -0.5363 -0.2995
17061TIP3    H172674   3.371   2.394   1.780  1.6955 -0.2938  0.5671
17061TIP3    H272675   3.389   2.498   1.671  0.7962 -0.0657  0.6306
17062TIP3   OH272676   1.372   5.813   2.711 -0.4695  0.0574 -0.2644
17062TIP3    H172677   1.362   5.877   2.640  0.4082  1.6485  0.9811
17062TIP3    H272678   1.359   5.728   2.669 -1.5301  1.0267 -2.0158
17063TIP3   OH272679   2.447   6.473   1.311  0.5150  0.7820  0.0849
17063TIP3    H172680   2.410   6.405   1.367 -1.2619  1.5465 -0.1028
17063TIP3    H272681   2.521   6.508   1.362 -0.0217  0.3173  1.2249
17064TIP3   OH272682   1.288   6.408   4.091 -0.0660 -0.2144 -0.4813
17064TIP3    H172683   1.326   6.496   4.085 -1.9271  0.7094  0.5104
17064TIP3    H272684   1.345   6.362   4.153  1.2317  0.0826 -1.4068
17065TIP3   OH272685   1.266   4.391   2.198 -0.6138  0.4093  0.6917
17065TIP3    H172686   1.243   4.442   2.120 -1.7038 -0.9880  0.0502
17065TIP3    H272687   1.186   4.344   2.221 -0.0869  0.1857  2.1959
17066TIP3   OH272688   1.397   3.521  16.071 -0.1230  0.4896  0.6734
17066TIP3    H172689   1.481   3.528  16.116 -0.5019  1.6866  1.2168
17066TIP3    H272690   1.406   3.441  16.018  0.4190 -0.8369  2.6533
17067TIP3   OH272691   6.257   2.376  16.320  0.0446  0.4967  0.0405
17067TIP3    H172692   6.222   2.290  16.344  0.1278  0.7161  1.0037
17067TIP3    H272693   6.230   2.433  16.392  2.1552  0.7307  0.7044
17068TIP3   OH272694   0.362   5.193   4.687  0.3621 -0.5308  0.0579
17068TIP3    H172695   0.297   5.258   4.659  2.0542  1.6764  0.9472
17068TIP3    H272696   0.428   5.194   4.618  0.6530 -0.9407  0.3237
17069TIP3   OH272697   6.395   3.584   2.440 -0.2503 -0.6437  0.6631
17069TIP3    H172698   6.324   3.631   2.397 -0.0449  0.1698  1.1844
17069TIP3    H272699   6.465   3.579   2.375  0.0152  0.4693  0.8415
17070TIP3   OH272700   3.055   1.923  17.106  0.2107  0.2126  0.1827
17070TIP3    H172701   3.127   1.896  17.162  0.9294  1.1190 -0.2813
17070TIP3    H272702   3.044   2.017  17.123 -0.3602  0.2481 -0.3017
17071TIP3   OH272703   5.689   1.124  16.660 -0.1262  0.2299  0.3480
17071TIP3    H172704   5.780   1.119  16.630 -0.1265  0.1626  0.3583
17071TIP3    H272705   5.696   1.149  16.752 -0.1284  0.5278  0.2680
17072TIP3   OH272706   5.378   2.832  12.715  0.1709  0.3734  0.2147
17072TIP3    H172707   5.417   2.916  12.740 -0.4743  0.5021  0.8325
17072TIP3    H272708   5.377   2.781  12.796  1.8279 -0.7685 -0.4507
17073TIP3   OH272709   1.770   0.609   4.129 -0.3758 -0.0189 -0.0593
17073TIP3    H172710   1.824   0.657   4.192 -1.3707 -0.2232  0.9826
17073TIP3    H272711   1.738   0.533   4.179 -0.2404 -0.8220 -1.1663
17074TIP3   OH272712   4.287   5.422  17.166  0.4668 -0.5434  0.0743
17074TIP3    H172713   4.211   5.479  17.179  1.7420  0.8670  1.7932
17074TIP3    H272714   4.252   5.334  17.176 -0.9032  0.0702  1.1123
17075TIP3   OH272715   3.527   2.513   1.395 -0.0216  0.0080  0.1650
17075TIP3    H172716   3.566   2.444   1.448 -0.6816  0.1339  0.8347
17075TIP3    H272717   3.465   2.556   1.454  0.9733  1.7169  0.0312
17076TIP3   OH272718   3.241   6.493  16.610 -0.2048  0.0209 -0.0796
17076TIP3    H172719   3.332   6.465  16.626 -0.2813 -1.7785 -2.2908
17076TIP3    H272720   3.188   6.431  16.660 -0.2747  0.7621  0.8024
17077TIP3   OH272721   5.971   1.512  14.407 -0.3730 -0.4866 -0.9039
17077TIP3    H172722   5.887   1.484  14.444 -0.3006  0.9577  0.4780
17077TIP3    H272723   6.036   1.474  14.466  0.1177 -2.9577 -2.8643
17078TIP3   OH272724   5.725   5.175  11.742 -0.6803  0.0390 -0.4640
17078TIP3    H172725   5.673   5.130  11.807  0.6625  0.6402  1.1124
17078TIP3    H272726   5.688   5.264  11.738 -1.1478 -0.1740 -0.9991
17079TIP3   OH272727   3.104   1.901  10.603  0.0968 -0.5687  0.4551
17079TIP3    H172728   3.061   1.818  10.622 -1.2953 -0.1161 -0.5846
17079TIP3    H272729   3.039   1.952  10.554  1.8267  0.1138 -1.2724
17080TIP3   OH272730   4.946   3.129   3.979  0.0753  0.3451 -0.5254
17080TIP3    H172731   4.939   3.189   3.905  0.5970 -0.6517 -1.4109
17080TIP3    H272732   5.038   3.134   4.006  0.1784 -0.2133 -0.7546
17081TIP3   OH272733   3.468   2.976   5.395  0.1454 -0.2653 -0.0490
17081TIP3    H172734   3.479   2.890   5.354 -0.1813 -0.2192 -0.2341
17081TIP3    H272735   3.375   2.996   5.384 -0.2872 -0.9174  1.9834
17082TIP3   OH272736   5.356   5.973   6.009  0.0798 -0.1451 -0.2184
17082TIP3    H172737   5.291   5.992   6.076  0.3485 -0.3270  0.0947
17082TIP3    H272738   5.358   6.051   5.954 -2.2363 -1.0230 -1.7523
17083TIP3   OH272739   2.992   0.996  11.533 -0.1348  0.7952 -0.4383
17083TIP3    H172740   3.059   0.944  11.490  0.1426  1.0485 -0.3138
17083TIP3    H272741   2.936   1.027  11.462 -0.9945 -0.6199 -0.4299
17084TIP3   OH272742   1.498   3.780   5.345 -0.2535 -0.0855 -0.1059
17084TIP3    H172743   1.569   3.844   5.344  0.5877 -0.8868  2.0150
17084TIP3    H272744   1.422   3.828   5.311  0.6077  1.6911  0.3342
17085TIP3   OH272745   4.616   2.416   3.769 -0.9081  0.4182 -0.1450
17085TIP3    H172746   4.656   2.418   3.682 -1.5097  0.5294 -0.4226
17085TIP3    H272747   4.522   2.403   3.752 -1.0479  0.5906  0.4801
17086TIP3   OH272748   5.410   5.921  14.567  0.1073 -0.0861  0.1384
17086TIP3    H172749   5.340   5.856  14.578  1.5586 -1.4481  2.0193
17086TIP3    H272750   5.407   5.975  14.646  0.9779  0.0138  0.1184
17087TIP3   OH272751   2.600   6.487  14.864 -0.4386  0.6487  0.1826
17087TIP3    H172752   2.544   6.446  14.930 -0.6837  0.3584 -0.2046
17087TIP3    H272753   2.604   6.424  14.792  1.6904 -0.0481  0.8342
17088TIP3   OH272754   1.637   6.483   0.909  0.3134 -0.6419  0.1542
17088TIP3    H172755   1.719   6.508   0.864  1.1826 -1.8351  1.0281
17088TIP3    H272756   1.581   6.451   0.838  1.9661 -3.2814 -0.0830
17089TIP3   OH272757   6.097   3.518   2.237  0.1979  0.2296  0.1825
17089TIP3    H172758   6.077   3.476   2.321 -2.4862  0.4489 -0.2850
17089TIP3    H272759   6.138   3.601   2.261  0.9643 -0.4199  1.2100
17090TIP3   OH272760   0.777   5.623  11.170 -0.2160 -0.1995 -0.3352
17090TIP3    H172761   0.686   5.597  11.187 -0.4592  0.6437 -0.3143
17090TIP3    H272762   0.771   5.711  11.135  0.4808 -0.8597 -2.2064
17091TIP3   OH272763   0.528   4.200   2.711  0.3404  0.1513 -0.3244
17091TIP3    H172764   0.549   4.109   2.729  1.0936  0.3594 -0.1220
17091TIP3    H272765   0.476   4.198   2.631  0.4747 -0.4429 -0.3992
17092TIP3   OH272766   3.018   3.253  13.629 -0.6283  0.2223 -0.0431
17092TIP3    H172767   3.024   3.268  13.535  2.2751 -0.1111  0.0138
17092TIP3    H272768   3.068   3.173  13.645 -2.5942 -0.7931  1.6138
17093TIP3   OH272769   5.300   4.382  16.449  0.1027  0.3184  0.0550
17093TIP3    H172770   5.271   4.473  16.439 -1.4118 -0.0958  0.5713
17093TIP3    H272771   5.262   4.336  16.374  1.6024  0.2411 -0.7117
17094TIP3   OH272772   6.220   2.200  11.820 -0.2011  0.3154  0.4621
17094TIP3    H172773   6.309   2.180  11.848 -0.7573 -0.9183  1.4142
17094TIP3    H272774   6.184   2.253  11.891 -0.7519 -0.6030  0.8881
17095TIP3   OH272775   4.697   0.338  14.921 -0.0872 -0.5347 -0.2810
17095TIP3    H172776   4.773   0.355  14.866 -0.8000  0.6160 -0.9501
17095TIP3    H272777   4.732   0.328  15.009  0.7854  0.4589 -0.5067
17096TIP3   OH272778   4.230   5.762  15.606  0.2039 -0.3039 -0.1039
17096TIP3    H172779   4.289   5.834  15.629 -0.8678  0.4206  0.4383
17096TIP3    H272780   4.174   5.751  15.683 -0.8401 -0.5051 -0.8686
17097TIP3   OH272781   2.957   4.959  14.535  0.2717  0.2963 -0.6876
17097TIP3    H172782   3.050   4.952  14.512  0.1977 -0.7859 -0.6848
17097TIP3    H272783   2.920   5.014  14.466  0.5478 -0.8402 -1.7653
17098TIP3   OH272784   2.731   1.725   4.688 -0.4014 -0.3458  0.4564
17098TIP3    H172785   2.820   1.755   4.670 -0.7428  0.2807 -0.2529
17098TIP3    H272786   2.734   1.694   4.778  0.8862 -1.7072 -0.0064
17099TIP3   OH272787   0.884   2.119  13.188  0.1154 -0.4403 -0.7752
17099TIP3    H172788   0.858   2.094  13.099  1.3332 -0.9623 -1.0081
17099TIP3    H272789   0.955   2.059  13.209  1.8732  1.5685 -0.6034
17100TIP3   OH272790   6.389   0.774   4.627 -0.0781  0.1916  0.1475
17100TIP3    H172791   6.379   0.794   4.720  1.5896 -0.5963  0.5349
17100TIP3    H272792   6.465   0.826   4.599 -0.1221 -0.1236 -0.5893
17101TIP3   OH272793   2.578   6.357   0.182  0.8289 -0.1679 -0.0280
17101TIP3    H172794   2.560   6.347   0.276 -0.9809  2.1029 -0.0394
17101TIP3    H272795   2.636   6.284   0.161  0.2289 -1.5206  2.5587
17102TIP3   OH272796   6.397   0.305   4.175 -0.9487 -0.3265 -0.0135
17102TIP3    H172797   6.451   0.260   4.240 -1.4940 -0.3928  0.3988
17102TIP3    H272798   6.459   0.359   4.126 -0.4389 -0.7430  0.1524
17103TIP3   OH272799   2.666   6.631  16.471 -0.1746  0.4533 -0.0027
17103TIP3    H172800   2.644   6.591  16.387 -0.7543 -1.3253  0.9319
17103TIP3    H272801   2.762   6.634  16.472  0.0271 -2.6798  0.5578
17104TIP3   OH272802   6.191   2.434   0.794 -0.4577 -0.0419  0.3152
17104TIP3    H172803   6.206   2.341   0.809  1.7078  0.5276  2.1436
17104TIP3    H272804   6.106   2.451   0.835 -0.5881 -1.0724  0.5107
17105TIP3   OH272805   5.281   5.371  13.803  0.1195 -1.0186  0.1594
17105TIP3    H172806   5.343   5.422  13.855  2.2763 -2.4447 -0.8678
17105TIP3    H272807   5.246   5.434  13.740 -0.5044  0.1031  1.5525
17106TIP3   OH272808   0.813   2.140   1.240 -0.1414  0.6245  0.0063
17106TIP3    H172809   0.780   2.186   1.317 -0.8677  0.6570 -0.3139
17106TIP3    H272810   0.845   2.056   1.274 -1.8914 -0.0212  0.1586
17107TIP3   OH272811   2.739   0.834   6.225  0.4544 -0.0266  0.0778
17107TIP3    H172812   2.743   0.807   6.133 -0.7890  1.0538 -0.3174
17107TIP3    H272813   2.701   0.921   6.223 -0.4597 -0.3507  1.6828
17108TIP3   OH272814   3.183   6.045   5.900  0.3743  0.0868  0.0947
17108TIP3    H172815   3.152   6.030   5.989 -0.0339 -0.0433 -0.0643
17108TIP3    H272816   3.178   5.959   5.858  1.0990  0.0319  0.1057
17109TIP3   OH272817   3.312   5.357   4.035 -0.1696  0.1508  0.1686
17109TIP3    H172818   3.408   5.356   4.042  0.0317  2.5370 -1.2880
17109TIP3    H272819   3.286   5.442   4.068 -1.5657  0.4207 -1.4655
17110TIP3   OH272820   0.485   5.446   4.047 -0.2413  0.3703  0.4316
17110TIP3    H172821   0.397   5.471   4.021  0.9344  2.9436 -1.4501
17110TIP3    H272822   0.513   5.514   4.108  0.6924  0.0066  0.4305
17111TIP3   OH272823   3.711   1.048  14.878 -0.1357  0.0341 -0.0360
17111TIP3    H172824   3.627   1.002  14.885 -1.1048  1.6881 -0.4096
17111TIP3    H272825   3.688   1.137  14.853  1.6113  1.0669  1.7832
17112TIP3   OH272826   6.720   1.972  16.115 -0.6163 -0.2056  0.2984
17112TIP3    H172827   6.632   1.939  16.099 -1.0484  1.1217 -0.1898
17112TIP3    H272828   6.778   1.905  16.078 -1.4616 -0.3395 -0.8288
17113TIP3   OH272829   5.101   4.709  16.780  0.0209  0.4219  0.7330
17113TIP3    H172830   5.108   4.780  16.717 -0.4285  0.0788  0.2886
17113TIP3    H272831   5.088   4.752  16.864 -0.7758  0.8584  0.3930
17114TIP3   OH272832   5.911   6.655   0.505 -0.0130  0.0618  0.0550
17114TIP3    H172833   5.931   6.745   0.481  1.5815 -0.2484  0.0567
17114TIP3    H272834   5.943   6.603   0.431 -0.8494 -0.5114  0.0849
17115TIP3   OH272835   0.528   2.776  14.865  0.2206  0.4679 -0.2255
17115TIP3    H172836   0.559   2.845  14.923  1.5408  0.3556 -0.7549
17115TIP3    H272837   0.542   2.811  14.777 -1.0750  0.3483 -0.5012
17116TIP3   OH272838   4.618   1.941   1.556 -0.0284 -0.2731 -0.1855
17116TIP3    H172839   4.524   1.928   1.568  0.3231 -2.4046  0.6533
17116TIP3    H272840   4.658   1.861   1.590  2.0647  0.3354 -1.0611
17117TIP3   OH272841   2.745   2.697   5.106  0.4045 -0.2941  0.1247
17117TIP3    H172842   2.716   2.786   5.088  0.6997 -0.0150  1.0101
17117TIP3    H272843   2.839   2.705   5.121  0.0699 -0.3397  2.6959
17118TIP3   OH272844   1.374   6.511   2.841  0.3840 -0.5497 -0.2213
17118TIP3    H172845   1.454   6.521   2.894 -0.9340 -0.2672  1.8172
17118TIP3    H272846   1.390   6.567   2.764  2.4112 -1.0595 -0.2464
17119TIP3   OH272847   0.948   4.803   6.905 -0.1963 -0.2344  0.0703
17119TIP3    H172848   1.024   4.762   6.946 -1.0361  0.3494  2.3410
17119TIP3    H272849   0.966   4.897   6.910  0.1015 -0.1430 -1.8477
17120TIP3   OH272850   1.158   3.052  15.244  0.7667  0.4486  0.0457
17120TIP3    H172851   1.198   3.137  15.228 -0.4859  0.9691 -0.4781
17120TIP3    H272852   1.090   3.069  15.310  1.2969 -0.3862  0.8429
17121TIP3   OH272853   5.649   4.001   3.259 -0.4032  0.2828 -0.7178
17121TIP3    H172854   5.632   4.075   3.317  1.2082  0.6393 -0.6628
17121TIP3    H272855   5.602   4.023   3.178 -1.6821  0.3409  0.0186
17122TIP3   OH272856   6.374   2.009   4.494 -0.1520 -0.3039 -0.0106
17122TIP3    H172857   6.373   1.972   4.405 -1.6935 -0.3121 -0.0247
17122TIP3    H272858   6.322   1.947   4.545 -0.8829  0.6704  0.4606
17123TIP3   OH272859   5.320   2.884  13.232 -0.0978 -0.0129 -0.0011
17123TIP3    H172860   5.326   2.836  13.149 -0.0096  0.1464 -0.0875
17123TIP3    H272861   5.385   2.841  13.289 -1.2508 -1.1452  0.5101
17124TIP3   OH272862   0.290   5.349  14.116 -0.1672 -0.5284 -0.3441
17124TIP3    H172863   0.370   5.315  14.156  0.1776 -2.3013 -2.3841
17124TIP3    H272864   0.284   5.439  14.150  3.5669  0.2684 -1.2859
17125TIP3   OH272865   5.507   3.282   1.573  0.0628 -0.5225 -0.4924
17125TIP3    H172866   5.417   3.313   1.575  0.4323  0.5932  0.7857
17125TIP3    H272867   5.558   3.359   1.548  1.0293  0.1059  2.8792
17126TIP3   OH272868   2.308   0.875   3.429  0.3711 -0.0696  0.1758
17126TIP3    H172869   2.313   0.873   3.334 -1.8177  1.8877 -0.0967
17126TIP3    H272870   2.360   0.951   3.455  2.1345 -1.4117  0.7304
17127TIP3   OH272871   4.306   2.956   1.540 -0.1605 -0.1308  0.4088
17127TIP3    H172872   4.345   2.896   1.475 -0.6749 -0.7927  0.6944
17127TIP3    H272873   4.381   2.993   1.586  0.2111  0.3098 -0.5296
17128TIP3   OH272874   5.648   6.444   6.497  0.3708 -0.3732  0.4985
17128TIP3    H172875   5.697   6.381   6.550  1.3053 -1.2540 -1.3398
17128TIP3    H272876   5.715   6.490   6.446 -0.5862 -0.5905 -1.0105
17129TIP3   OH272877   4.841   1.446   4.630 -0.1077 -0.7895 -0.0025
17129TIP3    H172878   4.866   1.432   4.722 -1.5871 -0.2230  0.5212
17129TIP3    H272879   4.866   1.537   4.613  0.8123 -1.1145 -0.3853
17130TIP3   OH272880   3.770   5.036   0.125 -0.5337  0.0887 -0.5767
17130TIP3    H172881   3.847   5.052   0.070 -0.2430  0.3165 -0.1151
17130TIP3    H272882   3.745   5.123   0.156 -1.5426  0.1281 -1.4552
17131TIP3   OH272883   1.372   1.779   5.418  0.2186 -0.7427  0.1503
17131TIP3    H172884   1.291   1.777   5.368 -1.3298 -0.3606  2.5047
17131TIP3    H272885   1.384   1.688   5.448  0.3808 -0.6978  0.2223
17132TIP3   OH272886   0.386   0.883   2.130 -0.2729  0.0890 -0.0735
17132TIP3    H172887   0.382   0.788   2.124 -1.1542 -0.0015  1.3568
17132TIP3    H272888   0.301   0.912   2.098  0.0473  0.4159 -0.6425
17133TIP3   OH272889   3.194   0.497  12.551  0.2310  0.1531 -0.0985
17133TIP3    H172890   3.135   0.534  12.618 -1.0279 -2.6909  0.5399
17133TIP3    H272891   3.271   0.552  12.554 -0.2614  0.8876  2.9153
17134TIP3   OH272892   5.851   4.191  12.707 -0.2860 -0.4378 -0.1186
17134TIP3    H172893   5.776   4.200  12.765 -0.0114  1.2332  0.0389
17134TIP3    H272894   5.821   4.226  12.623  0.1088 -0.3676 -0.2362
17135TIP3   OH272895   6.209   0.421  12.680 -0.0579  0.3506 -0.3697
17135TIP3    H172896   6.175   0.345  12.632 -1.6131 -0.3031  1.6560
17135TIP3    H272897   6.142   0.441  12.745  1.9889  1.0927  1.6445
17136TIP3   OH272898   0.586   4.260   4.625  0.0301  0.6551  0.2969
17136TIP3    H172899   0.567   4.166   4.624  1.9194  0.2419 -0.6624
17136TIP3    H272900   0.547   4.292   4.707 -1.9928 -0.6313 -0.0993
17137TIP3   OH272901   6.061   4.980  14.464 -0.6285  0.0940  0.1196
17137TIP3    H172902   6.128   4.915  14.440 -0.7643  0.5133 -1.5116
17137TIP3    H272903   6.069   5.047  14.397 -1.4611  1.0660  0.9761
17138TIP3   OH272904   5.098   5.614  15.258  0.1514 -0.0075 -0.9714
17138TIP3    H172905   5.153   5.550  15.212  0.9374 -0.8661  1.0496
17138TIP3    H272906   5.044   5.562  15.317 -0.2430  1.0935 -0.3250
17139TIP3   OH272907   5.720   2.300  16.676 -0.1509  0.1102  0.1664
17139TIP3    H172908   5.671   2.306  16.758 -1.2155  1.1663 -0.4992
17139TIP3    H272909   5.687   2.373  16.624 -0.1822 -1.0787 -1.5620
17140TIP3   OH272910   4.072   0.431  15.927  0.6346 -0.5085  0.3170
17140TIP3    H172911   4.027   0.488  15.864  1.4634  0.1702  0.3113
17140TIP3    H272912   4.074   0.483  16.008  1.4503 -0.5040  0.2939
17141TIP3   OH272913   4.170   0.913  14.863  0.0125  0.1904 -0.3036
17141TIP3    H172914   4.164   0.819  14.850 -1.4170 -0.1072  1.9117
17141TIP3    H272915   4.113   0.951  14.796 -0.9095 -0.6659 -0.0233
17142TIP3   OH272916   5.997   4.486   1.739  0.5036  0.0923 -0.7583
17142TIP3    H172917   5.957   4.429   1.672 -0.0763  1.0105 -1.2102
17142TIP3    H272918   5.987   4.437   1.821  0.2467 -0.5663 -1.1699
17143TIP3   OH272919   1.594   4.899  13.281  0.0311 -0.4032 -0.0811
17143TIP3    H172920   1.534   4.936  13.346 -0.7390 -0.7337 -0.5812
17143TIP3    H272921   1.670   4.871  13.332 -0.4183 -0.3592  0.6403
17144TIP3   OH272922   5.127   2.286   1.789 -0.5888  0.2772 -0.7192
17144TIP3    H172923   5.065   2.255   1.856 -0.1531 -1.1280 -0.9577
17144TIP3    H272924   5.123   2.382   1.797 -0.0795  0.1707  1.7661
17145TIP3   OH272925   2.630   2.078   3.684 -1.0398 -0.2116 -0.3633
17145TIP3    H172926   2.632   1.990   3.646 -0.9359  0.1207 -1.1279
17145TIP3    H272927   2.715   2.088   3.726 -1.3176 -0.7441  0.3476
17146TIP3   OH272928   0.402   4.443  12.227  0.1830 -0.1294  0.0517
17146TIP3    H172929   0.311   4.461  12.250  0.3820 -0.4620  1.1392
17146TIP3    H272930   0.404   4.450  12.131 -1.1908 -1.0092 -0.0690
17147TIP3   OH272931   2.600   1.016   2.623 -0.4231  0.0889 -0.1770
17147TIP3    H172932   2.569   0.978   2.541  1.2483 -0.1717 -0.7334
17147TIP3    H272933   2.655   1.090   2.596 -0.6115  0.5852  0.7480
17148TIP3   OH272934   2.101   2.738  16.609 -0.3200  0.2484  0.4111
17148TIP3    H172935   2.112   2.709  16.518 -0.3788  2.0795 -0.2428
17148TIP3    H272936   2.126   2.831  16.606 -0.4008  0.3537  2.2648
17149TIP3   OH272937   6.044   0.977   4.046  0.4883 -0.6661 -0.0319
17149TIP3    H172938   5.985   0.960   3.973 -0.7422  1.3916  0.4281
17149TIP3    H272939   6.127   1.000   4.004 -0.0517 -0.0122 -0.7677
17150TIP3   OH272940   3.288   0.100   6.625 -0.5164  0.4032  0.0953
17150TIP3    H172941   3.267   0.031   6.688 -2.0590  0.5997 -0.1565
17150TIP3    H272942   3.224   0.088   6.555  0.0046  1.3102 -0.5544
17151TIP3   OH272943   4.618   4.694  11.622  0.1236  0.1841  0.1695
17151TIP3    H172944   4.630   4.725  11.532 -1.9921 -1.6399 -0.8251
17151TIP3    H272945   4.544   4.634  11.617 -0.8831  0.9794  3.3867
17152TIP3   OH272946   6.490   0.843  11.840  0.1378  0.2422  0.0886
17152TIP3    H172947   6.447   0.787  11.904 -0.7529  0.2736 -0.4612
17152TIP3    H272948   6.471   0.802  11.755  0.0302  1.0143 -0.2671
17153TIP3   OH272949   0.984   0.178   4.502  0.4267  0.4895  0.1248
17153TIP3    H172950   0.898   0.204   4.471  0.4217  0.0576 -0.2478
17153TIP3    H272951   1.039   0.256   4.491 -0.1102  1.0377  1.1848
17154TIP3   OH272952   1.515   1.755  13.744 -0.2835 -0.6458  0.8478
17154TIP3    H172953   1.594   1.791  13.785  2.0363 -1.4525 -2.5303
17154TIP3    H272954   1.478   1.828  13.695 -1.1365 -0.5331  1.6248
17155TIP3   OH272955   4.496   2.050  11.447 -0.2183 -0.0404 -0.2622
17155TIP3    H172956   4.590   2.040  11.432  0.1991  1.7303  0.9049
17155TIP3    H272957   4.457   2.048  11.360  1.0946  0.8700 -0.8897
17156TIP3   OH272958   0.660   6.245   6.220 -0.5605 -0.4568  0.3574
17156TIP3    H172959   0.751   6.258   6.195 -0.2542 -0.4345  1.4099
17156TIP3    H272960   0.645   6.151   6.210  0.5295 -1.0170  3.0188
17157TIP3   OH272961   3.241   5.920   1.490 -0.5985 -0.1738 -0.1406
17157TIP3    H172962   3.281   5.837   1.517 -0.5267 -1.9436 -4.7991
17157TIP3    H272963   3.147   5.904   1.497 -0.5787 -0.4658 -0.5184
17158TIP3   OH272964   0.947   0.137   0.675  0.3085  0.4506  0.1760
17158TIP3    H172965   0.953   0.232   0.666  0.3892  0.4142 -0.1393
17158TIP3    H272966   0.857   0.122   0.705  0.8121  0.7529  1.9637
17159TIP3   OH272967   2.763   0.042   6.475 -0.1667  0.0885 -0.2580
17159TIP3    H172968   2.741   0.135   6.465 -0.4113  0.6008  3.5616
17159TIP3    H272969   2.850   0.042   6.514 -0.9860 -1.1029  1.7279
17160TIP3   OH272970   6.108   5.163  12.754  0.0304  0.0452  0.6830
17160TIP3    H172971   6.101   5.207  12.669  0.1310  1.4220  1.3455
17160TIP3    H272972   6.203   5.162  12.772  0.1260 -1.4659  0.1871
17161TIP3   OH272973   6.148   5.487  17.245  0.4304 -0.1502  0.3484
17161TIP3    H172974   6.056   5.486  17.220  0.5226 -0.7441  0.0042
17161TIP3    H272975   6.155   5.419  17.312  0.1054  1.6873  2.3453
17162TIP3   OH272976   0.368   1.340  15.980  0.0955  0.4082  0.3885
17162TIP3    H172977   0.427   1.265  15.985 -0.0059  0.2988 -0.0067
17162TIP3    H272978   0.320   1.339  16.063  0.0619  0.0079  0.3641
17163TIP3   OH272979   2.349   6.366  14.685  0.7241 -0.1079 -0.0670
17163TIP3    H172980   2.310   6.295  14.634  0.6507  0.0977 -0.3052
17163TIP3    H272981   2.290   6.377  14.759  1.9680 -1.8316  1.2439
17164TIP3   OH272982   3.108   4.811   1.086 -0.1938  0.1413 -0.2138
17164TIP3    H172983   3.136   4.832   1.175  0.4429  1.2394 -0.6572
17164TIP3    H272984   3.155   4.730   1.064 -0.6357 -0.3349  0.5676
17165TIP3   OH272985   0.441   1.563  15.158  0.7807 -0.4316 -0.6623
17165TIP3    H172986   0.530   1.593  15.179 -0.1231  0.4153  2.5662
17165TIP3    H272987   0.439   1.560  15.063  4.1126 -0.0359 -0.8763
17166TIP3   OH272988   2.589   3.621  14.030 -0.4956  0.4511 -0.1833
17166TIP3    H172989   2.512   3.603  14.084  0.0533 -0.6596  0.2537
17166TIP3    H272990   2.618   3.708  14.058 -0.8771  0.3677  0.4990
17167TIP3   OH272991   2.378   0.382  16.505 -0.5267 -0.3624  0.1293
17167TIP3    H172992   2.426   0.327  16.566 -1.3688 -0.8861  0.3376
17167TIP3    H272993   2.444   0.442  16.470 -0.0438 -0.0040  1.5871
17168TIP3   OH272994   2.161   4.458   2.822 -0.3117 -0.4494 -0.0556
17168TIP3    H172995   2.127   4.547   2.817 -2.2710 -1.1443  0.0075
17168TIP3    H272996   2.184   4.436   2.732  0.0389  0.0537 -0.0940
17169TIP3   OH272997   2.529   4.892   3.295 -0.5291 -0.3252 -0.2297
17169TIP3    H172998   2.556   4.959   3.358  1.1338  0.2979 -1.5229
17169TIP3    H272999   2.516   4.940   3.214 -0.7239 -1.3668 -0.8322
17170TIP3   OH273000   0.262   6.379  11.470 -0.1009 -0.6345  0.1146
17170TIP3    H173001   0.220   6.348  11.390 -0.6292  0.7609 -0.1871
17170TIP3    H273002   0.356   6.373  11.452 -0.1526 -2.5814  0.3184
17171TIP3   OH273003   6.619   1.364   0.416  0.6869  0.3221 -0.0575
17171TIP3    H173004   6.658   1.285   0.378  1.4082  0.0745  1.1646
17171TIP3    H273005   6.525   1.346   0.418  0.8330 -0.4456  0.0661
17172TIP3   OH273006   2.720   0.994   4.683 -0.7413 -0.4722 -0.0171
17172TIP3    H173007   2.657   1.064   4.668 -0.3630 -0.1887 -0.2968
17172TIP3    H273008   2.731   0.952   4.598 -1.4825 -1.3140  0.2897
17173TIP3   OH273009   2.506   5.292  14.895 -0.3323  0.3386  0.1221
17173TIP3    H173010   2.457   5.314  14.816  3.0328  0.4460 -2.1698
17173TIP3    H273011   2.504   5.196  14.899  0.1600  0.2861 -0.6350
17174TIP3   OH273012   5.694   3.740  14.746 -0.8172  0.0786  0.4017
17174TIP3    H173013   5.677   3.698  14.662  0.6244  0.1892  0.0235
17174TIP3    H273014   5.782   3.776  14.737 -0.9879  0.8523  1.6601
17175TIP3   OH273015   0.877   3.949  17.067 -0.1310 -0.1968  0.0606
17175TIP3    H173016   0.816   3.979  17.000  0.3086  0.6018 -0.0043
17175TIP3    H273017   0.937   3.890  17.021  0.1021  0.2612 -0.2294
17176TIP3   OH273018   5.939   3.311  15.489 -0.0154 -0.0382  0.5200
17176TIP3    H173019   5.902   3.363  15.560  0.0185  0.6209  0.0591
17176TIP3    H273020   5.977   3.235  15.533 -2.0566 -0.8565  1.0060
17177TIP3   OH273021   6.613   4.088   2.082  0.0061  0.1800 -0.0123
17177TIP3    H173022   6.531   4.072   2.130  0.1469  2.4315  1.1248
17177TIP3    H273023   6.585   4.117   1.995 -0.5315  2.0984  0.7384
17178TIP3   OH273024   5.549   3.560   5.240 -0.0276 -0.8196 -0.4071
17178TIP3    H173025   5.576   3.470   5.222 -1.0060 -1.2997  0.4255
17178TIP3    H273026   5.460   3.553   5.274  0.5558  0.2584  1.5338
17179TIP3   OH273027   0.942   5.670  14.342 -0.1187  0.2551 -0.3733
17179TIP3    H173028   0.946   5.601  14.275  0.9767 -1.2987  1.2095
17179TIP3    H273029   0.947   5.752  14.292 -0.3407 -0.8142 -2.2445
17180TIP3   OH273030   3.524   6.198   1.810 -0.4331  0.1216  0.6353
17180TIP3    H173031   3.437   6.234   1.828 -0.5577 -0.1211  0.5181
17180TIP3    H273032   3.520   6.169   1.719 -0.0235  0.7022  0.4285
17181TIP3   OH273033   6.817   1.781  15.622  0.0761 -0.2141  0.1427
17181TIP3    H173034   6.727   1.760  15.644 -0.4165  1.1644 -0.4007
17181TIP3    H273035   6.822   1.769  15.527 -0.2293  1.8797 -0.1944
17182TIP3   OH273036   1.817   4.506   2.424  0.0892  0.5488  0.4162
17182TIP3    H173037   1.867   4.478   2.347 -0.5425  0.3755  0.0610
17182TIP3    H273038   1.883   4.531   2.488  0.6298  1.7184 -0.5503
17183TIP3   OH273039   4.236   5.127  11.776  0.1928  0.1742 -0.4835
17183TIP3    H173040   4.263   5.035  11.778 -0.9823 -0.1751  0.2403
17183TIP3    H273041   4.314   5.176  11.800  0.3418 -0.7662  1.0755
17184TIP3   OH273042   0.994   3.415   6.166 -0.1018  0.1175 -0.3385
17184TIP3    H173043   1.078   3.377   6.193 -0.3588 -1.0490 -1.1219
17184TIP3    H273044   0.944   3.421   6.248  0.8304  1.0993  0.1865
17185TIP3   OH273045   4.589   3.597  16.534 -0.2722  0.5073 -0.5419
17185TIP3    H173046   4.684   3.605  16.538 -0.1860 -0.8272  1.3275
17185TIP3    H273047   4.559   3.635  16.617 -1.5101  2.0322 -1.6211
17186TIP3   OH273048   3.894   1.437  13.458 -0.1941  0.4617 -0.4354
17186TIP3    H173049   3.882   1.395  13.373 -0.6550 -1.0695  0.3477
17186TIP3    H273050   3.963   1.386  13.500 -0.9049  0.3364  0.6187
17187TIP3   OH273051   1.122   4.689   0.484  0.0863 -0.0129 -0.3022
17187TIP3    H173052   1.035   4.719   0.456 -0.5786  0.2161  1.8420
17187TIP3    H273053   1.167   4.768   0.514  0.9351 -0.1788 -1.0963
17188TIP3   OH273054   1.247   1.865   4.930 -0.1348 -0.0119  0.7825
17188TIP3    H173055   1.222   1.809   5.003 -3.1866  1.3187  0.8933
17188TIP3    H273056   1.172   1.923   4.917  1.6817  2.0901 -1.2205
17189TIP3   OH273057   1.043   5.582  13.368  0.1905 -0.0670 -0.1691
17189TIP3    H173058   1.083   5.512  13.418 -0.4405  0.7118  1.5011
17189TIP3    H273059   1.040   5.657  13.428 -2.5012  0.3073 -0.6177
17190TIP3   OH273060   5.235   1.425   0.620  0.2025 -0.6139 -0.4945
17190TIP3    H173061   5.252   1.416   0.714  0.6679 -0.2534 -0.5398
17190TIP3    H273062   5.145   1.455   0.615  1.1873  2.8577  0.0309
17191TIP3   OH273063   4.463   1.095  15.602  0.3244 -0.0001  0.6035
17191TIP3    H173064   4.552   1.078  15.632  0.5838 -2.2433 -1.1487
17191TIP3    H273065   4.421   1.010  15.602 -2.1660  1.1110  2.1696
17192TIP3   OH273066   1.319   6.599  14.765 -0.1787  0.1179 -0.0413
17192TIP3    H173067   1.300   6.640  14.680 -0.6014  1.4040  0.6585
17192TIP3    H273068   1.234   6.568  14.796 -0.1724  0.4572  0.3199
17193TIP3   OH273069   4.118   6.364   6.138  0.1900  0.5708  0.3274
17193TIP3    H173070   4.167   6.330   6.213 -2.2568  0.7224  2.1127
17193TIP3    H273071   4.129   6.459   6.142 -2.5732  0.9293  2.6522
17194TIP3   OH273072   5.842   0.958   5.842  0.0242 -0.4632 -0.8568
17194TIP3    H173073   5.846   0.862   5.845  0.1354 -0.4592 -0.8802
17194TIP3    H273074   5.919   0.986   5.890 -1.1560 -0.3761  1.0864
17195TIP3   OH273075   0.229   6.273   3.876  0.0234 -0.2978  0.0421
17195TIP3    H173076   0.270   6.337   3.818 -0.4738 -0.6784 -0.7492
17195TIP3    H273077   0.299   6.247   3.936  0.2663  0.8674  0.2749
17196TIP3   OH273078   1.161   5.329  13.549 -0.0439  0.3183 -0.3268
17196TIP3    H173079   1.214   5.374  13.614 -0.7606  2.4572 -1.1409
17196TIP3    H273080   1.071   5.344  13.577 -0.3474 -2.2722  0.3932
17197TIP3   OH273081   6.284   2.319   2.095  0.6496 -0.1309  0.2053
17197TIP3    H173082   6.245   2.298   2.179  0.7024 -0.8820  0.0473
17197TIP3    H273083   6.310   2.235   2.058 -2.0556 -0.1945 -1.9093
17198TIP3   OH273084   1.321   5.958   3.331  0.3786 -0.1566  0.1687
17198TIP3    H173085   1.363   6.043   3.341  1.1402 -0.6038  0.9290
17198TIP3    H273086   1.254   5.971   3.263  0.5695  1.0030  0.1965
17199TIP3   OH273087   4.776   0.301  16.156  0.1828 -0.5067 -0.0734
17199TIP3    H173088   4.685   0.297  16.187 -0.1482  1.2494 -0.6947
17199TIP3    H273089   4.771   0.352  16.076  2.0669  2.4905  1.5468
17200TIP3   OH273090   5.502   5.890  13.431 -0.5688 -0.3642  0.2897
17200TIP3    H173091   5.461   5.879  13.516 -0.7264 -1.4360  0.0914
17200TIP3    H273092   5.577   5.831  13.432 -0.9146 -0.8384 -0.5180
17201TIP3   OH273093   3.537   5.352   3.214  0.6515 -0.4179  0.5904
17201TIP3    H173094   3.546   5.316   3.125 -0.7676  1.2533 -0.2739
17201TIP3    H273095   3.623   5.389   3.233  1.3787 -1.9482  0.4942
17202TIP3   OH273096   1.921   6.591   3.132 -0.2925  0.3581 -0.0906
17202TIP3    H173097   1.923   6.578   3.226  0.4719  0.1637 -0.1324
17202TIP3    H273098   1.872   6.672   3.120 -1.1353 -0.0589  0.4191
17203TIP3   OH273099   1.727   2.477   5.546  0.6139 -0.2011  0.3205
17203TIP3    H173100   1.799   2.517   5.596 -1.8301  1.5708  2.6997
17203TIP3    H273101   1.655   2.539   5.554 -0.7758 -1.0742 -3.4095
17204TIP3   OH273102   2.338   5.412   2.410  0.1232  0.5896  0.5051
17204TIP3    H173103   2.304   5.359   2.483  2.1484  0.1906  1.2343
17204TIP3    H273104   2.275   5.399   2.339 -1.1772 -0.1299  1.7346
17205TIP3   OH273105   5.344   3.692  12.592  0.0667  0.0019 -0.5068
17205TIP3    H173106   5.379   3.623  12.537 -1.0075 -1.3130  0.3935
17205TIP3    H273107   5.409   3.763  12.587  1.8005 -1.5136 -0.5141
17206TIP3   OH273108   1.501   6.367  13.567 -0.0513 -0.0768  0.2506
17206TIP3    H173109   1.496   6.359  13.662  0.7137 -0.2092  0.2845
17206TIP3    H273110   1.503   6.461  13.550  2.6156 -0.0143  0.5476
17207TIP3   OH273111   2.253   3.156   3.200  0.5321  0.0912 -0.0191
17207TIP3    H173112   2.242   3.251   3.204 -0.0196 -0.0086  1.3973
17207TIP3    H273113   2.201   3.129   3.124 -0.2086  0.8008  0.2262
17208TIP3   OH273114   3.164   6.023   4.813  0.3209  0.2663 -0.2422
17208TIP3    H173115   3.223   6.093   4.843  1.0803  0.9054 -2.9178
17208TIP3    H273116   3.087   6.030   4.869  1.9963  0.6062  2.1811
17209TIP3   OH273117   5.329   4.187   2.485 -0.0987  0.1987  0.5947
17209TIP3    H173118   5.248   4.148   2.454 -0.3455  1.4131 -0.3647
17209TIP3    H273119   5.331   4.167   2.579 -0.8685 -0.9171  0.3899
17210TIP3   OH273120   1.007   5.486  14.845 -0.4975 -0.0752  0.9497
17210TIP3    H173121   0.953   5.526  14.913 -0.0006  1.4469  0.4884
17210TIP3    H273122   1.076   5.551  14.828  0.3090 -1.1173  0.1202
17211TIP3   OH273123   6.242   6.706   0.520 -0.3512  0.0284 -0.1100
17211TIP3    H173124   6.186   6.696   0.443  1.7014 -2.6612 -1.4249
17211TIP3    H273125   6.215   6.635   0.579 -1.1112  1.3395  1.1792
17212TIP3   OH273126   1.927   0.678  13.783 -0.0126 -0.1821 -0.0117
17212TIP3    H173127   1.866   0.619  13.740 -1.2704  0.9062  0.1982
17212TIP3    H273128   2.011   0.632  13.782 -0.3182 -0.8050 -2.2934
17213TIP3   OH273129   3.051   0.094   0.058  0.0963  0.1024  0.5172
17213TIP3    H173130   3.036   0.000   0.063  0.7798  0.0044  0.8502
17213TIP3    H273131   3.060   0.113  -0.035  0.0495 -0.1725  0.4568
17214TIP3   OH273132   1.880   0.122  13.465  0.5173 -0.2667 -0.1671
17214TIP3    H173133   1.961   0.111  13.415  1.2879  3.3162  0.0598
17214TIP3    H273134   1.811   0.088  13.407  1.6758  1.1785 -2.5127
17215TIP3   OH273135   3.851   5.911   4.729 -0.3177 -0.0363  0.4300
17215TIP3    H173136   3.787   5.844   4.751 -0.7837  0.4410  0.5493
17215TIP3    H273137   3.817   5.950   4.648  0.1216 -0.1572  0.1806
17216TIP3   OH273138   3.378   4.925   3.602 -0.2788 -0.1590  0.0356
17216TIP3    H173139   3.316   4.911   3.674 -0.4505 -0.5395 -0.1802
17216TIP3    H273140   3.447   4.861   3.619  0.8689  1.2989  1.1473
17217TIP3   OH273141   4.431   5.869  14.564  0.5684  0.1157 -0.3329
17217TIP3    H173142   4.409   5.776  14.566  0.1136  0.2233 -0.3548
17217TIP3    H273143   4.518   5.873  14.605  0.4526 -0.2773 -0.0397
17218TIP3   OH273144   0.540   0.568   5.963 -0.2117  0.2744  0.4604
17218TIP3    H173145   0.615   0.547   6.019  1.4760  1.8450 -1.0815
17218TIP3    H273146   0.535   0.494   5.903  0.0637  0.1344  0.6055
17219TIP3   OH273147   5.510   4.045   3.038 -0.0094  0.6416 -0.2788
17219TIP3    H173148   5.459   4.111   3.085  0.2782  0.4362  0.3205
17219TIP3    H273149   5.443   3.990   2.996 -0.3112  0.1865  0.7588
17220TIP3   OH273150   2.371   1.660   1.651  0.7222 -1.0002  0.5164
17220TIP3    H173151   2.441   1.596   1.665  0.4975 -1.4398 -0.2785
17220TIP3    H273152   2.303   1.610   1.606  0.8388 -0.0331 -0.7907
17221TIP3   OH273153   3.638   0.135  11.755  0.1034  0.1046 -0.5236
17221TIP3    H173154   3.651   0.205  11.690  2.1259  0.7397  0.4607
17221TIP3    H273155   3.574   0.170  11.817  0.4772  0.7627 -0.5015
17222TIP3   OH273156   1.019   0.172   3.335  0.3859 -0.1222  0.1529
17222TIP3    H173157   0.979   0.239   3.280 -1.3058 -0.5900  0.7639
17222TIP3    H273158   1.110   0.168   3.305  0.0115  1.0026 -1.2575
17223TIP3   OH273159   3.661   1.102  16.975 -0.1821 -0.1459  0.1898
17223TIP3    H173160   3.711   1.155  17.037 -0.6536 -0.5042  0.8840
17223TIP3    H273161   3.672   1.012  17.007  1.2508 -0.5975 -1.4006
17224TIP3   OH273162   5.484   4.703   2.331 -0.1598  0.0756  0.0705
17224TIP3    H173163   5.521   4.632   2.279 -1.5572 -1.8947  1.6349
17224TIP3    H273164   5.390   4.687   2.331 -0.3380  0.8159  2.0050
17225TIP3   OH273165   3.924   4.290  11.704 -0.2764  0.1121  0.4304
17225TIP3    H173166   4.016   4.288  11.732  0.0061  0.4879 -0.4036
17225TIP3    H273167   3.877   4.239  11.769  0.7500 -1.3454  0.0866
17226TIP3   OH273168   6.436   2.297   6.359  0.1977 -0.3140 -0.2979
17226TIP3    H173169   6.503   2.366   6.363  0.6366 -0.7660  0.5258
17226TIP3    H273170   6.389   2.305   6.442  1.0207 -1.7288  0.3512
17227TIP3   OH273171   0.667   0.142   0.683  0.2535  0.2088 -0.0536
17227TIP3    H173172   0.585   0.181   0.652  0.6124  2.3939  1.4821
17227TIP3    H273173   0.657   0.138   0.778  2.3619  1.8135  0.3191
17228TIP3   OH273174   1.775   1.363   5.883 -0.5193 -0.8229  0.3216
17228TIP3    H173175   1.732   1.372   5.798  1.6976  0.0531 -0.7696
17228TIP3    H273176   1.729   1.426   5.939 -0.3058  0.5384 -0.9713
17229TIP3   OH273177   4.562   1.948   3.719  0.5835  0.2825 -0.0526
17229TIP3    H173178   4.469   1.965   3.734  1.0903  1.7013  1.8088
17229TIP3    H273179   4.566   1.918   3.628 -1.5071  1.6591 -0.6797
17230TIP3   OH273180   0.382   6.288   1.575 -0.6760 -0.5643 -0.6182
17230TIP3    H173181   0.439   6.335   1.514  0.1199 -0.4610  0.1985
17230TIP3    H273182   0.397   6.330   1.660 -1.3366 -1.0926 -0.2284
17231TIP3   OH273183   0.044   3.535   4.794 -0.2836  0.2578 -0.1041
17231TIP3    H173184   0.110   3.601   4.774  0.9849 -1.3357 -1.5264
17231TIP3    H273185   0.094   3.460   4.827 -1.1817 -1.3735 -2.1915
17232TIP3   OH273186   2.710   6.710   5.418  0.4561 -0.1233  0.1264
17232TIP3    H173187   2.651   6.693   5.491  0.4304  3.3618  1.0809
17232TIP3    H273188   2.655   6.753   5.353  1.3351  0.4443 -0.2513
17233TIP3   OH273189   5.462   0.417   5.221  0.2024  0.1683 -0.1845
17233TIP3    H173190   5.556   0.403   5.233  0.1539 -0.0002  0.0067
17233TIP3    H273191   5.427   0.422   5.311 -0.4295 -2.7274 -0.1634
17234TIP3   OH273192   4.987   5.533  15.874  0.5269 -0.3205  0.2110
17234TIP3    H173193   5.010   5.608  15.929 -0.1900  0.1634 -0.1332
17234TIP3    H273194   5.030   5.458  15.916  0.7251  0.1796  0.9161
17235TIP3   OH273195   4.156   5.534  13.248  0.3218  0.1576  0.2940
17235TIP3    H173196   4.170   5.616  13.296 -0.6624  1.2137 -1.1314
17235TIP3    H273197   4.243   5.511  13.215  0.5241  0.9365  0.2530
17236TIP3   OH273198   2.827   1.014  12.464 -0.1626 -0.1252  0.1244
17236TIP3    H173199   2.857   1.027  12.374  0.5804  0.6541  0.4662
17236TIP3    H273200   2.908   1.002  12.514 -0.6152 -1.6868  0.5341
17237TIP3   OH273201   5.617   0.927  12.849  0.0020 -0.1687  0.1619
17237TIP3    H173202   5.585   0.838  12.865 -1.2622  0.4869  1.5206
17237TIP3    H273203   5.540   0.982  12.856  0.9524  1.1716  0.5648
17238TIP3   OH273204   3.689   1.097  12.438  0.0840  0.3711 -0.4560
17238TIP3    H173205   3.775   1.137  12.421 -0.1398  1.1093  0.1109
17238TIP3    H273206   3.691   1.016  12.388  2.4341 -1.3765  2.1457
17239TIP3   OH273207   1.955   6.242  15.124  0.1001 -0.8646  0.7618
17239TIP3    H173208   2.012   6.307  15.165  0.9547 -1.6379  0.8495
17239TIP3    H273209   1.879   6.291  15.093  1.2275  0.3514 -0.1695
17240TIP3   OH273210   2.800   6.698   0.911  0.4133  0.3753  0.1606
17240TIP3    H173211   2.708   6.722   0.911  0.3297  0.1148 -0.7289
17240TIP3    H273212   2.838   6.751   0.840  0.7256 -0.2946 -0.1772
17241TIP3   OH273213   2.053   1.085  16.024 -0.1684 -0.5065 -0.1476
17241TIP3    H173214   2.145   1.060  16.022 -0.2839 -1.0678  1.1226
17241TIP3    H273215   2.052   1.174  15.989  0.7407 -0.8005 -0.9508
17242TIP3   OH273216   0.838   1.430  13.249 -0.4280  0.1948  0.7067
17242TIP3    H173217   0.843   1.398  13.159 -0.8893 -0.5986  0.9435
17242TIP3    H273218   0.913   1.488  13.259 -0.0246 -0.1906 -0.0036
17243TIP3   OH273219   1.844   4.625   3.863  0.7127 -1.0105 -0.1268
17243TIP3    H173220   1.798   4.617   3.946 -1.1542  0.0483 -0.9916
17243TIP3    H273221   1.850   4.535   3.830  0.0201 -1.2626  0.4120
17244TIP3   OH273222   2.041   1.312   5.506 -0.2482  0.0912  0.2785
17244TIP3    H173223   1.979   1.385   5.507 -1.6779 -1.0743  0.8544
17244TIP3    H273224   2.109   1.337   5.568 -0.6214  1.0070  0.3286
17245TIP3   OH273225   4.320   5.548  12.149  0.1377  0.5098 -0.1074
17245TIP3    H173226   4.274   5.625  12.182  1.2397  0.4654  1.5850
17245TIP3    H273227   4.372   5.581  12.075 -1.5467  0.7977 -1.2356
17246TIP3   OH273228   4.564   3.160  13.722 -0.3234 -0.9671 -0.0364
17246TIP3    H173229   4.642   3.191  13.675 -0.5292 -1.5894 -0.8041
17246TIP3    H273230   4.562   3.214  13.802  0.2538 -0.1638 -0.5418
17247TIP3   OH273231   5.659   1.611   0.582  0.0570  0.3986  0.4833
17247TIP3    H173232   5.624   1.525   0.602  1.1565  0.0523  1.0002
17247TIP3    H273233   5.746   1.611   0.621  0.3896  1.4516 -0.2180
17248TIP3   OH273234   5.816   0.014   1.038  0.4701  0.0919  0.4611
17248TIP3    H173235   5.844  -0.075   1.057  0.2499  0.0475  0.5891
17248TIP3    H273236   5.722   0.015   1.059  0.4741  0.3566  0.4785
17249TIP3   OH273237   2.484   3.932  16.171  0.0058  0.2751  0.5254
17249TIP3    H173238   2.475   3.889  16.257 -0.4516 -0.9622 -0.1211
17249TIP3    H273239   2.426   4.008  16.176 -4.3191 -2.6490 -0.4396
17250TIP3   OH273240   3.845   3.634   0.167 -0.5648 -0.1860  0.0830
17250TIP3    H173241   3.935   3.625   0.196 -0.6521  1.8339  1.1330
17250TIP3    H273242   3.836   3.571   0.095  0.9698 -2.0829  1.4664
17251TIP3   OH273243   3.823   6.792   5.261  0.4620 -0.1889 -0.2920
17251TIP3    H173244   3.812   6.854   5.334  2.0861 -0.2538  0.0417
17251TIP3    H273245   3.769   6.828   5.191 -0.0184  0.6383  0.4760
17252TIP3   OH273246   6.186   2.022   0.118 -0.3527 -0.1250  0.9787
17252TIP3    H173247   6.126   2.094   0.101  0.1756  0.3364  1.0248
17252TIP3    H273248   6.131   1.951   0.150 -0.9308  0.1220  0.5431
17253TIP3   OH273249   4.854   1.797  10.965 -0.7299 -0.0816  0.4006
17253TIP3    H173250   4.931   1.846  10.935 -1.1936  1.3148  1.3846
17253TIP3    H273251   4.839   1.829  11.054 -1.3605 -1.6876  0.9000
17254TIP3   OH273252   5.646   5.955   0.396  0.2032  0.0669  0.1539
17254TIP3    H173253   5.576   6.019   0.415  0.9972  0.2755  2.7910
17254TIP3    H273254   5.616   5.910   0.317 -1.5883  1.9867 -0.3727
17255TIP3   OH273255   1.996   2.676  14.001  0.1438  0.2693 -0.1992
17255TIP3    H173256   1.971   2.585  14.014  1.0157  0.1345  0.6624
17255TIP3    H273257   1.987   2.716  14.087  1.1222  0.6388 -0.2497
17256TIP3   OH273258   4.178   5.457  11.940 -0.4140 -0.1754  0.4241
17256TIP3    H173259   4.163   5.481  12.031 -0.6707 -2.4499  1.0424
17256TIP3    H273260   4.271   5.474  11.925 -0.5128  0.8317  0.8834
17257TIP3   OH273261   4.243   6.590   2.204 -0.9388 -0.2296  0.2118
17257TIP3    H173262   4.239   6.656   2.135  0.4190 -1.0950 -0.7554
17257TIP3    H273263   4.159   6.545   2.200 -0.9420 -0.1462 -0.7580
17258TIP3   OH273264   2.349   5.801   6.523 -0.3349  0.4046  0.0727
17258TIP3    H173265   2.296   5.808   6.602 -0.1478 -0.2115  0.2545
17258TIP3    H273266   2.408   5.876   6.526 -1.1174  1.0439 -0.0803
17259TIP3   OH273267   5.204   1.683  16.942  0.4770  0.1330  0.0632
17259TIP3    H173268   5.297   1.679  16.963  0.8269  0.1066 -1.3948
17259TIP3    H273269   5.186   1.602  16.896  0.6455  1.6870 -2.9629
17260TIP3   OH273270   3.981   1.237  11.806 -0.1510 -0.0775  0.0333
17260TIP3    H173271   4.031   1.306  11.849 -2.5378  1.3634  0.6915
17260TIP3    H273272   3.994   1.252  11.712 -0.5687  1.2374  0.1741
17261TIP3   OH273273   0.146   6.056  12.675  0.0588 -0.1351 -0.2503
17261TIP3    H173274   0.180   6.127  12.621  3.4492 -0.5284  1.1223
17261TIP3    H273275   0.188   5.977  12.641  0.0775 -0.7683  1.1604
17262TIP3   OH273276   2.472   3.048   0.774  0.0565 -0.5729 -0.0944
17262TIP3    H173277   2.456   3.124   0.830  2.4663  0.5902 -0.8455
17262TIP3    H273278   2.433   3.071   0.690  1.0732  0.0032 -0.4182
17263TIP3   OH273279   5.365   1.839   0.892 -0.5846  0.3559 -0.0884
17263TIP3    H173280   5.436   1.776   0.885 -1.6574 -1.1666  1.8409
17263TIP3    H273281   5.403   1.913   0.940  0.5488  1.0404 -1.9543
17264TIP3   OH273282   2.431   2.980  16.195 -0.8511 -0.0796  0.5131
17264TIP3    H173283   2.424   2.985  16.099  0.8844  1.9695  0.4120
17264TIP3    H273284   2.507   2.925  16.210 -1.0387 -0.2857  0.7021
17265TIP3   OH273285   3.266   2.892   0.899 -0.6082  0.0423  0.5406
17265TIP3    H173286   3.346   2.931   0.934 -0.2666  1.1362 -1.3099
17265TIP3    H273287   3.271   2.907   0.805 -1.7838 -2.1569  0.0519
17266TIP3   OH273288   0.610   6.505   4.065  0.5181 -0.2127 -0.5435
17266TIP3    H173289   0.560   6.445   4.010  1.1684 -0.1956 -1.1768
17266TIP3    H273290   0.695   6.462   4.076  0.4678 -0.1143  0.2795
17267TIP3   OH273291   1.925   2.092  13.632  0.0794  0.0941 -0.0211
17267TIP3    H173292   1.981   2.021  13.601  0.1706 -0.6356  1.6747
17267TIP3    H273293   1.982   2.169  13.633  0.5676 -0.2622  0.0256
17268TIP3   OH273294   4.222   0.611   4.555  0.2408  0.0579  0.0516
17268TIP3    H173295   4.281   0.679   4.524  0.8521 -0.2951  0.4294
17268TIP3    H273296   4.244   0.533   4.503 -2.3462  0.7874 -2.4380
17269TIP3   OH273297   5.603   0.958   0.243 -0.2462  0.6801 -0.1163
17269TIP3    H173298   5.529   0.908   0.209  0.8242 -0.4040 -0.9503
17269TIP3    H273299   5.654   0.981   0.165  0.7093  0.7065  0.5046
17270TIP3   OH273300   1.741   2.218   3.077 -0.2882 -0.1553 -0.1452
17270TIP3    H173301   1.806   2.269   3.125 -0.4167  0.0711 -0.2105
17270TIP3    H273302   1.772   2.127   3.083 -0.5822 -0.1973  0.8038
17271TIP3   OH273303   2.250   1.218   4.799 -0.1381 -0.0308 -0.6008
17271TIP3    H173304   2.222   1.140   4.847  0.8972 -1.6088 -2.4317
17271TIP3    H273305   2.325   1.251   4.848 -1.2894  0.6010  0.8525
17272TIP3   OH273306   5.835   2.604  16.973 -0.2807 -0.4386 -0.3269
17272TIP3    H173307   5.883   2.652  16.906  1.0093  1.9030  2.1165
17272TIP3    H273308   5.900   2.544  17.011 -0.5322 -0.5355 -0.0443
17273TIP3   OH273309   4.200   1.352  12.538 -0.1797  0.4861  0.6343
17273TIP3    H173310   4.251   1.432  12.531 -2.1943  1.9019  1.3663
17273TIP3    H273311   4.143   1.366  12.613  0.2644 -2.1741  1.5806
17274TIP3   OH273312   5.685   6.019  16.160 -0.6088 -0.2007 -0.1890
17274TIP3    H173313   5.668   6.043  16.068  0.3562 -0.0457 -0.3335
17274TIP3    H273314   5.598   6.021  16.201 -0.9242  0.7962 -0.8464
17275TIP3   OH273315   4.728   2.673   3.895 -0.2036  0.1091  0.1006
17275TIP3    H173316   4.675   2.600   3.863 -1.0331  0.0293  1.5347
17275TIP3    H273317   4.804   2.631   3.936  0.4907  0.1772 -1.0876
17276TIP3   OH273318   0.197   2.121  11.545  0.0163  0.3456 -0.4406
17276TIP3    H173319   0.274   2.068  11.564 -0.5244 -0.5697 -0.7495
17276TIP3    H273320   0.230   2.193  11.492  1.4168  2.4170  2.8850
17277TIP3   OH273321   0.486   1.991  17.256 -0.4678  0.3877  0.0746
17277TIP3    H173322   0.420   1.970  17.321 -1.0538  0.5059 -0.4743
17277TIP3    H273323   0.531   1.907  17.241  0.9807  0.7402  2.0214
17278TIP3   OH273324   2.996   4.982  13.721  0.4964  0.3906 -0.4839
17278TIP3    H173325   3.018   5.031  13.641  1.1813 -0.7909 -1.0317
17278TIP3    H273326   2.905   5.007  13.739 -0.6636 -1.4345 -3.2475
17279TIP3   OH273327   4.515   1.070  10.537  0.2554 -0.1267  0.4057
17279TIP3    H173328   4.566   1.022  10.602  0.0980  0.2035  0.7748
17279TIP3    H273329   4.578   1.131  10.498 -0.2661  1.6626  2.2255
17280TIP3   OH273330   5.171   1.656  14.959  0.2343 -0.5463  0.4022
17280TIP3    H173331   5.204   1.614  14.880  1.1954  0.9041 -0.0182
17280TIP3    H273332   5.090   1.698  14.932  1.5434  1.6285 -0.4164
17281TIP3   OH273333   2.651   3.363  14.530 -0.1334  0.0293  0.4103
17281TIP3    H173334   2.568   3.410  14.517  0.2191  0.4166 -0.5171
17281TIP3    H273335   2.718   3.428  14.515  0.3547 -0.1392  1.7570
17282TIP3   OH273336   2.924   2.341   5.680  0.3686 -0.4814  0.0437
17282TIP3    H173337   2.965   2.312   5.761 -0.2213 -3.5317 -0.6118
17282TIP3    H273338   2.949   2.274   5.616 -3.8755 -1.4480 -0.8768
17283TIP3   OH273339   2.324   0.587  15.257  0.1965  0.0127 -0.4524
17283TIP3    H173340   2.395   0.649  15.238 -1.3052  1.1284 -2.9045
17283TIP3    H273341   2.284   0.622  15.337  0.6842  0.9652 -0.6024
17284TIP3   OH273342   5.280   5.800  15.372  0.1726  0.0920  0.4613
17284TIP3    H173343   5.231   5.834  15.447 -1.9463 -0.8828 -0.4022
17284TIP3    H273344   5.223   5.733  15.334  1.1478  0.5508 -2.0358
17285TIP3   OH273345   2.313   6.047  15.982  0.2121  0.1354  0.2509
17285TIP3    H173346   2.339   5.972  15.930 -1.5506  0.8075 -1.7204
17285TIP3    H273347   2.349   6.123  15.936 -0.1581  0.6536  0.7890
17286TIP3   OH273348   1.990   2.521  14.349 -0.3676  0.1298 -0.2595
17286TIP3    H173349   1.951   2.522  14.436  1.9497  1.0449  0.8304
17286TIP3    H273350   1.986   2.611  14.318  1.2540  0.3592  0.0968
17287TIP3   OH273351   1.668   1.979  12.421  0.2459 -0.1111 -0.4975
17287TIP3    H173352   1.596   1.941  12.471  0.3537  0.3843  0.0420
17287TIP3    H273353   1.652   1.951  12.330  0.7441 -2.0988 -0.0261
17288TIP3   OH273354   0.930   6.070   0.057 -0.5381 -0.2974 -0.1765
17288TIP3    H173355   1.002   6.081  -0.005 -1.0425  0.8305 -0.6038
17288TIP3    H273356   0.952   5.992   0.108  0.8929 -0.0664 -0.4147
17289TIP3   OH273357   6.730   3.925  12.392  0.3485 -0.1525  0.1374
17289TIP3    H173358   6.642   3.897  12.418  0.3168 -0.5800 -0.4146
17289TIP3    H273359   6.785   3.849  12.408  0.1736 -0.7537 -1.8690
17290TIP3   OH273360   4.742   2.543   2.763  0.6119 -0.6660  0.1751
17290TIP3    H173361   4.656   2.539   2.805  0.7471  0.8303  0.6422
17290TIP3    H273362   4.803   2.517   2.832  0.5426 -2.1280 -0.2682
17291TIP3   OH273363   2.253   4.258   2.111 -0.1909 -0.0292 -0.1493
17291TIP3    H173364   2.206   4.176   2.122 -3.1332  1.5593  0.0619
17291TIP3    H273365   2.308   4.244   2.034 -0.6049 -2.1685 -0.1086
17292TIP3   OH273366   2.914   0.519   3.876  0.2298 -0.4962  0.1229
17292TIP3    H173367   2.825   0.554   3.881 -0.3290 -1.8500  0.1817
17292TIP3    H273368   2.970   0.592   3.903 -0.7386  0.7947 -1.1676
17293TIP3   OH273369   0.687   0.052   4.942 -0.6048 -0.0901 -0.1816
17293TIP3    H173370   0.727   0.049   4.855  0.3914 -0.3190  0.2716
17293TIP3    H273371   0.760   0.071   5.001 -1.2511 -0.0558  0.6227
17294TIP3   OH273372   1.518   1.322  16.297  0.4282 -0.6558  0.0650
17294TIP3    H173373   1.598   1.275  16.273  1.7719  0.7918  1.4847
17294TIP3    H273374   1.549   1.401  16.343 -1.7214  1.3551 -1.6829
17295TIP3   OH273375   6.358   0.585  10.939  0.1459 -0.6378  0.4330
17295TIP3    H173376   6.279   0.578  10.886  0.8815  0.5209 -0.8967
17295TIP3    H273377   6.409   0.508  10.917  0.6889  0.1012 -1.0270
17296TIP3   OH273378   6.314   0.949   5.750  0.5026 -0.3369 -0.4536
17296TIP3    H173379   6.249   1.015   5.727 -0.2729 -1.0359 -0.3305
17296TIP3    H273380   6.387   0.998   5.788 -0.6787  0.3376  1.0380
17297TIP3   OH273381   1.075   6.355  12.951  0.2648  0.6180  0.4219
17297TIP3    H173382   1.086   6.278  12.896 -0.3853 -0.2684  1.4958
17297TIP3    H273383   0.987   6.346  12.988 -0.5218  2.7486 -0.7446
17298TIP3   OH273384   4.244   6.414  11.361 -0.4947 -0.2056  0.1758
17298TIP3    H173385   4.204   6.332  11.332 -1.4644 -0.6810  2.6407
17298TIP3    H273386   4.171   6.477  11.363 -0.5022 -0.2293  1.6213
17299TIP3   OH273387   5.981   2.652   5.432 -1.0035 -0.5476 -0.3612
17299TIP3    H173388   6.074   2.667   5.412 -0.3117 -2.3370  1.1533
17299TIP3    H273389   5.946   2.738   5.453  0.6051  0.0284  0.1071
17300TIP3   OH273390   6.353   1.368  13.921 -0.4950 -0.0779  0.0182
17300TIP3    H173391   6.330   1.311  13.994 -0.2903  1.2376  1.1446
17300TIP3    H273392   6.273   1.416  13.901 -0.3257  0.1962 -0.0211
17301TIP3   OH273393   1.176   5.337  17.133  0.1550  0.1430  0.4220
17301TIP3    H173394   1.270   5.346  17.116  0.3613 -1.6484  0.3401
17301TIP3    H273395   1.140   5.310  17.049 -0.6270  1.7584  0.2049
17302TIP3   OH273396   6.471   2.407  11.833 -0.0136  0.4051 -0.3496
17302TIP3    H173397   6.524   2.442  11.906  2.6707 -1.5634 -1.2150
17302TIP3    H273398   6.458   2.483  11.776  3.2304  0.7573 -0.8103
17303TIP3   OH273399   1.299   1.823   7.121 -0.3689  0.5508 -0.3015
17303TIP3    H173400   1.310   1.881   7.046 -1.9806  0.7150 -0.4567
17303TIP3    H273401   1.353   1.862   7.190  0.9950  0.4906 -1.2969
17304TIP3   OH273402   5.252   1.563   1.156 -0.3876  0.1799  0.2569
17304TIP3    H173403   5.165   1.567   1.195  0.1233  0.4945  1.3788
17304TIP3    H273404   5.292   1.648   1.175  0.1908  0.0180 -0.1894
17305TIP3   OH273405   2.396   5.154  13.172  0.3142  0.3388 -0.3842
17305TIP3    H173406   2.424   5.136  13.082  0.8264  0.9781 -0.3607
17305TIP3    H273407   2.432   5.241  13.191 -0.3697  0.5021  0.2002
17306TIP3   OH273408   5.062   3.278  11.589  0.3278  0.0436  0.0681
17306TIP3    H173409   4.990   3.341  11.590  1.8110  1.9550 -1.9165
17306TIP3    H273410   5.055   3.235  11.504  2.1018  1.0944 -0.6663
17307TIP3   OH273411   2.829   5.517   5.820 -1.5515  0.2685 -0.2583
17307TIP3    H173412   2.762   5.462   5.781 -2.1583  2.2456 -2.2057
17307TIP3    H273413   2.804   5.606   5.796  1.3856  1.1385 -0.4941
17308TIP3   OH273414   0.367   3.578  12.126  0.4056  0.0451 -1.1650
17308TIP3    H173415   0.353   3.502  12.070 -0.5413 -0.4873 -0.2416
17308TIP3    H273416   0.462   3.595  12.121  0.4015 -0.2476 -2.5492
17309TIP3   OH273417   0.251   0.990   0.963 -0.5120 -0.4787 -0.1909
17309TIP3    H173418   0.288   0.903   0.980 -0.1610 -0.4488 -0.7773
17309TIP3    H273419   0.295   1.047   1.026  0.0689 -0.5351 -0.5426
17310TIP3   OH273420   6.563   5.628   4.876  0.1959 -0.5510  0.7777
17310TIP3    H173421   6.474   5.607   4.846  0.3561  0.5442 -0.5905
17310TIP3    H273422   6.619   5.602   4.803  0.9480 -0.6926  1.3971
17311TIP3   OH273423   3.592   2.047   2.252 -0.2007  0.4237  0.5491
17311TIP3    H173424   3.682   2.021   2.236  0.0657  1.0246  1.0075
17311TIP3    H273425   3.599   2.126   2.307 -1.0172 -0.6386  2.2780
17312TIP3   OH273426   3.915   2.650   4.050 -0.4648  0.6417  0.3058
17312TIP3    H173427   3.916   2.599   4.131  2.2406  0.1747  0.0722
17312TIP3    H273428   3.869   2.595   3.987 -1.8563  0.6477  1.2668
17313TIP3   OH273429   3.009   2.551   3.516  0.0328  0.1928  0.4206
17313TIP3    H173430   3.083   2.492   3.499  0.4443  0.3874  1.4335
17313TIP3    H273431   2.940   2.493   3.548  0.3373  0.2069  1.1285
17314TIP3   OH273432   3.584   3.572   2.634  0.1142 -0.7633 -0.1964
17314TIP3    H173433   3.494   3.555   2.660 -0.0663 -0.2330 -0.4414
17314TIP3    H273434   3.623   3.486   2.624  0.2442 -1.0103  1.9303
17315TIP3   OH273435   3.384   5.582  16.678 -0.0099  0.1323 -0.3978
17315TIP3    H173436   3.404   5.500  16.634  1.1766  0.1647  0.0456
17315TIP3    H273437   3.314   5.560  16.740  1.3756 -0.9381  0.8628
17316TIP3   OH273438   3.124   2.746  11.355  0.9899 -0.0601  0.4359
17316TIP3    H173439   3.033   2.743  11.385 -0.5982  1.3638 -3.5999
17316TIP3    H273440   3.159   2.827  11.394 -0.9942  1.7864 -1.3567
17317TIP3   OH273441   1.798   3.485  13.781 -0.1241  0.2600  0.2724
17317TIP3    H173442   1.886   3.479  13.818 -0.7798 -0.8038  1.7529
17317TIP3    H273443   1.786   3.578  13.763  1.5865  0.3300 -0.7245
17318TIP3   OH273444   5.202   6.060  14.055 -0.4123  0.4829  0.3358
17318TIP3    H173445   5.180   5.976  14.095 -1.2924  0.9120  0.7756
17318TIP3    H273446   5.273   6.039  13.993 -1.8011 -0.9188 -0.8849
17319TIP3   OH273447   1.328   5.952  15.948  0.0467 -0.3972  0.1093
17319TIP3    H173448   1.337   6.040  15.984  0.4250 -0.7307  0.8433
17319TIP3    H273449   1.274   5.964  15.870  1.0982  0.6565 -0.4835
17320TIP3   OH273450   5.464   3.564   4.149  0.3331 -0.5327 -0.2883
17320TIP3    H173451   5.457   3.647   4.196 -1.2714 -0.2719 -0.8878
17320TIP3    H273452   5.472   3.498   4.218 -1.2713 -0.1028  0.3687
17321TIP3   OH273453   5.473   2.639   5.895 -0.1185  0.4276  0.0696
17321TIP3    H173454   5.388   2.675   5.921  0.0428 -0.3554  1.8096
17321TIP3    H273455   5.508   2.703   5.833 -2.6022  0.0580 -1.8944
17322TIP3   OH273456   6.684   0.247  17.138 -0.1389 -0.1190 -0.0929
17322TIP3    H173457   6.643   0.255  17.052 -1.5950 -0.3360  0.5527
17322TIP3    H273458   6.777   0.230  17.119 -0.3227  0.4138 -1.5940
17323TIP3   OH273459   0.513   3.981  12.190 -0.2136 -0.6763  0.0368
17323TIP3    H173460   0.502   4.020  12.103 -0.7661 -0.1282  0.3391
17323TIP3    H273461   0.489   4.052  12.250 -1.9515 -1.6793  0.6034
17324TIP3   OH273462   3.067   3.980   6.032  0.8202 -0.6258 -0.2502
17324TIP3    H173463   3.094   4.048   6.093 -1.6712 -1.5253  2.0408
17324TIP3    H273464   3.009   4.024   5.970 -0.1252 -0.4579  0.7263
17325TIP3   OH273465   4.279   4.736   3.787  0.3562 -0.5039 -0.0118
17325TIP3    H173466   4.325   4.668   3.737  0.1504 -0.6587  0.0072
17325TIP3    H273467   4.244   4.795   3.721 -0.2607 -0.9298 -0.0772
17326TIP3   OH273468   5.264   2.757   0.154 -0.2722  0.1502 -0.5266
17326TIP3    H173469   5.360   2.754   0.159 -0.2119  1.6268 -0.2945
17326TIP3    H273470   5.242   2.696   0.084  0.7802 -0.7579 -0.1114
17327TIP3   OH273471   6.705   1.782  14.681 -0.8626 -0.5025  0.2981
17327TIP3    H173472   6.752   1.818  14.605 -0.3257  0.4388  1.0574
17327TIP3    H273473   6.630   1.840  14.692 -1.4453 -1.1779 -0.0549
17328TIP3   OH273474   4.553   1.462   4.620 -0.2658 -0.7294 -0.1653
17328TIP3    H173475   4.541   1.476   4.526  0.7290 -1.4559 -0.4256
17328TIP3    H273476   4.644   1.487   4.636 -0.4981 -0.3769  0.6638
17329TIP3   OH273477   5.851   1.123   5.640 -0.3158 -0.2150  0.1264
17329TIP3    H173478   5.784   1.184   5.670  1.7433  1.4856  1.5106
17329TIP3    H273479   5.866   1.065   5.714  1.5032  1.0611  0.8228
17330TIP3   OH273480   5.064   1.249  14.613 -0.4467 -0.2442 -0.7900
17330TIP3    H173481   5.000   1.185  14.645  0.1447 -1.4985 -1.9838
17330TIP3    H273482   5.016   1.301  14.549 -0.9455  0.5803  0.2233
17331TIP3   OH273483   5.721   1.300  14.321 -0.0581 -0.2056 -0.5351
17331TIP3    H173484   5.806   1.257  14.323  0.6425  1.1285  1.4445
17331TIP3    H273485   5.678   1.266  14.242  0.8214 -3.6915  0.3101
17332TIP3   OH273486   0.194   6.494  11.707 -0.2867  0.1442  0.6118
17332TIP3    H173487   0.101   6.506  11.721 -0.3225  1.3047 -0.5165
17332TIP3    H273488   0.201   6.459  11.618  0.1567 -3.7219  1.9404
17333TIP3   OH273489   1.115   0.252   4.849  0.2792 -0.7171  0.0261
17333TIP3    H173490   1.105   0.165   4.888 -0.3558 -2.2394 -3.1565
17333TIP3    H273491   1.026   0.287   4.845  0.5340  0.1516  1.3082
17334TIP3   OH273492   1.046   4.859   3.049  0.2709 -0.5052  0.2387
17334TIP3    H173493   0.953   4.844   3.037  0.2920 -3.4887  2.4476
17334TIP3    H273494   1.087   4.816   2.974 -0.1082 -1.2129  0.4234
17335TIP3   OH273495   4.202   1.626  10.377 -0.0999 -0.4964  0.2066
17335TIP3    H173496   4.269   1.662  10.435 -1.0458 -0.1941  1.1435
17335TIP3    H273497   4.230   1.535  10.363  0.9250 -0.1557 -0.0777
17336TIP3   OH273498   3.394   2.388  13.328 -0.5849 -0.4143 -0.2605
17336TIP3    H173499   3.352   2.306  13.302  1.8995 -2.0471  0.6245
17336TIP3    H273500   3.364   2.403  13.418 -0.4680 -0.7307 -0.1703
17337TIP3   OH273501   0.200   2.914   0.905 -0.9179 -0.5119 -0.0571
17337TIP3    H173502   0.237   2.832   0.870  0.1795  0.3586 -1.0282
17337TIP3    H273503   0.110   2.891   0.928 -0.2617 -2.3210  0.9440
17338TIP3   OH273504   0.385   5.494  13.195 -0.5124  0.5408 -0.4829
17338TIP3    H173505   0.413   5.403  13.203  1.3749  1.1428  0.1595
17338TIP3    H273506   0.381   5.511  13.101  1.0787  0.3391 -0.6047
17339TIP3   OH273507   3.420   1.592  15.669  0.4172  0.0277 -0.5426
17339TIP3    H173508   3.509   1.571  15.695  1.3608  0.8402 -2.8196
17339TIP3    H273509   3.430   1.659  15.601 -2.0342  1.5920  0.4958
17340TIP3   OH273510   3.871   4.844  12.231 -0.0231 -0.3402 -0.1756
17340TIP3    H173511   3.878   4.934  12.198  0.4755  0.5976  2.2455
17340TIP3    H273512   3.777   4.830  12.241 -0.2664 -0.9752 -2.5929
17341TIP3   OH273513   0.921   1.734   4.800  1.2092 -0.0662  0.0694
17341TIP3    H173514   1.007   1.732   4.757  1.0813  1.4783 -0.3126
17341TIP3    H273515   0.859   1.755   4.730  0.2028 -2.9000 -0.0271
17342TIP3   OH273516   4.372   3.516  13.039  0.3348 -0.1682 -0.5233
17342TIP3    H173517   4.393   3.518  12.946  1.2410 -0.7828 -0.3433
17342TIP3    H273518   4.342   3.605  13.058  0.0076 -0.0745 -1.4225
17343TIP3   OH273519   0.561   3.640   0.099  0.2584 -0.3225  0.2393
17343TIP3    H173520   0.640   3.594   0.128 -0.3183 -1.3878  0.1613
17343TIP3    H273521   0.593   3.724   0.066  1.3257 -0.6281  0.4600
17344TIP3   OH273522   3.153   4.166   1.390 -0.5756 -0.0146  0.6206
17344TIP3    H173523   3.069   4.190   1.351 -0.1210  1.1862  0.3341
17344TIP3    H273524   3.153   4.207   1.476 -0.0902  0.4386  0.4161
17345TIP3   OH273525   3.108   5.582   3.864 -0.4311 -0.2703 -0.2704
17345TIP3    H173526   3.074   5.670   3.879  0.8241  0.2977 -0.6395
17345TIP3    H273527   3.181   5.574   3.925  1.0044 -0.1265 -1.8998
17346TIP3   OH273528   0.982   4.175   2.208 -0.6319  0.4685  0.4237
17346TIP3    H173529   0.978   4.100   2.268 -1.5807  1.5559  1.7607
17346TIP3    H273530   1.036   4.143   2.135  0.8458 -0.8003  1.9745
17347TIP3   OH273531   2.918   6.012   4.582 -0.4388  0.9636  0.5309
17347TIP3    H173532   2.944   5.920   4.582  0.8942  1.3275  0.0739
17347TIP3    H273533   2.844   6.016   4.643 -0.2910 -0.3417  0.8186
17348TIP3   OH273534   3.868   3.263  13.183 -0.0778 -0.4537  0.9003
17348TIP3    H173535   3.962   3.251  13.194  0.1471  0.3784 -0.0186
17348TIP3    H273536   3.854   3.356  13.199 -0.1935  0.1946 -2.3886
17349TIP3   OH273537   0.124   6.719  12.826 -0.1638 -0.6598  0.0638
17349TIP3    H173538   0.096   6.809  12.837  0.6808 -0.6852  3.4760
17349TIP3    H273539   0.218   6.724  12.809 -0.0981 -0.9000  0.3410
17350TIP3   OH273540   0.197   4.839  11.617 -0.3469 -0.2105  0.1343
17350TIP3    H173541   0.196   4.796  11.532 -1.7096 -1.9351  0.9521
17350TIP3    H273542   0.275   4.804  11.660 -0.1917 -0.0892 -0.0475
17351TIP3   OH273543   4.324   6.666   3.740 -0.4607 -0.3976  0.1551
17351TIP3    H173544   4.315   6.580   3.699  2.6846 -0.2359 -1.0818
17351TIP3    H273545   4.315   6.728   3.667  3.0904 -0.0167 -0.0906
17352TIP3   OH273546   4.175   0.899   1.051  0.0449  0.0691  0.0297
17352TIP3    H173547   4.096   0.925   1.002 -0.2072 -1.7239 -0.5803
17352TIP3    H273548   4.247   0.920   0.991 -0.0181  0.8024  0.1950
17353TIP3   OH273549   6.585   4.230  11.657 -0.0478 -0.0574  0.3609
17353TIP3    H173550   6.581   4.183  11.741  0.5912  0.1365  0.5046
17353TIP3    H273551   6.499   4.215  11.617 -0.7442  0.6786  1.5043
17354TIP3   OH273552   1.937   0.321  15.973  0.1815  0.0192  0.3871
17354TIP3    H173553   1.910   0.268  15.898  0.0528  0.8464 -0.1636
17354TIP3    H273554   1.993   0.263  16.025 -1.2800 -1.2015  0.6864
17355TIP3   OH273555   5.416   1.074  16.077 -0.1229  0.6722  0.0622
17355TIP3    H173556   5.509   1.096  16.082  0.2723 -0.7495 -0.5467
17355TIP3    H273557   5.411   0.981  16.100 -1.2710  0.4911 -0.7961
17356TIP3   OH273558   1.264   0.431   0.930 -0.2222 -0.3981  0.5761
17356TIP3    H173559   1.232   0.344   0.953 -0.6415 -0.9317 -1.7595
17356TIP3    H273560   1.354   0.433   0.964  0.0870 -2.0807 -0.0033
17357TIP3   OH273561   0.388   2.277  15.535 -0.0182 -0.1538 -0.2876
17357TIP3    H173562   0.412   2.287  15.443  2.0195  0.8598  0.2782
17357TIP3    H273563   0.454   2.218  15.571  0.6919  1.3574  1.0058
17358TIP3   OH273564   4.864   4.044   1.814 -0.0171 -0.5776  0.2601
17358TIP3    H173565   4.863   4.012   1.724 -1.5495 -0.3538  0.1791
17358TIP3    H273566   4.957   4.043   1.838  0.3850 -0.9780 -1.1898
17359TIP3   OH273567   4.135   6.650  16.510  0.0777  0.2041  0.3718
17359TIP3    H173568   4.079   6.725  16.489  0.5038 -0.0616 -2.0636
17359TIP3    H273569   4.119   6.588  16.438  0.5247 -1.5968  1.7637
17360TIP3   OH273570   3.086   4.914  12.855  0.2009 -0.3487 -0.1984
17360TIP3    H173571   3.011   4.950  12.807  0.0652  0.2862  0.4549
17360TIP3    H273572   3.162   4.956  12.816  0.2252 -1.0127 -0.8795
17361TIP3   OH273573   4.767   0.639  17.109 -0.0725  0.2584 -0.4834
17361TIP3    H173574   4.857   0.660  17.087  0.3821 -0.9692  0.1186
17361TIP3    H273575   4.739   0.710  17.167 -0.5392  2.3038 -3.0040
17362TIP3   OH273576   2.000   1.905  13.941  0.2417 -0.1997  0.0863
17362TIP3    H173577   1.994   1.977  14.004 -0.5384 -0.8888  0.8205
17362TIP3    H273578   2.088   1.913  13.904  0.4000  0.7367  0.6258
17363TIP3   OH273579   6.431   5.199  13.882  0.0953 -0.2041  0.0263
17363TIP3    H173580   6.361   5.262  13.895 -1.7842 -2.3094  0.6295
17363TIP3    H273581   6.459   5.211  13.791 -0.9539  0.7624 -0.1742
17364TIP3   OH273582   3.046   2.201   5.294 -0.0100  0.0706  0.2913
17364TIP3    H173583   3.123   2.211   5.238 -0.1577  1.3057  0.2729
17364TIP3    H273584   3.082   2.194   5.383  0.1793 -0.9522  0.1486
17365TIP3   OH273585   5.790   4.250  15.614  0.6000  0.2461 -0.2455
17365TIP3    H173586   5.815   4.312  15.682 -0.6952  1.4765 -0.8417
17365TIP3    H273587   5.783   4.304  15.535 -2.3826 -0.2548 -0.4219
17366TIP3   OH273588   2.073   4.454   1.410  0.2041 -0.5847 -0.1820
17366TIP3    H173589   2.026   4.534   1.387 -1.9657 -1.1689  1.8437
17366TIP3    H273590   2.124   4.477   1.487 -0.1626 -1.0577  0.2078
17367TIP3   OH273591   2.338   3.638  11.086  0.8938 -0.3279 -0.0639
17367TIP3    H173592   2.333   3.720  11.135  2.4851 -1.2592  1.7878
17367TIP3    H273593   2.247   3.608  11.081  0.6385 -0.0990  2.2357
17368TIP3   OH273594   1.615   0.904   0.376  0.3583  0.2583  0.1987
17368TIP3    H173595   1.617   0.990   0.335 -0.3778 -0.6363 -1.8450
17368TIP3    H273596   1.696   0.861   0.347 -0.6963 -0.7866 -1.3232
17369TIP3   OH273597   5.515   4.371   1.108 -0.4952  0.0246 -0.4628
17369TIP3    H173598   5.454   4.441   1.129 -0.5790  0.1495 -1.1149
17369TIP3    H273599   5.472   4.321   1.039 -0.7258 -1.0625  0.4377
17370TIP3   OH273600   5.924   4.242  15.167 -0.2365  0.7901 -0.1744
17370TIP3    H173601   5.839   4.272  15.135 -0.0154  1.1273 -0.4475
17370TIP3    H273602   5.974   4.322  15.179  0.2581  0.5503 -0.6184
17371TIP3   OH273603   3.077   2.831  14.930 -0.3900 -0.0063  0.4549
17371TIP3    H173604   2.998   2.815  14.982  1.4853 -0.2712  3.5326
17371TIP3    H273605   3.142   2.859  14.995  2.2690 -0.5883 -1.7880
17372TIP3   OH273606   5.958   1.046  16.580  0.3346 -0.5833 -0.5037
17372TIP3    H173607   5.969   1.000  16.663 -2.7163  1.0047  0.9337
17372TIP3    H273608   5.997   1.132  16.594  2.4933 -1.2558 -1.8439
17373TIP3   OH273609   2.993   2.364  16.427 -0.2253 -0.5179  0.0492
17373TIP3    H173610   2.989   2.454  16.393 -1.2412 -0.2738  0.7594
17373TIP3    H273611   2.905   2.347  16.460 -0.2532 -2.0637 -0.7569
17374TIP3   OH273612   2.869   2.790  13.020 -0.0727  0.0970 -0.3291
17374TIP3    H173613   2.801   2.735  13.059  0.5517 -0.2176  0.3159
17374TIP3    H273614   2.824   2.835  12.948 -0.4294 -1.7396 -1.2918
17375TIP3   OH273615   2.122   4.268  13.119 -0.5314 -0.0051  0.1200
17375TIP3    H173616   2.126   4.356  13.157  0.4641  0.3322 -0.6866
17375TIP3    H273617   2.047   4.271  13.060 -1.5051 -0.2366  1.3225
17376TIP3   OH273618   2.874   5.187  14.415  0.6492  0.5792  0.6166
17376TIP3    H173619   2.813   5.256  14.442  0.2765  0.1681  0.8424
17376TIP3    H273620   2.929   5.228  14.348 -0.5182  0.6847 -0.3169
17377TIP3   OH273621   6.572   3.357   2.629 -1.1548 -0.5168 -0.1336
17377TIP3    H173622   6.622   3.436   2.645 -2.3863  0.5269 -1.2432
17377TIP3    H273623   6.585   3.338   2.536 -0.7237 -1.7405  0.1551
17378TIP3   OH273624   5.492   0.193   5.007  0.2593 -0.4141  0.6526
17378TIP3    H173625   5.564   0.178   5.068 -1.0174 -1.7945  1.9063
17378TIP3    H273626   5.497   0.287   4.987  2.4803 -0.5041  0.5420
17379TIP3   OH273627   1.508   3.920  12.794  0.1326 -0.5288  0.0777
17379TIP3    H173628   1.450   3.870  12.735  0.8133 -1.5017  0.2081
17379TIP3    H273629   1.481   4.011  12.782  0.6650 -0.6162 -2.2412
17380TIP3   OH273630   6.581   1.045  13.920 -0.4031  0.1269 -0.7118
17380TIP3    H173631   6.532   1.047  13.838 -0.7646 -0.4914 -0.5117
17380TIP3    H273632   6.515   1.040  13.989 -0.0735 -0.5160 -0.4279
17381TIP3   OH273633   6.789   2.192   3.132  0.2877  0.1716  0.3170
17381TIP3    H173634   6.875   2.181   3.172  0.5552 -0.2746 -0.3532
17381TIP3    H273635   6.788   2.282   3.100  0.4588  0.2155  0.4358
17382TIP3   OH273636   5.738   0.842  13.216  0.1087 -0.1475  0.2366
17382TIP3    H173637   5.680   0.909  13.180 -0.5922 -1.5758 -1.4114
17382TIP3    H273638   5.702   0.823  13.303  0.3936  1.6534  0.7909
17383TIP3   OH273639   4.308   2.101   0.186 -0.2394  0.2059 -0.8241
17383TIP3    H173640   4.311   2.128   0.278 -1.1556 -0.5534 -0.5478
17383TIP3    H273641   4.250   2.164   0.144 -2.4472 -1.2863 -0.1635
17384TIP3   OH273642   4.987   4.279   2.631 -0.3261  0.7739 -0.0584
17384TIP3    H173643   4.911   4.226   2.606  0.5029 -0.5633  0.1880
17384TIP3    H273644   4.985   4.353   2.570  0.4136 -1.2690 -2.7824
17385TIP3   OH273645   5.373   3.365  15.277  0.2493 -0.1433 -0.5072
17385TIP3    H173646   5.418   3.286  15.307  1.3019  1.2188  1.8632
17385TIP3    H273647   5.413   3.385  15.193  1.2396 -1.1642 -0.3064
17386TIP3   OH273648   3.774   0.779   1.587 -0.5561 -0.1664 -0.0736
17386TIP3    H173649   3.808   0.843   1.524 -0.1640 -1.2321 -0.9909
17386TIP3    H273650   3.852   0.735   1.620 -0.8192 -0.1321  0.5961
17387TIP3   OH273651   2.463   1.286  14.985  0.2920 -0.0606 -0.0773
17387TIP3    H173652   2.443   1.367  14.939 -0.7505 -0.1264  0.2412
17387TIP3    H273653   2.533   1.310  15.047  0.1828  0.5224 -0.1747
17388TIP3   OH273654   2.089   5.618   0.438  0.5615  0.0268 -0.0102
17388TIP3    H173655   2.044   5.580   0.363  0.2102  1.9270 -0.8257
17388TIP3    H273656   2.180   5.593   0.426  0.2392 -1.2457 -0.0301
17389TIP3   OH273657   2.391   0.930  12.121 -0.3852 -0.1826 -0.3510
17389TIP3    H173658   2.383   1.006  12.178 -2.4293 -0.3960 -0.2586
17389TIP3    H273659   2.411   0.966  12.035 -0.0237  0.3531 -0.0466
17390TIP3   OH273660   0.149   6.536   2.026  0.1284 -0.3253  0.4327
17390TIP3    H173661   0.107   6.520   1.941 -1.5555  1.1079  0.9149
17390TIP3    H273662   0.133   6.456   2.076 -2.2988  0.2060  0.6352
17391TIP3   OH273663   0.863   6.382   1.106  0.5486  0.0562  0.3497
17391TIP3    H173664   0.905   6.370   1.021  1.9831  0.0004  1.0401
17391TIP3    H273665   0.911   6.325   1.166 -2.0720 -1.8960  0.7580
17392TIP3   OH273666   2.323   6.735   1.311 -0.1053  0.3542 -0.3042
17392TIP3    H173667   2.292   6.657   1.357 -0.6520  1.1628  0.7282
17392TIP3    H273668   2.384   6.701   1.245 -0.0890 -0.9150  0.3310
17393TIP3   OH273669   6.659   6.342  14.834 -0.1688 -0.0945  0.2859
17393TIP3    H173670   6.671   6.385  14.749 -1.4461 -2.0448 -0.9531
17393TIP3    H273671   6.656   6.414  14.896 -1.0132  1.5347 -1.5232
17394TIP3   OH273672   2.476   5.436   5.202  0.3905  0.2005 -0.0966
17394TIP3    H173673   2.454   5.393   5.285 -0.6410  1.2637  0.2131
17394TIP3    H273674   2.529   5.511   5.226 -0.5993  0.9880 -0.2965
17395TIP3   OH273675   1.373   5.927   2.462  0.2242  0.1332  0.1944
17395TIP3    H173676   1.330   5.870   2.399  0.9625 -0.1648 -0.0476
17395TIP3    H273677   1.341   6.015   2.441 -0.9463 -0.1798  0.5945
17396TIP3   OH273678   1.883   5.138   3.273  0.3106  0.0478  0.3081
17396TIP3    H173679   1.827   5.137   3.351  0.8639 -1.1821  0.7119
17396TIP3    H273680   1.846   5.071   3.216  0.8311 -0.1511  0.1988
17397TIP3   OH273681   6.470   3.900   4.880 -0.3773  0.6852 -0.1718
17397TIP3    H173682   6.416   3.880   4.956  0.8797  0.9215  0.8241
17397TIP3    H273683   6.556   3.863   4.901  0.3619  1.9178 -0.8815
17398TIP3   OH273684   2.711   6.625  10.912 -0.0268  0.0623 -0.5603
17398TIP3    H173685   2.709   6.714  10.877  1.2240  0.7821  1.0606
17398TIP3    H273686   2.770   6.577  10.853 -0.1108  0.5062 -1.0074
17399TIP3   OH273687   6.383   6.510  10.730  0.6708  0.1533  0.4461
17399TIP3    H173688   6.471   6.473  10.727  0.9210  0.8311 -2.1400
17399TIP3    H273689   6.325   6.435  10.718  0.9683 -0.0227  0.1151
17400TIP3   OH273690   1.197   5.987  13.571 -0.2414  0.1474  0.1942
17400TIP3    H173691   1.267   5.965  13.632  0.0147 -0.9522 -0.4841
17400TIP3    H273692   1.234   6.056  13.516  0.2816 -0.3665 -0.1050
17401TIP3   OH273693   3.909   5.841   0.192  0.2727  0.0814  0.4386
17401TIP3    H173694   3.937   5.827   0.102  0.0751  2.1900  0.0092
17401TIP3    H273695   3.971   5.790   0.244  0.4115 -1.1284 -0.8696
17402TIP3   OH273696   2.444   3.567   5.466 -0.8707  0.0402 -0.3424
17402TIP3    H173697   2.440   3.571   5.561  1.1828  0.4823 -0.2330
17402TIP3    H273698   2.417   3.654   5.437  0.3745  0.5440 -0.0473
17403TIP3   OH273699   2.670   2.345   4.098  0.1611  0.6856 -0.3677
17403TIP3    H173700   2.643   2.341   4.189 -0.7916 -0.6463 -0.6812
17403TIP3    H273701   2.601   2.300   4.050  0.9802  0.7543 -1.6753
17404TIP3   OH273702   0.853   4.298   6.157 -0.3609 -0.3171 -0.7281
17404TIP3    H173703   0.831   4.205   6.153  0.9891 -0.6425 -1.2653
17404TIP3    H273704   0.878   4.313   6.248 -1.5597 -0.2179 -0.3967
17405TIP3   OH273705   1.667   5.584  11.993 -0.0856  0.1660  0.0325
17405TIP3    H173706   1.704   5.659  12.038 -2.1688  0.6458  1.0987
17405TIP3    H273707   1.574   5.584  12.018 -0.7417 -1.2067 -2.0624
17406TIP3   OH273708   2.195   2.389  14.637  0.3611 -0.1495  0.2508
17406TIP3    H173709   2.114   2.338  14.632  0.2599 -0.2000  1.8840
17406TIP3    H273710   2.258   2.339  14.586  0.4235 -2.2759  2.2520
17407TIP3   OH273711   0.641   4.483   1.154 -1.1537 -0.1546  0.3330
17407TIP3    H173712   0.723   4.475   1.203 -0.6512 -1.7795 -0.7094
17407TIP3    H273713   0.577   4.513   1.220  0.2783  1.2993  1.1193
17408TIP3   OH273714   6.385   2.031   3.113  0.3398  0.1336  0.2649
17408TIP3    H173715   6.448   1.958   3.119 -0.1318 -0.3798 -0.7670
17408TIP3    H273716   6.435   2.101   3.071  0.6325  0.2170  0.7436
17409TIP3   OH273717   2.503   5.944   3.036  0.1348  0.3231 -0.4550
17409TIP3    H173718   2.429   5.891   3.068  2.1901 -2.0314  0.7843
17409TIP3    H273719   2.528   5.903   2.953  1.3862 -0.3802  0.2338
17410TIP3   OH273720   3.268   4.454  14.417  0.0044  0.1821  0.5871
17410TIP3    H173721   3.345   4.444  14.361 -0.9880 -0.1051 -0.7929
17410TIP3    H273722   3.282   4.394  14.489 -0.2664 -2.2072 -1.2202
17411TIP3   OH273723   5.029   5.244  13.809  0.2149  0.6830  0.4628
17411TIP3    H173724   5.020   5.213  13.719  0.6176 -0.8454  0.9132
17411TIP3    H273725   5.101   5.308  13.805  0.2554  0.5989 -0.2926
17412TIP3   OH273726   2.707   2.450   3.304 -0.1725 -0.1534 -0.2929
17412TIP3    H173727   2.771   2.478   3.238  0.5229 -0.4813  0.2317
17412TIP3    H273728   2.695   2.527   3.360  1.3970 -0.6880  0.8780
17413TIP3   OH273729   4.710   2.302  15.177  0.0552  0.3041  0.1490
17413TIP3    H173730   4.780   2.238  15.167 -0.4183 -0.3520  0.9045
17413TIP3    H273731   4.697   2.338  15.090 -1.0578 -2.0989 -0.7661
17414TIP3   OH273732   0.060   3.446   2.455 -0.3441  0.1285  0.0398
17414TIP3    H173733   0.143   3.462   2.410 -0.4759  1.9842  0.3529
17414TIP3    H273734   0.054   3.516   2.520 -1.2591 -1.1202  1.3593
17415TIP3   OH273735   0.926   3.753   3.992  0.7748  0.2094  0.4877
17415TIP3    H173736   0.893   3.729   3.906  2.0112 -1.7190  0.4822
17415TIP3    H273737   1.021   3.743   3.985  0.8616 -0.5205  2.2018
17416TIP3   OH273738   5.240   6.021  13.539  0.3317  0.4516 -0.4294
17416TIP3    H173739   5.164   6.053  13.491 -0.6179 -1.2151 -0.1394
17416TIP3    H273740   5.203   5.984  13.619  1.6865  1.4173  0.6821
17417TIP3   OH273741   1.069   6.265   5.303 -0.2669 -0.4795 -0.8190
17417TIP3    H173742   1.103   6.294   5.219 -0.6688 -0.4544 -0.9726
17417TIP3    H273743   1.121   6.313   5.368 -0.7745  0.4177 -1.0623
17418TIP3   OH273744   1.935   6.543  12.708 -0.0095  0.5983 -0.1615
17418TIP3    H173745   1.891   6.465  12.675 -1.4721  1.1037  0.5262
17418TIP3    H273746   2.029   6.523  12.701 -0.3061 -0.3132 -2.1008
17419TIP3   OH273747   3.033   6.618   5.527  0.1729  0.0870 -0.2552
17419TIP3    H173748   2.982   6.545   5.561 -0.6710  0.5613 -0.4713
17419TIP3    H273749   3.079   6.583   5.451 -1.6278  0.2135 -1.4532
17420TIP3   OH273750   0.185   0.670   6.326  0.4649  0.2869  0.5087
17420TIP3    H173751   0.280   0.659   6.315  0.0853 -2.3550 -1.3384
17420TIP3    H273752   0.161   0.601   6.388 -0.5420 -1.3133 -1.5111
17421TIP3   OH273753   3.791   0.509  13.845 -0.2948 -0.2922 -0.3853
17421TIP3    H173754   3.750   0.433  13.806  0.1483  0.0398 -1.5197
17421TIP3    H273755   3.727   0.579  13.836 -0.5362 -0.4205  0.2795
17422TIP3   OH273756   0.772   5.374   0.806  0.4579  0.5211  0.3231
17422TIP3    H173757   0.765   5.357   0.713 -0.1908 -0.6966  0.5806
17422TIP3    H273758   0.847   5.322   0.835 -0.9345 -1.2468  0.9325
17423TIP3   OH273759   6.817   0.125   3.751  0.4173  0.6505 -1.0638
17423TIP3    H173760   6.890   0.167   3.798 -0.4626  2.5985 -1.3237
17423TIP3    H273761   6.791   0.052   3.807  0.5049  1.8869  0.6804
17424TIP3   OH273762   0.843   5.834   0.450  0.2967 -0.1662 -0.2197
17424TIP3    H173763   0.840   5.801   0.540  1.1463 -0.8237 -0.4102
17424TIP3    H273764   0.927   5.880   0.445  0.9781 -1.4368 -1.0809
17425TIP3   OH273765   1.738   5.646  14.234 -0.1480  0.2753  0.4918
17425TIP3    H173766   1.673   5.601  14.179  0.9694  0.6652 -1.1944
17425TIP3    H273767   1.686   5.710  14.284 -1.5221 -1.6451  1.6897
17426TIP3   OH273768   6.605   2.464  14.321 -0.0801 -0.0870  0.3137
17426TIP3    H173769   6.673   2.436  14.260  0.2171 -0.4148  0.7954
17426TIP3    H273770   6.527   2.416  14.293 -0.6074  1.6010 -1.3679
17427TIP3   OH273771   2.990   6.759   2.132 -0.3607 -0.0760 -0.7225
17427TIP3    H173772   2.986   6.709   2.213 -0.4953 -1.4555 -1.5643
17427TIP3    H273773   2.997   6.850   2.161  1.2452 -0.6458  0.8615
17428TIP3   OH273774   0.816   1.679   0.355 -0.2763  0.4374  0.8725
17428TIP3    H173775   0.769   1.597   0.368  2.0402 -1.0170  0.5124
17428TIP3    H273776   0.831   1.683   0.261  1.0492  0.4208  1.0722
17429TIP3   OH273777   2.536   5.461   1.319 -0.0481  0.3242  0.2015
17429TIP3    H173778   2.545   5.384   1.262  0.7248  1.4590 -1.2830
17429TIP3    H273779   2.457   5.505   1.288  0.7443  1.3086 -0.5007
17430TIP3   OH273780   0.924   4.639   3.569  0.0018 -0.1206 -0.3712
17430TIP3    H173781   0.996   4.631   3.508  0.5376 -2.7365  0.4669
17430TIP3    H273782   0.845   4.637   3.514  0.5098 -0.7151 -1.0997
17431TIP3   OH273783   1.257   2.262  13.796  0.3880  0.6452  0.2234
17431TIP3    H173784   1.208   2.262  13.878  1.2359  0.2686  0.7359
17431TIP3    H273785   1.189   2.270  13.728 -0.4059 -0.1802  0.9032
17432TIP3   OH273786   4.140   3.660   1.462  0.0693  0.0992 -0.4513
17432TIP3    H173787   4.146   3.707   1.379  1.7059 -1.8148 -1.5068
17432TIP3    H273788   4.186   3.716   1.524  0.4299  0.7120 -1.2512
17433TIP3   OH273789   0.317   5.106   2.374  0.9766  0.6962  0.1904
17433TIP3    H173790   0.251   5.080   2.438  0.7087  0.2543 -0.2656
17433TIP3    H273791   0.268   5.153   2.306  1.1742  0.6598  0.0204
17434TIP3   OH273792   3.631   0.056   2.256  0.3089 -0.1192  0.3710
17434TIP3    H173793   3.588   0.002   2.190  1.0007  0.8172 -0.8680
17434TIP3    H273794   3.603   0.017   2.339 -0.9269 -1.0521 -0.4361
17435TIP3   OH273795   2.036   3.255  13.567 -0.2682 -0.2458 -0.1491
17435TIP3    H173796   2.091   3.333  13.558  0.6366 -0.9181 -0.4638
17435TIP3    H273797   2.096   3.181  13.561 -1.0901 -0.9798  0.3404
17436TIP3   OH273798   0.119   1.092   1.852  0.5538 -0.0741  0.3206
17436TIP3    H173799   0.094   1.030   1.921 -1.0755  1.5188  1.2394
17436TIP3    H273800   0.135   1.174   1.898 -0.9903  1.1461 -1.2125
17437TIP3   OH273801   4.818   1.210   2.421 -0.2213  0.7006  0.0993
17437TIP3    H173802   4.766   1.283   2.387 -0.1722  0.4368 -0.5631
17437TIP3    H273803   4.848   1.163   2.343  1.1573  0.9463  0.4502
17438TIP3   OH273804   6.002   2.127  15.581  0.5243 -0.4375  0.4960
17438TIP3    H173805   6.074   2.065  15.596  1.0072 -0.3332 -1.1371
17438TIP3    H273806   6.041   2.196  15.527 -0.3938  0.5204  1.0102
17439TIP3   OH273807   4.242   0.051   1.516 -0.2102  0.1316  0.5758
17439TIP3    H173808   4.155   0.018   1.539 -1.0048  2.9899  2.1464
17439TIP3    H273809   4.225   0.134   1.472  1.7162  0.8248  1.0551
17440TIP3   OH273810   4.695   4.111  15.405  0.2539 -0.0216  0.4584
17440TIP3    H173811   4.774   4.162  15.385  0.7026 -0.6973  0.4862
17440TIP3    H273812   4.628   4.148  15.348  1.1192 -0.8662 -1.1672
17441TIP3   OH273813   0.504   5.605  11.913 -0.1607  0.4441 -0.0565
17441TIP3    H173814   0.483   5.690  11.874 -1.0039  0.9227  1.3784
17441TIP3    H273815   0.495   5.618  12.008 -2.5038 -1.7912  0.1457
17442TIP3   OH273816   1.484   0.284   2.696  0.1195  0.2118  0.0245
17442TIP3    H173817   1.400   0.315   2.662  0.2656 -0.6139 -1.1605
17442TIP3    H273818   1.545   0.356   2.681 -0.5284  1.1704  1.7111
17443TIP3   OH273819   5.409   5.848   4.978  0.1481 -0.2167  0.0283
17443TIP3    H173820   5.434   5.893   5.059 -0.7542 -0.1772  0.3007
17443TIP3    H273821   5.410   5.755   5.002 -1.1867 -0.1517  0.4204
17444TIP3   OH273822   6.620   6.569  14.019 -0.2669 -0.4824 -0.8042
17444TIP3    H173823   6.616   6.546  14.111 -0.0974 -2.8286 -1.3138
17444TIP3    H273824   6.540   6.621  14.003 -0.9382 -1.1092  0.3984
17445TIP3   OH273825   2.933   1.513  14.590  0.1868 -0.5370 -0.3452
17445TIP3    H173826   2.875   1.572  14.542 -1.5347 -1.9509 -0.0696
17445TIP3    H273827   3.019   1.528  14.551 -0.5429  0.8046 -1.5340
17446TIP3   OH273828   3.863   6.719  16.883  0.6024 -0.0387  0.0760
17446TIP3    H173829   3.945   6.730  16.834  1.1254 -0.1048  0.9285
17446TIP3    H273830   3.824   6.806  16.883  0.0829 -0.2354 -1.3283
17447TIP3   OH273831   6.227   3.266   1.069  0.3118 -0.1829  0.1346
17447TIP3    H173832   6.315   3.282   1.104 -0.0314  0.9389  0.5507
17447TIP3    H273833   6.226   3.311   0.984  0.4081 -0.9372 -0.2726
17448TIP3   OH273834   4.245   3.698  13.808 -0.5056  0.1193 -0.2363
17448TIP3    H173835   4.243   3.722  13.715  1.4706 -1.8740 -0.8767
17448TIP3    H273836   4.269   3.605  13.808  0.7018  0.3522  2.2973
17449TIP3   OH273837   5.573   0.868   0.606 -0.0041  0.2817 -0.1415
17449TIP3    H173838   5.631   0.800   0.640 -0.4139  0.3743  0.7649
17449TIP3    H273839   5.489   0.852   0.648 -0.8215 -0.1846 -1.8518
17450TIP3   OH273840   5.713   6.721   5.233 -0.4096  0.1443 -0.5473
17450TIP3    H173841   5.639   6.699   5.176  0.8719 -0.3623 -2.1085
17450TIP3    H273842   5.730   6.814   5.216 -0.4151  0.1482 -0.5328
17451TIP3   OH273843   5.040   4.291   0.121  0.3838 -0.5320 -0.6104
17451TIP3    H173844   5.027   4.262   0.212  0.2083  2.4236  0.4124
17451TIP3    H273845   4.951   4.291   0.084  0.3612 -1.0684 -0.5650
17452TIP3   OH273846   2.577   4.872   5.866  0.4385  0.1168  0.5858
17452TIP3    H173847   2.543   4.811   5.932  1.8923 -2.3191 -0.7421
17452TIP3    H273848   2.591   4.818   5.788  1.8517  2.1788 -0.7016
17453TIP3   OH273849   2.207   6.611  12.422  0.4920  0.5661 -0.6682
17453TIP3    H173850   2.283   6.665  12.403  0.7015  1.0292  1.2406
17453TIP3    H273851   2.132   6.669  12.407  0.6851  1.1845  0.5987
17454TIP3   OH273852   4.097   0.682   3.603  0.1198  0.6615  0.4717
17454TIP3    H173853   4.098   0.586   3.612 -3.7272  0.0889 -2.4095
17454TIP3    H273854   4.078   0.713   3.692 -0.1716 -1.3913  1.2023
17455TIP3   OH273855   4.641   1.007  11.571  0.4242 -0.1047 -0.3965
17455TIP3    H173856   4.727   1.002  11.530  0.6933  0.5981  0.0601
17455TIP3    H273857   4.588   0.943  11.524  0.7956  0.4645 -1.6384
17456TIP3   OH273858   1.166   5.485   4.577 -0.3323 -0.0266  0.6991
17456TIP3    H173859   1.170   5.580   4.587 -1.3755  0.1950 -0.7485
17456TIP3    H273860   1.240   5.463   4.521  0.8115 -0.2937  2.2434
17457TIP3   OH273861   1.010   2.208  11.807 -0.2775 -0.0320  0.4413
17457TIP3    H173862   1.013   2.115  11.830  1.9760 -0.4188 -1.0644
17457TIP3    H273863   1.097   2.241  11.830  0.1829  0.8415 -2.1596
17458TIP3   OH273864   3.116   5.870  12.330 -0.4899  0.7248  0.0137
17458TIP3    H173865   3.151   5.891  12.417  0.8693 -0.8131 -0.1125
17458TIP3    H273866   3.149   5.940  12.273  1.6691 -0.1650  0.0842
17459TIP3   OH273867   6.698   3.204   4.519  0.0099 -0.4528  0.1755
17459TIP3    H173868   6.666   3.114   4.510 -1.4111  0.1370 -1.3055
17459TIP3    H273869   6.707   3.217   4.613 -0.8460 -1.7848  0.4745
17460TIP3   OH273870   2.254   3.790   6.092  0.3031  0.4212  0.3567
17460TIP3    H173871   2.277   3.833   6.174 -0.1911 -1.7021  1.6852
17460TIP3    H273872   2.325   3.728   6.076 -0.9372 -1.1538  0.7176
17461TIP3   OH273873   1.446   5.801   5.522  0.6783 -0.1983 -0.1715
17461TIP3    H173874   1.377   5.833   5.465 -0.0304 -2.0836 -0.4409
17461TIP3    H273875   1.527   5.833   5.483  0.1187 -0.3246 -1.4608
17462TIP3   OH273876   4.142   6.275   4.703 -0.2489  0.3003  0.1357
17462TIP3    H173877   4.227   6.243   4.732 -0.1820 -0.1877 -0.5538
17462TIP3    H273878   4.079   6.211   4.738 -0.0027 -1.4912 -2.3995
17463TIP3   OH273879   1.238   4.079   4.775 -0.4281  0.0740  0.3365
17463TIP3    H173880   1.276   4.000   4.813 -0.3054 -0.8951 -1.6390
17463TIP3    H273881   1.175   4.046   4.710 -1.5302  1.6288  0.5614
17464TIP3   OH273882   5.245   1.875   3.077 -0.0190  0.4880 -0.4152
17464TIP3    H173883   5.330   1.832   3.081 -0.7614 -0.9390  1.2841
17464TIP3    H273884   5.266   1.969   3.069  1.6481  0.0691 -1.6853
17465TIP3   OH273885   3.989   2.915   2.104 -0.2464  0.0137 -0.1175
17465TIP3    H173886   3.952   2.839   2.149 -1.1634 -0.1047 -1.0408
17465TIP3    H273887   3.955   2.990   2.153 -0.5721 -0.1351 -0.1124
17466TIP3   OH273888   4.617   0.320   3.642 -0.1388 -0.3819  0.0342
17466TIP3    H173889   4.663   0.400   3.667  2.7858 -2.3028  1.4565
17466TIP3    H273890   4.670   0.283   3.572 -1.8848 -0.7430 -1.1589
17467TIP3   OH273891   0.326   6.484   4.111 -0.0229 -0.0806 -0.2394
17467TIP3    H173892   0.354   6.392   4.118  2.3959  0.5800 -0.3906
17467TIP3    H273893   0.402   6.534   4.142 -1.3250  1.8840 -0.0927
17468TIP3   OH273894   0.376   1.961   5.851 -0.2522 -0.0973 -0.1684
17468TIP3    H173895   0.288   1.996   5.837 -0.2724  0.1217  0.4962
17468TIP3    H273896   0.398   1.984   5.941  0.6443  0.2102 -0.4437
17469TIP3   OH273897   4.152   4.891   2.121  0.2039 -0.1650  0.3653
17469TIP3    H173898   4.102   4.820   2.161 -2.6764  1.0251 -0.8091
17469TIP3    H273899   4.222   4.847   2.073  0.1048 -1.9863  1.7737
17470TIP3   OH273900   1.161   2.578   0.016  0.0249  0.3937 -0.1476
17470TIP3    H173901   1.200   2.538  -0.061 -0.3535 -0.0528 -0.1155
17470TIP3    H273902   1.234   2.620   0.061  0.0796  1.6606 -1.3373
17471TIP3   OH273903   5.324   5.868   4.258 -0.0133 -0.1264 -0.2507
17471TIP3    H173904   5.388   5.797   4.256  0.1130 -0.3425  3.6119
17471TIP3    H273905   5.240   5.824   4.242  0.1039 -1.2062  1.7407
17472TIP3   OH273906   3.991   4.241  15.060 -0.2714 -0.0980 -0.5428
17472TIP3    H173907   3.975   4.215  14.969  2.2669 -1.3108 -0.7348
17472TIP3    H273908   4.059   4.180  15.090 -0.2358  1.0141  1.8099
17473TIP3   OH273909   3.330   3.262  17.242  0.0091 -0.0483  0.1936
17473TIP3    H173910   3.280   3.298  17.169  0.9874  0.3342 -0.3036
17473TIP3    H273911   3.264   3.223  17.299 -1.0062  1.6796  0.2808
17474TIP3   OH273912   1.707   6.389   2.896 -0.1655 -0.2921 -0.2348
17474TIP3    H173913   1.661   6.467   2.928  1.4573  1.2985 -1.5723
17474TIP3    H273914   1.756   6.357   2.972  0.1636  0.7680  0.0121
17475TIP3   OH273915   2.739   3.069   0.661 -0.1306  0.2467  0.2073
17475TIP3    H173916   2.777   2.984   0.639 -3.5466 -0.9043 -2.1215
17475TIP3    H273917   2.655   3.048   0.700 -0.3138  2.6086  1.2262
17476TIP3   OH273918   4.603   4.264   3.372  0.4960 -0.4286  0.5897
17476TIP3    H173919   4.677   4.283   3.430 -1.2282 -0.1774  2.8405
17476TIP3    H273920   4.608   4.170   3.355  1.6159 -0.3190  0.2534
17477TIP3   OH273921   1.346   6.811   4.525  0.2242  0.3731  0.2447
17477TIP3    H173922   1.275   6.777   4.470 -1.4037  1.2140  1.7344
17477TIP3    H273923   1.328   6.905   4.532  0.2301  0.2679  2.3327
17478TIP3   OH273924   4.153   5.071  16.146  0.1062 -0.1281  0.0656
17478TIP3    H173925   4.152   4.985  16.103  1.2903  0.3877 -1.0846
17478TIP3    H273926   4.125   5.054  16.235 -3.8850 -1.0668 -1.1616
17479TIP3   OH273927   4.814   6.467  17.064 -0.1880  0.5626 -0.4322
17479TIP3    H173928   4.783   6.472  16.973  0.3294  0.4561 -0.6148
17479TIP3    H273929   4.788   6.379  17.092  1.0498  0.0013 -0.9949
17480TIP3   OH273930   5.939   6.134  12.607  0.1249  0.8363 -0.0570
17480TIP3    H173931   5.896   6.202  12.556  0.9811  1.0373 -0.5229
17480TIP3    H273932   5.869   6.074  12.632 -0.2137  0.3585 -2.0442
17481TIP3   OH273933   1.768   1.282  16.226 -0.3028  0.0003 -0.0217
17481TIP3    H173934   1.833   1.352  16.237  0.7790 -0.8859 -0.5422
17481TIP3    H273935   1.815   1.202  16.251 -0.6958 -0.8605 -1.8528
17482TIP3   OH273936   0.577   6.780  15.304 -0.6251 -0.5347 -0.6251
17482TIP3    H173937   0.532   6.731  15.236 -1.1834  1.0201 -1.4273
17482TIP3    H273938   0.546   6.870  15.294 -1.0362 -0.2986  1.9305
17483TIP3   OH273939   2.876   5.121   4.227 -0.8060 -0.2704  0.1621
17483TIP3    H173940   2.824   5.067   4.167 -0.1283  1.1668 -1.8721
17483TIP3    H273941   2.916   5.187   4.170 -0.0975  1.2110  2.2467
17484TIP3   OH273942   2.452   3.258   4.009  0.1168 -0.4016  0.6507
17484TIP3    H173943   2.505   3.301   4.076 -1.9193  0.7438  1.6137
17484TIP3    H273944   2.503   3.181   3.984  1.6378 -0.0267  2.3965
17485TIP3   OH273945   0.376   6.113  16.746 -0.3190  0.0424  0.1929
17485TIP3    H173946   0.320   6.045  16.709 -1.6964  0.9933  0.4467
17485TIP3    H273947   0.464   6.091  16.717 -1.1057 -0.2423 -2.1694
17486TIP3   OH273948   1.994   4.509  16.978 -0.1819  0.0226  0.2093
17486TIP3    H173949   2.070   4.564  16.959  2.3847 -2.8776  1.2847
17486TIP3    H273950   1.950   4.553  17.050  1.5678  0.8473  0.8224
17487TIP3   OH273951   1.494   0.193  16.339  0.3397  0.3639 -0.2978
17487TIP3    H173952   1.587   0.173  16.329  0.8393  2.2127  0.3082
17487TIP3    H273953   1.475   0.255  16.269 -0.4430  0.0084 -0.4098
17488TIP3   OH273954   1.506   4.403  11.073 -0.0948 -0.3776  0.4327
17488TIP3    H173955   1.417   4.376  11.050  0.5433 -1.2912 -1.1693
17488TIP3    H273956   1.557   4.385  10.994  0.9715  2.9225  0.2335
17489TIP3   OH273957   1.687   3.282  13.912  0.3237  0.5972 -0.0563
17489TIP3    H173958   1.696   3.365  13.865  0.0484  2.3070  2.7067
17489TIP3    H273959   1.741   3.220  13.862 -0.9032  1.8838 -3.2499
17490TIP3   OH273960   6.438   5.489   5.505  0.8992  0.0087  0.1144
17490TIP3    H173961   6.465   5.511   5.594  4.1856 -0.5788 -0.5827
17490TIP3    H273962   6.484   5.552   5.450  0.5536 -0.8731 -1.2404
17491TIP3   OH273963   3.509   1.821  13.602 -0.2256  0.7815 -0.3000
17491TIP3    H173964   3.552   1.738  13.623 -1.6226 -0.2799 -1.4526
17491TIP3    H273965   3.579   1.878  13.573  0.6992 -0.1296  0.0885
17492TIP3   OH273966   4.391   6.470  14.642 -0.8420  0.3255  0.0601
17492TIP3    H173967   4.369   6.402  14.705  1.0877  0.4895  0.9794
17492TIP3    H273968   4.448   6.427  14.579 -3.8323 -0.2103 -2.5343
17493TIP3   OH273969   6.141   0.825   0.110 -0.4277  0.1186  0.1873
17493TIP3    H173970   6.063   0.787   0.150 -1.4179  1.3976 -0.4432
17493TIP3    H273971   6.213   0.798   0.166 -1.6199  0.9506  2.2426
17494TIP3   OH273972   4.975   4.243   6.156 -0.6141  0.3948  0.1803
17494TIP3    H173973   4.905   4.191   6.195 -1.6026  1.2207 -0.4146
17494TIP3    H273974   4.995   4.311   6.220 -1.8980  1.4579 -0.4889
17495TIP3   OH273975   4.924   5.079  17.234 -0.1283 -0.3426 -0.6936
17495TIP3    H173976   4.990   5.059  17.301 -0.5508 -0.1037 -0.2048
17495TIP3    H273977   4.936   5.172  17.215 -0.3373 -0.2946 -0.5920
17496TIP3   OH273978   5.127   6.240   2.134  0.2749  0.1289 -0.4371
17496TIP3    H173979   5.150   6.167   2.191 -0.1589 -1.0979 -1.7708
17496TIP3    H273980   5.209   6.263   2.090 -0.0185 -1.1245 -1.7138
17497TIP3   OH273981   0.046   3.628   2.208  0.2168 -0.6228 -0.8739
17497TIP3    H173982   0.064   3.706   2.154  0.6322 -0.6848 -0.8251
17497TIP3    H273983   0.056   3.555   2.148  1.2407 -0.7306 -0.5886
17498TIP3   OH273984   3.075   2.348   1.416  0.8802 -0.2046  0.0162
17498TIP3    H173985   3.120   2.280   1.366 -1.0140 -0.7733 -1.0369
17498TIP3    H273986   3.080   2.318   1.507  0.1816 -1.7615 -0.4156
17499TIP3   OH273987   0.531   6.221   0.526 -0.2015  0.1576 -0.0436
17499TIP3    H173988   0.594   6.246   0.458  0.1785 -1.8587 -0.5070
17499TIP3    H273989   0.577   6.237   0.608  0.3720  0.1120 -0.3487
17500TIP3   OH273990   2.528   4.752   4.094 -0.0375  0.4049  0.5465
17500TIP3    H173991   2.438   4.749   4.062 -0.4502  0.2216  1.6798
17500TIP3    H273992   2.572   4.678   4.052 -0.9647 -0.7504  1.5430
17501TIP3   OH273993   2.094   2.865   1.258 -0.5504 -0.1407  0.2515
17501TIP3    H173994   2.030   2.795   1.244 -2.1065  1.3944 -0.6277
17501TIP3    H273995   2.160   2.825   1.316 -2.3046 -1.7681  1.2449
17502TIP3   OH273996   5.427   0.875  10.864  0.4211  0.1956  0.2503
17502TIP3    H173997   5.354   0.933  10.889  0.2202  0.4745 -0.9323
17502TIP3    H273998   5.414   0.796  10.916 -0.7726  0.2157  0.0125
17503TIP3   OH273999   0.581   4.749  12.735 -0.1597 -0.4754  0.0700
17503TIP3    H174000   0.586   4.747  12.830 -2.8396  1.7606  0.3761
17503TIP3    H274001   0.611   4.662  12.708 -0.9895 -1.8274  3.0490
17504TIP3   OH274002   4.787   4.782   0.630  0.8315  0.2966 -0.6266
17504TIP3    H174003   4.786   4.805   0.723 -1.9331  0.2650 -0.5590
17504TIP3    H274004   4.779   4.686   0.629 -0.7725  0.3983 -0.8266
17505TIP3   OH274005   0.576   3.804   5.991 -0.7595  0.0994 -0.1870
17505TIP3    H174006   0.494   3.822   6.037 -0.5465 -0.5465  0.4743
17505TIP3    H274007   0.594   3.883   5.941 -1.5217  0.4382  0.0622
17506TIP3   OH274008   2.640   2.493   1.686 -0.1020 -0.1662  0.3080
17506TIP3    H174009   2.570   2.432   1.708 -0.4448 -0.7679 -2.1372
17506TIP3    H274010   2.713   2.437   1.658 -0.2432  0.4777 -1.4757
17507TIP3   OH274011   6.026   1.325  11.452 -0.2123 -0.0857  0.1647
17507TIP3    H174012   5.955   1.270  11.486 -0.7128  0.3579 -0.1315
17507TIP3    H274013   6.051   1.379  11.527 -1.8587  1.4510 -0.2998
17508TIP3   OH274014   4.964   4.850  14.815  0.9227  0.3190 -0.4711
17508TIP3    H174015   4.997   4.897  14.891 -2.5435  1.5879  0.4560
17508TIP3    H274016   4.970   4.758  14.839  2.1585  0.5693  0.2664
17509TIP3   OH274017   2.910   2.189   0.384  0.2451  0.4693  0.2069
17509TIP3    H174018   2.883   2.204   0.293  0.0594 -0.7570  0.0483
17509TIP3    H274019   3.001   2.219   0.386  1.2326 -2.1152 -1.1736
17510TIP3   OH274020   1.267   4.060  16.921  0.0726 -0.3413  0.1767
17510TIP3    H174021   1.362   4.068  16.912  0.1761 -0.5245  1.0553
17510TIP3    H274022   1.251   4.056  17.015 -0.9721  1.6402  0.1501
17511TIP3   OH274023   3.191   4.187   3.214  0.9427  0.5465  0.2154
17511TIP3    H174024   3.179   4.150   3.302 -0.5093 -2.3151 -1.0499
17511TIP3    H274025   3.285   4.178   3.197  1.1402  0.5700  1.2302
17512TIP3   OH274026   2.740   3.032  15.408  0.0394 -0.3587 -0.3760
17512TIP3    H174027   2.773   3.102  15.465  1.6172 -1.3224 -0.0375
17512TIP3    H274028   2.668   3.072  15.360  0.7062  1.4193  0.0247
17513TIP3   OH274029   1.340   1.497   6.178 -0.2792 -0.2724 -0.1098
17513TIP3    H174030   1.306   1.468   6.262 -2.7272  2.6499  0.0973
17513TIP3    H274031   1.308   1.431   6.116 -1.2488 -0.7776  0.8850
17514TIP3   OH274032   3.923   6.318  10.633 -0.1488 -0.1304 -0.3330
17514TIP3    H174033   3.908   6.227  10.611 -0.1926 -0.1033 -0.4142
17514TIP3    H274034   3.945   6.360  10.550 -2.1880  0.3731 -0.6838
17515TIP3   OH274035   4.616   6.120   5.121  0.2685  0.0240  0.3921
17515TIP3    H174036   4.616   6.043   5.065  2.6960  1.0333 -1.1455
17515TIP3    H274037   4.558   6.182   5.077  0.6034  0.1042  0.0622
17516TIP3   OH274038   4.981   2.950  12.410 -0.1790 -0.2260 -0.2243
17516TIP3    H174039   4.977   2.896  12.332  1.6073 -1.6523  0.6080
17516TIP3    H274040   5.062   3.000  12.402  1.3409 -2.1525  1.6973
17517TIP3   OH274041   0.699   4.423   3.192  0.5639 -0.1338  0.5343
17517TIP3    H174042   0.735   4.506   3.222  0.3756  1.4256 -2.9891
17517TIP3    H274043   0.760   4.394   3.124 -0.4141 -1.8630  0.3356
17518TIP3   OH274044   6.637   0.288   0.754 -0.3772 -0.1864 -0.3268
17518TIP3    H174045   6.733   0.284   0.754 -0.3838 -4.0519  0.8345
17518TIP3    H274046   6.615   0.345   0.828  1.0161 -0.3529  0.2417
17519TIP3   OH274047   1.485   0.680   0.807 -0.1112 -0.2719  0.1342
17519TIP3    H174048   1.487   0.620   0.732  2.6704 -0.4476  0.2340
17519TIP3    H274049   1.462   0.624   0.881  0.0022 -0.7224 -0.1630
17520TIP3   OH274050   4.250   4.183   1.155  0.4286 -0.7562  0.3656
17520TIP3    H174051   4.236   4.157   1.246  2.6370  0.1065  1.0320
17520TIP3    H274052   4.189   4.254   1.140  0.2235 -0.7266  1.2759
17521TIP3   OH274053   0.451   3.911  17.012 -0.5483  0.1428  0.1009
17521TIP3    H174054   0.369   3.939  16.971 -0.1185  1.0742 -0.1515
17521TIP3    H274055   0.504   3.879  16.939  0.1912  1.7380 -0.1206
17522TIP3   OH274056   0.451   4.508   5.356  0.2720 -0.5589  0.3081
17522TIP3    H174057   0.508   4.549   5.291 -0.4682  1.0592  0.6367
17522TIP3    H274058   0.511   4.480   5.426  1.0542 -2.1750 -0.9263
17523TIP3   OH274059   1.494   6.768   0.334 -0.2970 -0.5699  0.1896
17523TIP3    H174060   1.574   6.793   0.288 -0.0887  0.1947  0.9526
17523TIP3    H274061   1.427   6.768   0.265  0.3592 -1.2902 -0.4659
17524TIP3   OH274062   0.362   2.093   4.032 -0.2975  0.3406 -0.0712
17524TIP3    H174063   0.301   2.161   4.061 -0.1145  0.3906  0.1968
17524TIP3    H274064   0.350   2.021   4.095 -0.1723  0.2991 -0.0941
17525TIP3   OH274065   4.616   3.504   2.542 -0.3388  1.0454  0.0808
17525TIP3    H174066   4.624   3.408   2.537 -0.1133  1.0164  0.8400
17525TIP3    H274067   4.601   3.531   2.452  1.4784  0.4562 -0.4624
17526TIP3   OH274068   2.600   5.751  16.493  0.1709  0.3169  0.1559
17526TIP3    H174069   2.614   5.822  16.555  0.9625  1.0810 -0.8653
17526TIP3    H274070   2.688   5.728  16.464 -0.0478 -1.2768  0.6635
17527TIP3   OH274071   0.058   5.871  10.983  0.3831 -0.4229 -0.1689
17527TIP3    H174072   0.017   5.899  10.901 -0.1993 -0.0120  0.2578
17527TIP3    H274073   0.152   5.864  10.962  0.2815  0.0063 -0.7788
17528TIP3   OH274074   1.701   5.142  15.483 -0.0833 -0.4481 -0.0831
17528TIP3    H174075   1.656   5.144  15.399 -0.8675  0.5409  0.3380
17528TIP3    H274076   1.777   5.085  15.469  0.6405  0.8822 -1.8701
17529TIP3   OH274077   6.522   4.382   6.141 -0.0791 -0.2928 -0.1106
17529TIP3    H174078   6.514   4.477   6.155  0.7773 -0.3807  1.0355
17529TIP3    H274079   6.462   4.344   6.205 -0.5029 -0.5343 -0.6448
17530TIP3   OH274080   0.728   2.868   3.635 -0.0197 -0.3346 -0.5554
17530TIP3    H174081   0.755   2.960   3.640 -0.0484 -0.3602  0.1823
17530TIP3    H274082   0.633   2.870   3.643 -0.0253 -0.4252 -0.6017
17531TIP3   OH274083   2.776   2.586  17.127 -0.1944  0.4815 -0.1132
17531TIP3    H174084   2.864   2.566  17.097 -0.3007  0.3488 -0.3332
17531TIP3    H274085   2.766   2.680  17.110  0.0779  0.5956  0.3535
17532TIP3   OH274086   2.548   0.009   3.540  0.3626  0.3873 -0.2082
17532TIP3    H174087   2.521   0.071   3.473 -0.4763  0.0892 -0.1593
17532TIP3    H274088   2.503   0.038   3.619  0.2399 -0.0848 -0.1020
17533TIP3   OH274089   4.344   5.816  15.922 -0.1545 -0.1203  0.1504
17533TIP3    H174090   4.255   5.831  15.892  0.0838  0.4469 -0.2810
17533TIP3    H274091   4.349   5.721  15.934  0.1772 -0.6191 -3.1034
17534TIP3   OH274092   1.421   4.899  14.595  0.8104 -0.3607 -0.2341
17534TIP3    H174093   1.422   4.836  14.666 -0.9344 -0.0828  0.0896
17534TIP3    H274094   1.513   4.923  14.582  1.2572 -1.1771  1.2229
17535TIP3   OH274095   1.713   1.430  11.537  0.3795 -0.5974  0.0054
17535TIP3    H174096   1.688   1.501  11.597 -0.3960  1.2952 -2.3708
17535TIP3    H274097   1.761   1.368  11.591  0.6297  1.4888  2.3416
17536TIP3   OH274098   5.343   5.205  12.720  0.3012  0.1590 -0.1333
17536TIP3    H174099   5.363   5.112  12.710 -0.5439  0.1600 -2.1331
17536TIP3    H274100   5.361   5.244  12.635 -1.6875  1.3726 -0.0679
17537TIP3   OH274101   3.711   0.344  14.381 -0.2480 -0.2312  0.6716
17537TIP3    H174102   3.737   0.252  14.377  1.7612  0.3051  0.5079
17537TIP3    H274103   3.617   0.343  14.365  0.0513 -2.0992 -1.5083
17538TIP3   OH274104   3.558   2.022   5.077  0.5759 -1.0199 -0.2572
17538TIP3    H174105   3.584   1.975   5.156 -0.6491 -0.8223  0.2816
17538TIP3    H274106   3.583   2.113   5.095  0.1869 -0.9536 -0.0382
17539TIP3   OH274107   1.256   4.240  12.985 -0.5261 -0.2690 -0.9279
17539TIP3    H174108   1.297   4.326  12.974  2.4507 -1.4015  0.1140
17539TIP3    H274109   1.187   4.254  13.050  0.5059  1.2205 -0.0778
17540TIP3   OH274110   6.645   1.195  14.448 -0.2732  0.1193  0.1090
17540TIP3    H174111   6.552   1.215  14.434  0.2522  1.1468 -2.3265
17540TIP3    H274112   6.648   1.099  14.449 -1.2274  0.0641 -0.7921
17541TIP3   OH274113   3.664   3.427   2.937  0.4848 -0.6750 -0.7572
17541TIP3    H174114   3.749   3.391   2.914  0.7158 -0.8502  0.3499
17541TIP3    H274115   3.671   3.520   2.914  1.0865 -0.6208 -0.3646
17542TIP3   OH274116   2.925   0.673  14.040  0.0262  0.1913  0.3172
17542TIP3    H174117   2.962   0.594  14.002 -2.0505  0.1362 -1.8833
17542TIP3    H274118   2.923   0.657  14.134  2.5240 -1.0178  0.2288
17543TIP3   OH274119   4.277   5.359  11.352  0.2779 -0.9196 -0.2647
17543TIP3    H174120   4.269   5.296  11.425  1.8808 -1.4084 -0.4673
17543TIP3    H274121   4.222   5.322  11.283 -1.4030 -0.3671  0.6999
17544TIP3   OH274122   4.368   4.326  16.183 -0.4593 -0.0558 -0.1076
17544TIP3    H174123   4.316   4.248  16.164 -2.1414  0.8101  0.6717
17544TIP3    H274124   4.316   4.374  16.248  1.0695  1.1596  0.2902
17545TIP3   OH274125   0.145   3.389  15.018  0.5385 -0.0705  0.1388
17545TIP3    H174126   0.192   3.350  15.092  1.0570  0.3783  0.0500
17545TIP3    H274127   0.087   3.319  14.987  0.5075 -0.3526  0.7969
17546TIP3   OH274128   3.640   6.391  16.235  0.3214  0.1432  0.0083
17546TIP3    H174129   3.690   6.472  16.221 -2.0048  1.6978  0.2029
17546TIP3    H274130   3.703   6.331  16.274  2.3951  1.5115 -1.0286
17547TIP3   OH274131   1.433   0.493  15.256 -0.0692  0.1991  0.3042
17547TIP3    H174132   1.414   0.411  15.301  0.5083  1.1315  2.3980
17547TIP3    H274133   1.365   0.554  15.287  0.0795  0.7825 -0.4610
17548TIP3   OH274134   3.319   4.815  16.174  0.2646  0.4141  0.2956
17548TIP3    H174135   3.367   4.795  16.094  0.3985  2.3649 -0.1656
17548TIP3    H274136   3.356   4.757  16.241  1.5746  0.2007 -0.5973
17549TIP3   OH274137   4.844   0.025  13.909  0.1886 -0.3044 -0.2464
17549TIP3    H174138   4.755   0.055  13.926  0.2345  0.0571 -0.6301
17549TIP3    H274139   4.869   0.069  13.828  0.0971 -1.7073 -1.0828
17550TIP3   OH274140   0.421   2.559   2.925  0.7056  0.2474 -0.4096
17550TIP3    H174141   0.412   2.524   2.837  1.8028 -0.3576 -0.2947
17550TIP3    H274142   0.333   2.590   2.948  0.5607  1.0849 -1.9808
17551TIP3   OH274143   1.127   3.870   0.718 -0.0436 -0.0479 -0.3393
17551TIP3    H174144   1.165   3.831   0.639 -0.8751  0.0154 -0.7752
17551TIP3    H274145   1.035   3.882   0.697 -0.0815  0.8469  0.3044
17552TIP3   OH274146   0.778   5.470  11.420 -0.4712  0.3492 -0.1654
17552TIP3    H174147   0.743   5.397  11.369  0.8836 -0.7550  0.4062
17552TIP3    H274148   0.788   5.541  11.357 -0.2369 -0.5084 -1.1207
17553TIP3   OH274149   3.789   5.912   4.104  0.1574  0.2233  0.1423
17553TIP3    H174150   3.755   5.856   4.034  0.7128  1.1939 -0.9446
17553TIP3    H274151   3.821   5.990   4.059  0.3127  0.9892  1.5164
17554TIP3   OH274152   6.368   5.089  11.295 -0.4833  0.0168 -0.5468
17554TIP3    H174153   6.287   5.079  11.246  0.4373  0.8543 -2.3378
17554TIP3    H274154   6.438   5.075  11.231  0.8058 -0.2167  0.8279
17555TIP3   OH274155   3.783   5.306   4.418  0.0938  0.0187 -0.5936
17555TIP3    H174156   3.775   5.401   4.412  1.4140  0.0999 -1.9180
17555TIP3    H274157   3.767   5.275   4.328  0.3525 -0.9359 -0.3246
17556TIP3   OH274158   4.249   0.748  13.506  0.0714  0.0343 -0.0285
17556TIP3    H174159   4.295   0.823  13.469 -1.1079  1.1114  0.6286
17556TIP3    H274160   4.156   0.767  13.492 -0.3005 -0.6723  1.2892
17557TIP3   OH274161   1.680   6.757  12.992 -0.5120  0.2579  0.4083
17557TIP3    H174162   1.757   6.705  12.970 -1.0883 -0.3180 -0.3363
17557TIP3    H274163   1.714   6.834  13.037  0.7795  1.5796 -2.5784
17558TIP3   OH274164   3.450   3.389   4.553  0.7812  0.1936  0.1786
17558TIP3    H174165   3.491   3.369   4.637  2.1691  0.9997 -0.2760
17558TIP3    H274166   3.409   3.307   4.525 -0.9470  0.2482  2.2739
17559TIP3   OH274167   1.257   3.011  14.372 -0.4327  0.1018  0.0620
17559TIP3    H174168   1.268   2.936  14.315 -0.8278 -1.8076  2.3301
17559TIP3    H274169   1.337   3.063  14.361  0.4880 -1.3993 -0.5427
17560TIP3   OH274170   2.012   2.665   5.300  0.7063 -0.2673  0.5799
17560TIP3    H174171   2.057   2.748   5.287 -1.5090  1.0802  1.0312
17560TIP3    H274172   1.920   2.689   5.313 -0.0528 -2.8101  0.4642
17561TIP3   OH274173   5.340   1.898  13.488 -0.6315 -0.6871  0.0042
17561TIP3    H174174   5.272   1.903  13.420 -1.0040 -1.5578  0.2878
17561TIP3    H274175   5.313   1.823  13.543 -0.0344 -0.3555  0.7732
17562TIP3   OH274176   4.568   5.348  16.135  0.6194  0.8793 -0.1698
17562TIP3    H174177   4.614   5.265  16.147  1.7328  1.5894  0.7135
17562TIP3    H274178   4.476   5.327  16.147  0.8520 -0.2705 -0.2600
17563TIP3   OH274179   6.701   4.280   0.256  0.0251 -0.1223 -0.4532
17563TIP3    H174180   6.674   4.188   0.248 -1.0043  0.0258  0.9653
17563TIP3    H274181   6.628   4.322   0.302  0.5763  1.3670 -0.9138
17564TIP3   OH274182   3.688   3.655   2.031 -0.5261  0.1571 -0.2823
17564TIP3    H174183   3.655   3.615   1.951 -0.7539  1.0316 -0.6361
17564TIP3    H274184   3.632   3.732   2.045  1.1183  1.4979 -0.7252
17565TIP3   OH274185   6.713   6.510  12.450 -0.3311 -0.0115 -0.2458
17565TIP3    H174186   6.746   6.473  12.369  2.2636  0.8065  0.3536
17565TIP3    H274187   6.786   6.502  12.512 -1.9827  0.0081  1.8349
17566TIP3   OH274188   6.543   6.391   0.232  0.3722 -0.0635 -0.1694
17566TIP3    H174189   6.627   6.346   0.241  0.6233  0.1745 -1.1541
17566TIP3    H274190   6.529   6.433   0.317  0.8771 -0.7246  0.2511
17567TIP3   OH274191   0.564   3.632   3.551  0.1535  0.6603 -0.2547
17567TIP3    H174192   0.617   3.563   3.590 -1.2009  0.1823  0.8065
17567TIP3    H274193   0.588   3.631   3.458  1.3458 -0.1098  0.0463
17568TIP3   OH274194   3.470   5.759  13.856 -1.3835  0.3538 -0.1734
17568TIP3    H174195   3.556   5.771  13.817 -1.0228 -0.4435  0.3257
17568TIP3    H274196   3.432   5.685  13.808 -0.4464 -1.4386  1.6696
17569TIP3   OH274197   4.783   4.897  11.749 -0.1597  0.0664 -0.0587
17569TIP3    H174198   4.724   4.831  11.713  1.1665 -0.0293 -2.1913
17569TIP3    H274199   4.860   4.848  11.776  0.1328  0.5428 -0.0143
17570TIP3   OH274200   1.995   5.560  14.241 -0.3948  0.0563  0.9765
17570TIP3    H174201   2.006   5.466  14.255  2.2226  0.1580  0.1661
17570TIP3    H274202   1.903   5.570  14.215 -0.5571 -2.3643  0.3536
17571TIP3   OH274203   2.447   0.949  12.953  0.0152 -0.6790  0.2267
17571TIP3    H174204   2.415   0.881  13.012  0.8998 -0.2003  1.2832
17571TIP3    H274205   2.452   1.028  13.007  1.4723 -0.3821 -0.2998
17572TIP3   OH274206   4.761   6.535   3.241  0.5170  0.1061  0.4193
17572TIP3    H174207   4.682   6.502   3.199  1.1665 -0.2454 -0.5686
17572TIP3    H274208   4.785   6.468   3.305  1.0021 -0.6571 -0.5390
17573TIP3   OH274209   5.623   0.136  13.883  0.1147 -0.3965  0.1668
17573TIP3    H174210   5.684   0.070  13.850 -0.9203 -2.1475  1.5942
17573TIP3    H274211   5.538   0.092  13.885 -0.4127  0.5745  2.2161
17574TIP3   OH274212   3.393   4.946   5.655 -0.0149 -0.0255  0.5469
17574TIP3    H174213   3.405   4.858   5.619 -0.8062  0.8693 -2.2127
17574TIP3    H274214   3.338   4.990   5.590  1.3805  2.8876  1.1888
17575TIP3   OH274215   0.453   2.668  14.321  0.0325  0.5630  0.0800
17575TIP3    H174216   0.474   2.755  14.286  1.2341  0.1197 -0.3514
17575TIP3    H274217   0.504   2.663  14.402 -1.1283  0.7855  0.8402
17576TIP3   OH274218   5.818   4.860   5.843  0.3794  0.1235  0.1703
17576TIP3    H174219   5.862   4.917   5.780  1.5417 -0.6264  0.2687
17576TIP3    H274220   5.854   4.887   5.928 -1.3483  1.2920  0.5911
17577TIP3   OH274221   3.176   5.210   5.830 -0.0735  0.2268 -0.1254
17577TIP3    H174222   3.170   5.144   5.899 -0.2659  1.1375  0.7636
17577TIP3    H274223   3.148   5.291   5.873 -0.1294  0.8273 -1.2654
17578TIP3   OH274224   4.304   5.826  10.447 -0.3685 -0.6557  0.0618
17578TIP3    H174225   4.346   5.829  10.533  0.3814  0.1274 -0.3212
17578TIP3    H274226   4.335   5.904  10.401  0.5943 -1.9003 -1.5268
17579TIP3   OH274227   3.619   2.290   3.572 -0.1717 -0.3478  0.2434
17579TIP3    H174228   3.545   2.342   3.605  0.3892  0.1636  0.7268
17579TIP3    H274229   3.661   2.347   3.507  0.1841 -0.3622  0.4560
17580TIP3   OH274230   1.423   4.629   0.725 -0.3833  0.4414  0.0623
17580TIP3    H174231   1.461   4.620   0.812 -2.0754 -0.1404  0.7945
17580TIP3    H274232   1.374   4.711   0.729 -0.0914  0.6495 -0.5077
17581TIP3   OH274233   5.079   4.439   4.694 -0.0953 -0.1319  0.2386
17581TIP3    H174234   5.103   4.527   4.665  1.2369 -0.8980 -1.1850
17581TIP3    H274235   5.117   4.381   4.627 -3.5392 -1.6790 -0.5999
17582TIP3   OH274236   0.793   4.656  17.068 -0.0407 -0.2942  0.6480
17582TIP3    H174237   0.758   4.708  16.996 -1.5143 -1.9590  0.0792
17582TIP3    H274238   0.776   4.708  17.146 -0.6610  0.4651  0.0181
17583TIP3   OH274239   3.801   0.111   1.350 -0.3327 -0.0238 -0.1532
17583TIP3    H174240   3.883   0.078   1.314  0.2679 -1.5508  2.3617
17583TIP3    H274241   3.753   0.032   1.377 -2.0836  0.9024 -0.3935
17584TIP3   OH274242   6.291   5.516   4.828  0.0803 -0.2623 -0.0786
17584TIP3    H174243   6.198   5.528   4.849  0.1446  0.6463 -0.2737
17584TIP3    H274244   6.321   5.450   4.890 -0.6592 -0.4535  0.0904
17585TIP3   OH274245   2.016   6.337   2.009  0.5671 -0.5359 -0.3612
17585TIP3    H174246   2.017   6.277   2.083 -0.0644 -0.0419  0.0612
17585TIP3    H274247   2.081   6.404   2.031 -1.9053  1.4802  1.3852
17586TIP3   OH274248   5.038   4.700  17.219  0.3427 -0.4682 -0.2188
17586TIP3    H174249   5.096   4.765  17.258  2.1890 -0.5685 -2.5961
17586TIP3    H274250   5.083   4.617  17.232 -0.4103 -0.8629 -0.0688
17587TIP3   OH274251   6.160   0.676  13.032 -0.2186  0.4972 -0.3221
17587TIP3    H174252   6.128   0.762  13.006 -1.7032  0.1081  0.1074
17587TIP3    H274253   6.119   0.660  13.117  0.8695 -0.2044  0.0913
17588TIP3   OH274254   1.587   2.729  15.324 -0.7076 -0.4846 -0.1769
17588TIP3    H174255   1.545   2.654  15.366  0.7384 -1.1397  0.1488
17588TIP3    H274256   1.670   2.695  15.291 -1.7770 -0.0849 -3.8049
17589TIP3   OH274257   3.699   5.718  13.106 -0.2404  0.2070  0.1110
17589TIP3    H174258   3.632   5.649  13.114 -0.3677  0.1520 -1.1575
17589TIP3    H274259   3.701   5.737  13.013  1.5299  0.2217  0.1228
17590TIP3   OH274260   1.966   0.263  12.543 -1.1611  0.2083  0.6746
17590TIP3    H174261   2.025   0.264  12.618 -2.3024 -0.0778  1.5895
17590TIP3    H274262   2.006   0.200  12.483  0.5774  1.5605  0.3259
17591TIP3   OH274263   2.592   3.238  12.662  0.1057 -0.3013 -1.2218
17591TIP3    H174264   2.501   3.231  12.632 -0.0096 -1.1740 -0.7124
17591TIP3    H274265   2.635   3.161  12.625  0.6212  0.0501 -1.3673
17592TIP3   OH274266   3.639   4.616   1.749  0.4266 -0.4094 -0.1679
17592TIP3    H174267   3.690   4.664   1.684  0.2466  0.4956  0.3526
17592TIP3    H274268   3.697   4.546   1.778  0.2334 -1.3385 -1.8714
17593TIP3   OH274269   3.791   5.494   5.934 -0.1664  0.0188  0.2973
17593TIP3    H174270   3.767   5.534   6.018 -0.1001  0.4180  0.1318
17593TIP3    H274271   3.767   5.402   5.943 -2.1950  0.4567  0.0004
17594TIP3   OH274272   5.854   2.900   2.186 -0.0614 -0.6063  0.2166
17594TIP3    H174273   5.890   2.921   2.272  2.4897 -1.1220 -0.6210
17594TIP3    H274274   5.833   2.985   2.147 -0.7651 -0.3467  1.1299
17595TIP3   OH274275   0.591   2.734   5.293 -0.1357  0.6718  0.7935
17595TIP3    H174276   0.679   2.696   5.291 -1.3550 -2.4643  0.9013
17595TIP3    H274277   0.555   2.707   5.378 -2.0488 -0.3877 -0.2739
17596TIP3   OH274278   2.826   3.273  10.368  0.4119  0.9464 -0.0928
17596TIP3    H174279   2.760   3.292  10.435  0.7993  0.5707  0.4002
17596TIP3    H274280   2.775   3.243  10.293 -0.0477  1.6706 -0.0785
17597TIP3   OH274281   0.754   1.410   0.354 -0.1744  0.0464 -0.6634
17597TIP3    H174282   0.749   1.413   0.259  0.6199 -0.5459 -0.7361
17597TIP3    H274283   0.782   1.320   0.374  0.3736  0.3761  0.0884
17598TIP3   OH274284   2.191   4.101  13.496 -0.1160  0.1396 -0.0732
17598TIP3    H174285   2.133   4.078  13.424 -0.0565  2.7268 -1.0101
17598TIP3    H274286   2.133   4.102  13.573 -1.2969  2.1376 -0.8999
17599TIP3   OH274287   2.383   0.400   4.198 -0.5818 -0.0672 -0.6191
17599TIP3    H174288   2.342   0.315   4.217 -1.2493  0.1440 -1.0983
17599TIP3    H274289   2.332   0.436   4.126 -1.6472  1.6928  0.9277
17600TIP3   OH274290   3.608   3.140   2.395 -0.1953  0.1577  0.7140
17600TIP3    H174291   3.563   3.057   2.414 -0.3101 -0.5475 -2.1370
17600TIP3    H274292   3.701   3.120   2.407 -0.3085  0.0340  1.4104
17601TIP3   OH274293   4.986   5.262   3.213  0.0357  0.1511  0.2098
17601TIP3    H174294   4.900   5.300   3.233  0.7757  1.7768  0.4407
17601TIP3    H274295   4.993   5.267   3.118  0.0786  0.4837  0.2302
17602TIP3   OH274296   6.637   1.197  13.613 -0.8540 -0.5348  0.4811
17602TIP3    H174297   6.688   1.214  13.692 -1.3058  1.3683  0.4241
17602TIP3    H274298   6.565   1.260  13.617 -0.0066  0.7646 -2.2018
17603TIP3   OH274299   0.941   2.318  16.041 -0.9865 -0.2003  0.4635
17603TIP3    H174300   0.998   2.263  16.095 -0.6542  0.0500  0.3683
17603TIP3    H274301   0.893   2.256  15.987 -1.2704 -0.4525  0.9947
17604TIP3   OH274302   5.785   2.037   3.669 -0.1545 -0.1700  0.1903
17604TIP3    H174303   5.782   2.001   3.758  0.0832  2.0927  1.1791
17604TIP3    H274304   5.839   1.974   3.621  1.6464 -0.3424  2.2372
17605TIP3   OH274305   6.813   0.168  12.839  0.1411 -0.5747 -0.0772
17605TIP3    H174306   6.726   0.201  12.817  0.2209  1.4553  2.2298
17605TIP3    H274307   6.866   0.246  12.849  1.6880 -1.6839  0.7450
17606TIP3   OH274308   5.883   4.429   5.124 -0.1111  0.5427  0.2692
17606TIP3    H174309   5.798   4.446   5.164 -1.5551 -1.7332 -1.5490
17606TIP3    H274310   5.917   4.515   5.101 -1.3512  1.5771  2.0991
17607TIP3   OH274311   2.217   1.580   4.389  0.0798 -0.6154  0.0776
17607TIP3    H174312   2.263   1.513   4.338  0.8508 -0.4175  0.4938
17607TIP3    H274313   2.250   1.569   4.478  0.8671  0.8633 -0.0068
17608TIP3   OH274314   5.828   3.937  15.093 -0.1653  0.7316 -0.3940
17608TIP3    H174315   5.769   4.010  15.072 -0.9828 -0.1603 -1.2990
17608TIP3    H274316   5.868   3.962  15.176 -0.0142  2.4575 -0.9617
17609TIP3   OH274317   1.051   6.469  11.342 -0.0167 -0.0590  0.1986
17609TIP3    H174318   1.143   6.446  11.349  0.4745  1.9224  0.5939
17609TIP3    H274319   1.006   6.408  11.401  0.9816 -1.1497 -0.1322
17610TIP3   OH274320   4.914   6.102   2.370 -0.3856  0.5576 -1.1496
17610TIP3    H174321   4.978   6.073   2.306  0.1857  1.3422 -0.9366
17610TIP3    H274322   4.862   6.168   2.324 -0.7409  0.2766 -1.1647
17611TIP3   OH274323   6.783   1.087   2.767  0.2093 -0.5972 -0.1328
17611TIP3    H174324   6.749   1.175   2.749  0.2467 -0.8554 -1.5169
17611TIP3    H274325   6.841   1.099   2.843 -0.2801  0.4477  0.0932
17612TIP3   OH274326   6.676   2.419   5.517 -0.5451  0.2646  0.1474
17612TIP3    H174327   6.741   2.381   5.457  0.5718  0.7146  1.0330
17612TIP3    H274328   6.666   2.353   5.585 -0.9832  0.2264  0.0470
17613TIP3   OH274329   5.789   6.815  15.216  0.2479 -0.0418 -0.0375
17613TIP3    H174330   5.815   6.875  15.286 -0.7544  0.4634 -0.0690
17613TIP3    H274331   5.734   6.749  15.259  0.6803 -0.4723 -0.1386
17614TIP3   OH274332   6.754   3.010  15.815  0.3169  0.7787  0.2608
17614TIP3    H174333   6.666   3.046  15.814 -0.4383 -0.6148  3.3948
17614TIP3    H274334   6.801   3.063  15.879  0.7689 -0.3847  0.9345
17615TIP3   OH274335   2.519   3.288  13.820  0.5636  0.1989  0.6230
17615TIP3    H174336   2.604   3.315  13.785  1.0292 -1.9419 -0.0836
17615TIP3    H274337   2.535   3.201  13.857 -1.2583 -0.1164  0.7697
17616TIP3   OH274338   2.793   3.506  13.412  0.1744 -0.1933 -0.2575
17616TIP3    H174339   2.811   3.580  13.469 -0.6809 -0.5868  0.5488
17616TIP3    H274340   2.717   3.533  13.361 -0.0571 -0.4606 -0.0564
17617TIP3   OH274341   2.406   5.270  12.182  0.1407 -0.3799  0.1208
17617TIP3    H174342   2.431   5.187  12.142  1.7285  1.2139 -2.5294
17617TIP3    H274343   2.489   5.317  12.193 -0.5119  0.2032  3.3252
17618TIP3   OH274344   3.281   5.116   3.038 -0.0502 -0.0591 -0.2267
17618TIP3    H174345   3.285   5.097   2.944 -0.5008 -0.8435 -0.0940
17618TIP3    H274346   3.367   5.152   3.059 -0.7091  2.5202 -1.4431
17619TIP3   OH274347   6.644   4.006  13.988  0.1668  0.8547  0.5756
17619TIP3    H174348   6.626   4.035  13.898  0.9912 -2.2528 -0.7274
17619TIP3    H274349   6.559   3.979  14.022  0.1836 -0.4571 -0.3261
17620TIP3   OH274350   0.111   5.457   3.072 -0.3480 -0.0330  0.1691
17620TIP3    H174351   0.196   5.472   3.031 -0.1693 -0.7998  0.2439
17620TIP3    H274352   0.074   5.382   3.024 -0.8245  0.0723  0.3674
17621TIP3   OH274353   3.015   4.189  13.702  0.0607  0.2418 -0.2506
17621TIP3    H174354   3.090   4.240  13.733 -1.5984  1.5997  1.8293
17621TIP3    H274355   3.012   4.113  13.761  1.8599 -1.8711 -2.6390
17622TIP3   OH274356   6.214   3.172  11.932 -0.2333 -0.0824  0.1453
17622TIP3    H174357   6.309   3.164  11.929  0.1673  1.8226  3.2941
17622TIP3    H274358   6.187   3.105  11.996 -0.7210  0.7738  0.8596
17623TIP3   OH274359   5.378   3.555  16.748 -0.0957  0.0298 -0.3360
17623TIP3    H174360   5.303   3.497  16.731 -0.1754 -0.1001  0.3987
17623TIP3    H274361   5.432   3.548  16.670 -0.5502 -0.3542 -0.6243
17624TIP3   OH274362   5.487   0.733   5.614 -0.1905  0.5088  0.3441
17624TIP3    H174363   5.535   0.804   5.572 -0.3816  0.2734 -0.2853
17624TIP3    H274364   5.452   0.772   5.695  0.6297  0.8126  0.5598
17625TIP3   OH274365   4.289   4.233  14.256  0.0290 -0.3927  0.3549
17625TIP3    H174366   4.367   4.213  14.204  0.4351 -1.5083  1.3407
17625TIP3    H274367   4.216   4.221  14.196  0.5880  0.3726 -0.5057
17626TIP3   OH274368   4.024   5.075  17.271 -0.4000 -0.3658 -0.1765
17626TIP3    H174369   4.027   5.112  17.182 -2.8601 -0.6204 -0.4385
17626TIP3    H274370   4.025   4.981  17.257 -1.6222 -0.4130 -0.0104
17627TIP3   OH274371   0.379   6.261  12.847  0.2123  0.3972 -1.0501
17627TIP3    H174372   0.319   6.265  12.773 -4.0184  3.5669  2.0484
17627TIP3    H274373   0.338   6.199  12.907  1.2114  0.9910  0.2942
17628TIP3   OH274374   5.026   4.044  13.322  0.0870 -0.2540 -0.0102
17628TIP3    H174375   4.932   4.033  13.329  0.2004 -1.3466 -0.0808
17628TIP3    H274376   5.047   4.020  13.232  0.4621 -0.2720  0.0781
17629TIP3   OH274377   6.148   0.011  13.584 -0.5203  0.6849  0.3191
17629TIP3    H174378   6.127   0.091  13.537 -0.3664  0.6913  0.2619
17629TIP3    H274379   6.072  -0.046  13.569 -1.2613  1.3202  1.4985
17630TIP3   OH274380   2.802   6.526  14.542 -0.0496  0.2153 -0.0424
17630TIP3    H174381   2.817   6.439  14.580  1.1765  0.6473  0.5108
17630TIP3    H274382   2.804   6.586  14.617 -0.0467  0.8093 -0.5094
17631TIP3   OH274383   3.005   0.827  11.108  0.6610 -0.7094 -0.5407
17631TIP3    H174384   2.915   0.799  11.124  0.7043 -0.3426  0.4004
17631TIP3    H274385   3.018   0.811  11.014 -0.1251 -1.4836 -0.5370
17632TIP3   OH274386   2.365   4.685   1.917 -0.0974 -0.8265  0.2338
17632TIP3    H174387   2.372   4.695   1.822  0.1481  1.8244  0.4499
17632TIP3    H274388   2.426   4.614   1.938  2.7354  0.9503 -1.2589
17633TIP3   OH274389   2.540   2.689   2.214 -0.4865 -0.1703  0.1542
17633TIP3    H174390   2.594   2.732   2.280 -0.2482 -0.7967  0.3740
17633TIP3    H274391   2.461   2.661   2.261 -1.5199  1.6900 -0.3894
17634TIP3   OH274392   2.719   2.784  14.254  0.4150  0.5635 -0.4360
17634TIP3    H174393   2.649   2.840  14.289  0.8006  1.8669 -1.6759
17634TIP3    H274394   2.790   2.791  14.318  0.3387  1.2549 -0.4192
17635TIP3   OH274395   1.880   4.458   6.376  0.2412 -0.1713 -0.2837
17635TIP3    H174396   1.931   4.426   6.451 -0.2947 -0.0237  0.1568
17635TIP3    H274397   1.883   4.386   6.313 -1.9969 -1.7071  1.1843
17636TIP3   OH274398   1.198   0.706   0.498 -0.1953  0.2437 -0.1504
17636TIP3    H174399   1.246   0.786   0.476  1.5243 -0.9436 -0.8792
17636TIP3    H274400   1.262   0.650   0.541 -1.9139  0.0255  2.2996
17637TIP3   OH274401   3.716   1.563   1.222 -0.3666  0.1349  0.3835
17637TIP3    H174402   3.712   1.657   1.240  3.4781  0.4109  0.7841
17637TIP3    H274403   3.699   1.521   1.306  2.2739  0.7740  1.3361
17638TIP3   OH274404   5.713   0.720  12.605  0.1724  0.0051  0.5140
17638TIP3    H174405   5.631   0.768  12.611  0.5537  0.7201  0.1370
17638TIP3    H274406   5.771   0.763  12.668  0.2613 -0.4858  0.7698
17639TIP3   OH274407   0.488   5.226  13.219  0.4762  0.0510 -0.1123
17639TIP3    H174408   0.558   5.213  13.155  0.8820 -2.4685  0.7287
17639TIP3    H274409   0.442   5.143  13.221 -0.5365  0.6039  1.7039
17640TIP3   OH274410   5.426   0.814   4.458 -0.5131 -0.1470  0.1717
17640TIP3    H174411   5.473   0.733   4.480  0.4467  0.1415 -0.7451
17640TIP3    H274412   5.405   0.853   4.543 -0.2124 -0.9135  0.6098
17641TIP3   OH274413   0.937   4.059   2.680  0.6086 -0.4327 -0.0522
17641TIP3    H174414   0.870   4.017   2.625  0.3487  0.5519 -0.5135
17641TIP3    H274415   0.939   4.007   2.760  0.3262 -1.3439 -0.6200
17642TIP3   OH274416   6.308   0.892  14.730 -0.0418 -0.1593  0.2335
17642TIP3    H174417   6.268   0.806  14.717 -0.6583  0.1976 -0.2409
17642TIP3    H274418   6.402   0.875  14.724 -0.1949 -0.4758 -2.0511
17643TIP3   OH274419   3.196   3.307  16.496 -0.0395  0.8352  0.0117
17643TIP3    H174420   3.107   3.338  16.477  0.0711  2.2387  1.5622
17643TIP3    H274421   3.192   3.279  16.587  1.4051  2.1880  0.5364
17644TIP3   OH274422   5.067   5.056   6.204  0.5846 -0.0782  0.0470
17644TIP3    H174423   4.989   5.063   6.258 -0.0807  0.3178 -0.9377
17644TIP3    H274424   5.092   5.147   6.186  0.6099 -0.1999 -0.5692
17645TIP3   OH274425   4.457   6.323   3.752  0.3990  0.4705  0.0878
17645TIP3    H174426   4.466   6.228   3.751  0.9473  0.5247 -0.1899
17645TIP3    H274427   4.503   6.353   3.674 -1.1906  0.8505 -0.7555
17646TIP3   OH274428   4.949   5.051  16.289  0.5485 -0.4168 -0.3564
17646TIP3    H174429   5.017   4.995  16.253 -1.0223 -2.2970 -0.5930
17646TIP3    H274430   4.987   5.139  16.289  2.7952 -1.3235 -0.8083
17647TIP3   OH274431   4.660   6.414   6.369 -0.5453  0.3464  0.6064
17647TIP3    H174432   4.685   6.326   6.396 -0.9958  0.0230 -0.0061
17647TIP3    H274433   4.739   6.467   6.381 -0.2022 -0.1949  0.7376
17648TIP3   OH274434   2.212   2.390  11.619 -0.1388  0.4877  0.8269
17648TIP3    H174435   2.156   2.337  11.562  1.2961  0.5440 -0.7007
17648TIP3    H274436   2.261   2.326  11.671 -1.1196  0.4280  1.7083
17649TIP3   OH274437   3.246   0.637  13.361  0.0848 -0.7753  0.7443
17649TIP3    H174438   3.194   0.597  13.292  0.1698 -0.3884  0.4555
17649TIP3    H274439   3.306   0.568  13.388  3.1049  0.2202 -2.5843
17650TIP3   OH274440   3.398   3.948  16.953 -0.1515 -0.0005 -0.5302
17650TIP3    H174441   3.442   3.984  16.876  0.4829 -0.1516 -0.2437
17650TIP3    H274442   3.469   3.913  17.008 -0.4154  1.6317  0.9354
17651TIP3   OH274443   3.917   0.632  13.096  0.0546 -0.1026 -0.4828
17651TIP3    H174444   3.918   0.727  13.106 -0.6447 -0.0726 -0.5981
17651TIP3    H274445   3.993   0.612  13.043  0.4196  0.3528 -0.1391
17652TIP3   OH274446   2.972   2.374  16.118  0.3999  0.2431  0.1522
17652TIP3    H174447   3.006   2.406  16.034  0.2879  1.4405  0.5315
17652TIP3    H274448   2.988   2.280  16.117 -0.0619  0.1614 -1.4204
17653TIP3   OH274449   5.157   0.628   1.068 -0.1239 -0.1850 -0.2386
17653TIP3    H174450   5.245   0.665   1.071 -0.5753  1.1203 -1.7221
17653TIP3    H274451   5.169   0.539   1.034  0.7689 -0.6599  1.2662
17654TIP3   OH274452   4.614   1.595  16.491  0.0302  0.0620  0.6736
17654TIP3    H174453   4.621   1.687  16.516 -1.2076  0.7056 -1.1421
17654TIP3    H274454   4.521   1.579  16.479  0.1726 -1.5932  1.4519
17655TIP3   OH274455   1.900   2.377   2.189  0.5240  0.0726 -0.2842
17655TIP3    H174456   1.927   2.302   2.136  1.4873  0.9611 -1.0942
17655TIP3    H274457   1.805   2.370   2.195  0.6849 -1.9255  0.7709
17656TIP3   OH274458   0.846   0.908  11.402 -0.0323  0.1077  0.4237
17656TIP3    H174459   0.835   0.889  11.495  1.4606  0.2524  0.6474
17656TIP3    H274460   0.821   1.000  11.393 -2.5731 -0.5216  0.1996
17657TIP3   OH274461   4.669   0.358  17.064 -0.2630  0.4924 -0.3406
17657TIP3    H174462   4.629   0.322  17.144 -2.9188  1.9259 -0.9167
17657TIP3    H274463   4.701   0.444  17.091  2.6023 -0.5887  0.0850
17658TIP3   OH274464   0.756   6.127  14.713 -0.3070 -0.4146 -0.1686
17658TIP3    H174465   0.762   6.034  14.694 -0.4954 -0.6774  1.0267
17658TIP3    H274466   0.703   6.133  14.792  0.6602  0.6398  0.4314
17659TIP3   OH274467   2.550   2.898   5.713 -0.1680  0.1988 -0.6853
17659TIP3    H174468   2.574   2.807   5.693  0.3986  0.0877  0.4710
17659TIP3    H274469   2.464   2.891   5.754 -0.3973  0.2463 -1.1504
17660TIP3   OH274470   3.416   3.198   1.338  0.4439  0.1981 -0.6570
17660TIP3    H174471   3.503   3.235   1.331 -0.4259  2.9433  1.3166
17660TIP3    H274472   3.363   3.247   1.274  0.4327 -2.1239 -2.5714
17661TIP3   OH274473   2.779   2.162  12.803 -0.4903 -0.1304  0.2732
17661TIP3    H174474   2.805   2.142  12.713 -0.9270 -1.9401  0.5064
17661TIP3    H274475   2.794   2.080  12.851  0.6267  1.0501  2.0757
17662TIP3   OH274476   0.080   6.266   4.338  0.0253 -0.1094  0.7198
17662TIP3    H174477   0.000   6.309   4.307  0.8748 -0.4527 -2.2254
17662TIP3    H274478   0.124   6.332   4.391 -1.8528  0.2908  1.8782
17663TIP3   OH274479   0.897   3.849   4.259 -0.9499  0.4264 -0.4198
17663TIP3    H174480   0.829   3.916   4.262 -0.8463  0.5112  0.3216
17663TIP3    H274481   0.907   3.828   4.166 -0.6668  1.7649 -0.7113
17664TIP3   OH274482   5.139   4.661   1.016  0.3236 -0.1416  0.2428
17664TIP3    H174483   5.149   4.726   0.946  0.8862 -0.3378  0.1312
17664TIP3    H274484   5.051   4.626   1.003 -0.1479  0.8907  0.5692
17665TIP3   OH274485   0.623   1.321   5.694  0.0809  0.4637 -0.2185
17665TIP3    H174486   0.699   1.341   5.640  0.2200  1.1792  0.2325
17665TIP3    H274487   0.657   1.266   5.765  0.4695  1.9268  0.7743
17666TIP3   OH274488   2.530   6.597   4.098 -0.1602 -0.0235 -0.1562
17666TIP3    H174489   2.444   6.561   4.120 -0.3402 -1.0764 -2.2934
17666TIP3    H274490   2.529   6.604   4.002  1.7312  1.0192 -0.1513
17667TIP3   OH274491   2.723   4.720   1.998 -0.1846  0.2065  0.2331
17667TIP3    H174492   2.719   4.708   1.903  0.2927 -0.4916  0.2960
17667TIP3    H274493   2.700   4.634   2.034 -0.4683  0.4945  0.7517
17668TIP3   OH274494   2.104   2.545   5.928 -0.7979 -0.1006 -0.4361
17668TIP3    H174495   2.112   2.559   6.022 -0.5429 -1.2324 -0.2867
17668TIP3    H274496   2.192   2.560   5.894 -1.0799  1.2721 -0.6502
17669TIP3   OH274497   4.141   5.871   4.464 -0.0856  0.0585  0.2052
17669TIP3    H174498   4.178   5.956   4.486 -1.1276  1.1321 -1.9355
17669TIP3    H274499   4.193   5.841   4.390 -0.0345 -0.9782  0.6415
17670TIP3   OH274500   5.162   5.143  14.372  0.1777 -0.6548 -0.5592
17670TIP3    H174501   5.202   5.229  14.370 -1.1063 -0.0036  0.3634
17670TIP3    H274502   5.162   5.118  14.464 -0.1661 -1.2868 -0.7208
17671TIP3   OH274503   4.644   4.496  16.437 -0.1145 -0.0514 -0.7261
17671TIP3    H174504   4.667   4.560  16.505 -0.9948  0.1819 -0.6373
17671TIP3    H274505   4.727   4.451  16.418  0.5934  1.3124 -1.0005
17672TIP3   OH274506   3.426   4.025   4.871  0.0665 -0.2869  0.4824
17672TIP3    H174507   3.465   4.110   4.849 -0.6603 -0.0139  0.2146
17672TIP3    H274508   3.497   3.962   4.859  0.4099  0.1912 -0.0681
17673TIP3   OH274509   1.489   1.538  14.924 -0.2980  0.0450  0.3669
17673TIP3    H174510   1.498   1.450  14.959 -0.2498 -0.6973 -1.3731
17673TIP3    H274511   1.577   1.576  14.930 -0.4279  0.1803  1.5825
17674TIP3   OH274512   2.465   0.786   0.493 -0.0389  0.2987 -0.0981
17674TIP3    H174513   2.549   0.805   0.535 -0.6114  0.1108  1.1780
17674TIP3    H274514   2.415   0.739   0.560 -0.5361 -1.1280 -1.4142
17675TIP3   OH274515   2.215   4.606   2.520 -0.1631 -0.1827  0.6107
17675TIP3    H174516   2.197   4.575   2.431 -0.0694 -1.0402  0.8736
17675TIP3    H274517   2.277   4.542   2.555 -0.8841 -0.3705  1.5943
17676TIP3   OH274518   4.565   5.510   4.631 -0.1658  0.2851  0.3751
17676TIP3    H174519   4.584   5.516   4.538  2.1891 -0.7491  0.7174
17676TIP3    H274520   4.510   5.432   4.640  0.1286  0.0214 -0.0881
17677TIP3   OH274521   0.848   4.845  14.661  0.4392  0.3345 -0.1342
17677TIP3    H174522   0.911   4.890  14.719 -0.9389  0.8140  1.0517
17677TIP3    H274523   0.900   4.777  14.619  1.9289  1.1795  0.2373
17678TIP3   OH274524   2.331   6.799   5.845  0.1010 -0.2546 -0.3653
17678TIP3    H174525   2.393   6.841   5.905 -0.7689  1.5493 -0.6632
17678TIP3    H274526   2.348   6.705   5.854  0.8103  0.0319  1.8052
17679TIP3   OH274527   2.938   6.319  11.964 -0.9519 -0.0887  0.2424
17679TIP3    H174528   2.958   6.312  11.871 -0.9466  0.3375  0.2128
17679TIP3    H274529   2.940   6.412  11.983 -1.3518 -0.1466  0.5875
17680TIP3   OH274530   2.732   4.746  13.367 -0.7362  0.4162  0.4807
17680TIP3    H174531   2.807   4.768  13.312 -1.0321  2.8987  0.9451
17680TIP3    H274532   2.768   4.738  13.455 -1.0775  2.7359  0.8986
17681TIP3   OH274533   3.562   4.725  12.462  0.1442 -0.2445 -0.0355
17681TIP3    H174534   3.547   4.749  12.370 -2.9248  0.6825  0.5963
17681TIP3    H274535   3.654   4.744  12.477 -0.1570  3.6858 -1.8339
17682TIP3   OH274536   0.891   0.632  16.467  0.4275 -0.0892 -0.3538
17682TIP3    H174537   0.934   0.590  16.393 -0.9361  0.0509 -1.2463
17682TIP3    H274538   0.817   0.575  16.488  1.5355 -0.8611  1.8053
17683TIP3   OH274539   3.211   3.935   0.381 -0.3103 -0.1536 -0.2028
17683TIP3    H174540   3.165   3.852   0.396  0.4015 -0.8355 -1.5414
17683TIP3    H274541   3.159   3.979   0.314  0.5078 -0.5721 -1.1462
17684TIP3   OH274542   1.320   6.153  14.872  0.3847 -0.1534  0.2859
17684TIP3    H174543   1.360   6.223  14.821  1.4611 -0.8638  0.1394
17684TIP3    H274544   1.226   6.170  14.866  0.5161  0.0940 -1.4944
17685TIP3   OH274545   3.907   4.533   4.665  0.0504 -0.4255 -0.2202
17685TIP3    H174546   3.962   4.591   4.718 -0.4300 -0.3248  0.1814
17685TIP3    H274547   3.969   4.482   4.613  0.6121 -1.4613  1.3893
17686TIP3   OH274548   5.922   6.241   5.584  0.7212  0.1171  0.0793
17686TIP3    H174549   5.861   6.171   5.559 -0.0816  0.7765  0.1675
17686TIP3    H274550   5.879   6.322   5.557  0.6459  0.7366  1.8898
17687TIP3   OH274551   6.426   0.220   6.218  0.3297 -0.6586  0.1224
17687TIP3    H174552   6.341   0.255   6.242  0.5075 -0.6481  0.7597
17687TIP3    H274553   6.448   0.159   6.289  0.1452 -1.8724 -0.8188
17688TIP3   OH274554   4.793   3.229  15.595  0.8459  0.5364  0.1632
17688TIP3    H174555   4.814   3.146  15.638  0.6917  1.0928  1.3775
17688TIP3    H274556   4.715   3.210  15.543  0.2976  0.1137  1.1060
17689TIP3   OH274557   5.756   5.832   4.617  0.7976 -0.0522  0.1012
17689TIP3    H174558   5.729   5.842   4.709 -0.9144 -1.0280 -0.2567
17689TIP3    H274559   5.842   5.791   4.622 -0.0999 -1.9282  1.2762
17690TIP3   OH274560   0.652   4.540  12.897  0.0733  0.0479  0.2080
17690TIP3    H174561   0.683   4.470  12.840 -0.9713  0.7266 -1.2387
17690TIP3    H274562   0.557   4.531  12.897  0.0376 -1.0942  3.3978
17691TIP3   OH274563   2.497   0.349   3.591  0.0948 -0.4805 -0.0122
17691TIP3    H174564   2.496   0.346   3.686  0.0529 -2.0155 -0.0318
17691TIP3    H274565   2.515   0.258   3.564 -2.4000 -0.6185 -1.4957
17692TIP3   OH274566   0.696   2.411  11.871  0.3204  0.3415 -0.4026
17692TIP3    H174567   0.760   2.380  11.935 -1.1798  0.4942  1.2717
17692TIP3    H274568   0.744   2.417  11.789  2.2710 -0.1253  0.6502
17693TIP3   OH274569   4.399   2.368  11.534 -0.2766  0.4436 -0.0884
17693TIP3    H174570   4.478   2.394  11.487  0.0274  0.2293  0.2931
17693TIP3    H274571   4.377   2.282  11.498 -0.2127  0.4095 -0.0462
17694TIP3   OH274572   0.401   1.566  14.621 -0.3671 -0.0589  0.4645
17694TIP3    H174573   0.340   1.633  14.589  2.3467  1.9846 -0.8352
17694TIP3    H274574   0.430   1.520  14.542  0.0964 -0.7397  1.0149
17695TIP3   OH274575   1.481   3.734  15.502  0.7750 -0.3026  0.3954
17695TIP3    H174576   1.413   3.719  15.437 -0.4393 -0.1162  1.5840
17695TIP3    H274577   1.514   3.646  15.523 -0.8576 -0.6697  1.6127
17696TIP3   OH274578   1.174   4.350   3.699  0.1443  0.9647  0.0188
17696TIP3    H174579   1.193   4.359   3.792  1.5256 -1.0950  0.0208
17696TIP3    H274580   1.260   4.355   3.657 -0.0342 -1.2305 -0.7685
17697TIP3   OH274581   0.771   1.620   4.987 -0.1930 -0.1151 -0.4472
17697TIP3    H174582   0.828   1.678   4.938 -0.2630 -0.3000 -0.7485
17697TIP3    H274583   0.785   1.644   5.079 -1.0034  1.0863 -0.6126
17698TIP3   OH274584   5.895   1.065   2.712  0.2453  0.3646 -0.4979
17698TIP3    H174585   5.861   1.145   2.753  0.5903  1.2128 -1.7773
17698TIP3    H274586   5.871   0.995   2.772 -1.4505  1.2319 -0.0884
17699TIP3   OH274587   0.401   1.381   3.395 -0.0557  0.0577 -0.3151
17699TIP3    H174588   0.467   1.398   3.462  0.0949 -0.7491 -0.2537
17699TIP3    H274589   0.395   1.463   3.346 -0.8008  0.9515  1.2130
17700TIP3   OH274590   4.986   6.254  17.179 -0.0365 -0.1608 -0.1372
17700TIP3    H174591   5.013   6.333  17.226 -0.4469 -0.7573  1.1609
17700TIP3    H274592   4.904   6.228  17.222 -0.2295 -0.9378 -0.9575
17701TIP3   OH274593   4.291   1.309  11.672  0.0634  0.2361 -0.0271
17701TIP3    H174594   4.316   1.218  11.657  2.0948  0.8055 -0.3934
17701TIP3    H274595   4.364   1.346  11.722 -0.6053  1.7328 -0.1090
17702TIP3   OH274596   5.116   1.375  15.343  0.4296  0.5433  0.6750
17702TIP3    H174597   5.177   1.355  15.414 -0.9492 -0.1993  1.7052
17702TIP3    H274598   5.115   1.296  15.290 -0.9647 -0.1861  1.7068
17703TIP3   OH274599   4.974   4.435  13.383  0.2193 -0.4313 -0.2867
17703TIP3    H174600   5.042   4.484  13.430 -0.2770 -0.9094  0.9683
17703TIP3    H274601   5.022   4.387  13.316  1.2109 -1.1595  0.8988
17704TIP3   OH274602   3.766   1.378   0.704 -0.4688 -0.3843  0.2106
17704TIP3    H174603   3.813   1.359   0.785  0.9702  0.5273 -0.3795
17704TIP3    H274604   3.713   1.300   0.688  0.3225 -1.1626  1.2641
17705TIP3   OH274605   0.751   0.696  11.000  0.0255 -0.0107 -0.7641
17705TIP3    H174606   0.741   0.633  11.072  1.6655 -0.0874 -0.5762
17705TIP3    H274607   0.782   0.776  11.042 -0.2009  0.3296 -1.2421
17706TIP3   OH274608   6.199   3.095   1.486 -0.0863  0.7005 -0.2096
17706TIP3    H174609   6.140   3.119   1.415 -0.0748  0.7138 -0.2150
17706TIP3    H274610   6.267   3.162   1.483 -0.0024  0.6135 -0.2854
17707TIP3   OH274611   3.507   1.688   3.664 -0.0793 -0.1985 -0.5667
17707TIP3    H174612   3.559   1.609   3.646  2.3246  1.4867 -1.4836
17707TIP3    H274613   3.457   1.702   3.584  1.2529  0.4329 -1.3232
17708TIP3   OH274614   1.549   3.981   1.855  0.0883  0.1565 -0.0814
17708TIP3    H174615   1.529   4.070   1.884 -0.8979  0.1749 -0.7740
17708TIP3    H274616   1.615   3.993   1.786 -0.7961  0.4534 -0.9075
17709TIP3   OH274617   5.936   1.804  14.054  0.1548 -0.3985  0.3654
17709TIP3    H174618   5.841   1.808  14.058  0.1530 -0.7497  0.8457
17709TIP3    H274619   5.963   1.788  14.145  0.8544  2.6240  0.7888
17710TIP3   OH274620   4.434   1.247   5.340  0.3329 -0.1776 -0.3011
17710TIP3    H174621   4.358   1.293   5.305 -0.5550 -1.5531 -0.2691
17710TIP3    H274622   4.479   1.312   5.394 -0.6509  0.7495 -0.5632
17711TIP3   OH274623   0.792   1.999   1.588  0.2465 -0.0034 -0.1739
17711TIP3    H174624   0.776   1.905   1.595 -2.3558  0.3951  0.2978
17711TIP3    H274625   0.792   2.016   1.493 -0.1786 -0.3541 -0.2409
17712TIP3   OH274626   2.123   3.115   2.476 -0.0775 -0.4612  0.2120
17712TIP3    H174627   2.200   3.171   2.470 -0.8198  0.6019  0.2710
17712TIP3    H274628   2.118   3.071   2.392 -1.0217  1.6893 -0.9384
17713TIP3   OH274629   1.933   2.172  14.602 -0.1959  0.1038 -0.4877
17713TIP3    H174630   1.908   2.082  14.619  0.4465 -0.0236 -0.1824
17713TIP3    H274631   1.920   2.217  14.686  2.8497 -0.4992  0.4373
17714TIP3   OH274632   3.408   2.599   2.195 -0.1277  0.0620 -0.0034
17714TIP3    H174633   3.465   2.556   2.131 -1.5351 -0.5691 -0.8941
17714TIP3    H274634   3.375   2.677   2.149  0.7193  0.9296  0.8312
17715TIP3   OH274635   1.431   5.376  13.471  0.0587  0.1453  0.2314
17715TIP3    H174636   1.344   5.337  13.476  0.4363 -0.7699 -0.1177
17715TIP3    H274637   1.450   5.383  13.378 -0.7641  2.9940  0.1805
17716TIP3   OH274638   4.960   1.626  13.851  0.2940  0.0603  0.3129
17716TIP3    H174639   5.014   1.626  13.771  0.0708  0.0714  0.1604
17716TIP3    H274640   4.877   1.665  13.823  1.1462  2.7140  1.1763
17717TIP3   OH274641   5.537   4.733   0.245 -0.2171  0.0301  0.4963
17717TIP3    H174642   5.469   4.725   0.177  0.0869  1.3861 -0.0013
17717TIP3    H274643   5.573   4.821   0.232  1.0770 -0.3626  1.2822
17718TIP3   OH274644   6.199   2.438   5.206  0.4030 -0.0622  0.2722
17718TIP3    H174645   6.168   2.406   5.290 -0.1681  1.7774  0.8170
17718TIP3    H274646   6.293   2.455   5.219  0.2542  0.4955  0.6433
17719TIP3   OH274647   3.661   5.540   6.241  0.3707  0.3459 -0.2299
17719TIP3    H174648   3.746   5.562   6.203 -0.3402  0.7477 -1.6365
17719TIP3    H274649   3.681   5.521   6.333  1.8441  1.3800 -0.2937
17720TIP3   OH274650   5.496   2.790   3.677  0.2940  0.0923 -0.0036
17720TIP3    H174651   5.477   2.882   3.699  1.6101  0.2023  0.7906
17720TIP3    H274652   5.587   2.791   3.647 -0.1840 -0.7297 -1.5861
17721TIP3   OH274653   6.553   2.479   5.943  0.8801  0.0639  0.0855
17721TIP3    H174654   6.526   2.545   5.880 -0.0782 -1.4168 -1.1200
17721TIP3    H274655   6.528   2.515   6.028 -1.1818  0.5369 -0.6812
17722TIP3   OH274656   1.933   6.695  12.179 -0.3410  0.4262 -0.5829
17722TIP3    H174657   1.886   6.613  12.196  0.9211 -0.1675  0.1626
17722TIP3    H274658   1.869   6.750  12.133 -0.7855 -1.4520 -2.3535
17723TIP3   OH274659   0.113   3.292  14.264  0.3071 -0.4895  0.3695
17723TIP3    H174660   0.027   3.266  14.297  0.2627 -2.0967 -0.9288
17723TIP3    H274661   0.170   3.218  14.285  1.2151  0.2286  0.5011
17724TIP3   OH274662   4.118   4.190   5.760 -0.2724 -0.5220 -0.1270
17724TIP3    H174663   4.199   4.178   5.711 -1.8786 -0.6503 -2.9407
17724TIP3    H274664   4.085   4.276   5.733 -0.1927  0.3948  2.4418
17725TIP3   OH274665   5.904   4.072  11.070 -0.3042  0.1037  0.3765
17725TIP3    H174666   5.842   4.017  11.021 -1.0509  0.2855  1.1010
17725TIP3    H274667   5.902   4.037  11.159 -1.1539  1.5607  0.9794
17726TIP3   OH274668   2.227   0.529   1.112  0.1496  0.3150  0.2960
17726TIP3    H174669   2.151   0.528   1.171  1.3936 -0.9261  1.9954
17726TIP3    H274670   2.254   0.620   1.110 -1.5492  0.8386 -0.5976
17727TIP3   OH274671   0.817   0.476  16.972  0.0963 -0.3353  0.0706
17727TIP3    H174672   0.765   0.518  16.904  0.5889 -0.8645 -0.6467
17727TIP3    H274673   0.759   0.409  17.008  0.2207 -0.8470 -0.6481
17728TIP3   OH274674   1.245   4.950  10.464 -0.1568 -0.1645 -0.4716
17728TIP3    H174675   1.221   4.913  10.379 -0.6046 -0.7449 -0.1013
17728TIP3    H274676   1.167   4.997  10.492  0.4162  1.1156 -0.9469
17729TIP3   OH274677   3.788   2.868  13.211  0.1603 -0.4015  0.1416
17729TIP3    H174678   3.862   2.920  13.180 -1.3021  1.7381  0.0233
17729TIP3    H274679   3.747   2.836  13.130  0.3014 -0.6402  0.1634
17730TIP3   OH274680   4.121   2.302   3.298  0.0080  0.4652 -0.3158
17730TIP3    H174681   4.076   2.230   3.255 -0.9859 -0.2289  1.7350
17730TIP3    H274682   4.076   2.311   3.382  1.7727  1.7807  0.5489
17731TIP3   OH274683   5.464   0.653  12.139 -0.4647  0.0862 -0.6963
17731TIP3    H174684   5.411   0.729  12.161  0.0227  0.1822  0.1931
17731TIP3    H274685   5.528   0.647  12.210 -0.5850 -1.2394 -0.6684
17732TIP3   OH274686   0.088   0.088   5.847 -0.0476  0.1102  0.1809
17732TIP3    H174687   0.108   0.011   5.900 -3.4211 -1.3975 -0.4634
17732TIP3    H274688   0.121   0.162   5.899  1.9961 -1.6087  1.5060
17733TIP3   OH274689   2.715   0.628   2.805  0.3999 -0.5877  0.0047
17733TIP3    H174690   2.688   0.556   2.863 -0.5857 -0.7620 -0.6605
17733TIP3    H274691   2.634   0.665   2.773  0.9091 -1.2374 -2.1953
17734TIP3   OH274692   6.020   3.936   3.577  0.0839  0.2226 -0.7430
17734TIP3    H174693   5.934   3.942   3.537  0.7155 -0.0350 -2.2149
17734TIP3    H274694   6.037   3.841   3.584 -0.3968  0.2348  1.0505
17735TIP3   OH274695   6.262   6.127  16.311 -0.3143 -0.3230  0.6782
17735TIP3    H174696   6.176   6.160  16.336  0.3477  2.1352  0.0060
17735TIP3    H274697   6.256   6.111  16.217  0.0806  0.3731  0.5240
17736TIP3   OH274698   0.282   0.195   4.439  0.1670  0.1317 -0.1129
17736TIP3    H174699   0.291   0.152   4.354  0.9762  0.4220 -0.1854
17736TIP3    H274700   0.355   0.161   4.490  0.0508  0.4374  0.2584
17737TIP3   OH274701   5.761   4.467  14.298  0.3139  0.2565  0.2794
17737TIP3    H174702   5.811   4.447  14.377  0.1213  0.6953  0.5247
17737TIP3    H274703   5.826   4.480  14.230  0.4391 -1.1785  0.1056
17738TIP3   OH274704   6.346   0.873   5.456  0.3579 -0.2475 -0.5750
17738TIP3    H174705   6.320   0.945   5.513 -1.4672  0.0570 -1.7227
17738TIP3    H274706   6.439   0.886   5.441  0.7027  0.1788  1.5601
17739TIP3   OH274707   0.450   0.997  14.357  0.0381 -0.3249  0.1647
17739TIP3    H174708   0.535   1.037  14.375  0.5661 -1.9929  1.5574
17739TIP3    H274709   0.391   1.036  14.421  0.0741 -0.2512  0.1533
17740TIP3   OH274710   4.468   0.324   3.241  0.0692 -0.2551  0.3169
17740TIP3    H174711   4.444   0.233   3.259  1.6239 -0.6087  0.7654
17740TIP3    H274712   4.386   0.373   3.252 -0.7472 -1.5608  0.2699
17741TIP3   OH274713   4.829   0.422   6.225 -0.3941 -0.1860 -0.0887
17741TIP3    H174714   4.811   0.516   6.234  0.4204 -0.1364  1.1566
17741TIP3    H274715   4.898   0.404   6.288  0.6941 -1.2974 -1.5154
17742TIP3   OH274716   5.511   3.068  15.008 -0.0896 -0.4009  0.2737
17742TIP3    H174717   5.441   3.131  14.992  2.0751  2.0722 -0.2716
17742TIP3    H274718   5.537   3.084  15.099  1.9612  1.2762 -0.5132
17743TIP3   OH274719   4.227   2.482  13.764 -0.1447 -0.3520  0.4369
17743TIP3    H174720   4.172   2.405  13.776  0.8385 -1.1464 -0.0189
17743TIP3    H274721   4.196   2.520  13.682  1.6031 -2.2508 -1.2034
17744TIP3   OH274722   0.835   4.870   3.781  0.0500 -0.1568  0.0679
17744TIP3    H174723   0.871   4.902   3.863 -0.5904 -0.4103  0.4520
17744TIP3    H274724   0.874   4.926   3.714  1.7416 -0.8974  0.3922
17745TIP3   OH274725   2.056   2.467  14.862 -0.6368 -0.2529 -0.2334
17745TIP3    H174726   1.996   2.530  14.821 -2.1858 -1.0112  0.7342
17745TIP3    H274727   2.115   2.440  14.791 -0.4538  1.6409 -0.8613
17746TIP3   OH274728   6.586   4.519  11.239  0.7338 -0.4249  0.6765
17746TIP3    H174729   6.511   4.494  11.184 -2.6480  1.7804  3.8474
17746TIP3    H274730   6.615   4.602  11.202 -0.1811  0.0401  0.9727
17747TIP3   OH274731   2.955   0.717   2.734 -0.2458 -0.4384  0.3631
17747TIP3    H174732   2.959   0.813   2.730  0.4354 -0.2861  3.0823
17747TIP3    H274733   2.863   0.698   2.754 -0.5960 -0.4568 -1.1316
17748TIP3   OH274734   6.317   3.010   0.537  0.6640 -0.1906  0.3789
17748TIP3    H174735   6.361   2.970   0.612 -1.1550  1.1894  2.2979
17748TIP3    H274736   6.238   2.957   0.524 -0.3478  1.0835  1.1585
17749TIP3   OH274737   6.131   3.708   0.229  0.2926 -0.4219 -0.1563
17749TIP3    H174738   6.044   3.744   0.248  0.5093  0.7275 -1.2521
17749TIP3    H274739   6.155   3.660   0.309 -0.5688  0.7858  0.8678
17750TIP3   OH274740   4.629   2.174  11.974  0.0134 -0.4339 -0.3899
17750TIP3    H174741   4.583   2.166  11.890 -0.4134 -1.9591 -0.0490
17750TIP3    H274742   4.563   2.151  12.039  0.6410 -0.3506  0.2798
17751TIP3   OH274743   0.847   3.204  14.274 -0.4115  0.1675 -0.4269
17751TIP3    H174744   0.902   3.279  14.250 -4.0271  2.6978 -1.6714
17751TIP3    H274745   0.835   3.156  14.192  2.1923 -2.2306  0.4324
17752TIP3   OH274746   1.021   3.084  13.174  0.4848  0.3407 -0.7737
17752TIP3    H174747   1.036   3.077  13.269 -0.9547  1.0368 -0.4588
17752TIP3    H274748   0.953   3.151  13.166 -0.2579 -0.5503 -2.2376
17753TIP3   OH274749   6.477   6.111  15.128  0.2358 -0.4688 -0.1776
17753TIP3    H174750   6.539   6.069  15.187 -0.2456  0.7099  1.2228
17753TIP3    H274751   6.476   6.202  15.155 -1.6632 -0.3341 -0.5381
17754TIP3   OH274752   6.360   4.713   5.437 -0.0228  0.3062 -0.4462
17754TIP3    H174753   6.283   4.727   5.382 -0.6775  0.5626  0.5106
17754TIP3    H274754   6.379   4.800   5.474  0.3705  0.1305 -0.2298
17755TIP3   OH274755   4.772   0.630  15.081  0.2141 -0.1587  0.2306
17755TIP3    H174756   4.826   0.706  15.103  0.3776  0.0609 -0.8685
17755TIP3    H274757   4.833   0.567  15.042 -0.1044 -0.4252  0.1547
17756TIP3   OH274758   5.449   0.515  14.081 -0.2358  0.1480  0.0248
17756TIP3    H174759   5.519   0.505  14.145  1.3822 -0.8425 -1.7847
17756TIP3    H274760   5.484   0.474  14.001 -2.2734  1.0355 -1.3984
17757TIP3   OH274761   0.318   1.993  13.976 -0.2481 -0.2259 -0.0873
17757TIP3    H174762   0.385   1.992  13.907  1.2340  1.2673  1.2273
17757TIP3    H274763   0.246   2.044  13.938 -0.2937 -1.0819 -1.2066
17758TIP3   OH274764   5.916   1.221   4.628 -0.2758 -0.4623 -0.2356
17758TIP3    H174765   5.833   1.208   4.675  0.0469  0.8746  0.7533
17758TIP3    H274766   5.892   1.217   4.536 -0.9784 -2.8362 -0.0077
17759TIP3   OH274767   6.422   5.188  11.545 -0.1294  0.0852  0.2863
17759TIP3    H174768   6.352   5.198  11.610  0.2402  1.6489  0.4981
17759TIP3    H274769   6.378   5.152  11.468 -0.3290 -3.1962  1.7824
17760TIP3   OH274770   0.543   1.471   6.396  0.8013  0.1249  0.4564
17760TIP3    H174771   0.591   1.501   6.473  1.3859 -0.5696  0.3664
17760TIP3    H274772   0.456   1.509   6.406  0.3869 -1.1788  2.2266
17761TIP3   OH274773   0.183   2.286   4.131 -0.4985 -0.0565  0.3893
17761TIP3    H174774   0.106   2.292   4.188 -0.0246 -1.1745  1.1835
17761TIP3    H274775   0.229   2.369   4.144 -0.6838 -0.0742  1.2354
17762TIP3   OH274776   0.531   3.677   5.183 -0.6168  0.0068 -0.5887
17762TIP3    H174777   0.602   3.685   5.247 -0.2605  0.0364 -0.9838
17762TIP3    H274778   0.575   3.654   5.101 -1.1833 -1.2464 -0.5520
17763TIP3   OH274779   2.950   0.998   2.650 -0.0600 -0.1974 -0.0494
17763TIP3    H174780   3.015   0.972   2.584 -0.2287 -0.2014 -0.2164
17763TIP3    H274781   2.888   1.053   2.602  1.0948  1.7678  0.6259
17764TIP3   OH274782   0.622   4.277  11.723 -0.1925  0.2129 -0.0393
17764TIP3    H174783   0.535   4.258  11.687  0.0639 -1.0348 -0.0382
17764TIP3    H274784   0.670   4.316  11.649 -0.6866  0.7548 -0.0856
17765TIP3   OH274785   4.164   5.470   1.904  0.2133 -0.2110 -0.0930
17765TIP3    H174786   4.253   5.503   1.891  0.3685 -0.7930 -0.5435
17765TIP3    H274787   4.162   5.441   1.995  0.4993 -0.2392 -0.0934
17766TIP3   OH274788   2.247   5.217   6.109 -0.1991  0.3052  0.1597
17766TIP3    H174789   2.271   5.162   6.183  0.7123 -0.1839 -0.4835
17766TIP3    H274790   2.320   5.208   6.047 -1.9281 -1.0710 -1.8021
17767TIP3   OH274791   4.874   6.714  11.671  0.5905  0.1146 -0.3289
17767TIP3    H174792   4.935   6.727  11.743 -0.9362 -0.1977  1.0729
17767TIP3    H274793   4.911   6.640  11.622  0.6248 -1.0261  1.3258
17768TIP3   OH274794   4.572   2.418   1.020  0.7318 -0.2333  0.1252
17768TIP3    H174795   4.616   2.333   1.011  1.4643  0.2921 -1.7321
17768TIP3    H274796   4.638   2.482   0.993 -0.0231  0.8918  0.8621
17769TIP3   OH274797   1.941   6.277   1.417 -0.4109  0.4313  0.6068
17769TIP3    H174798   1.900   6.280   1.503 -2.4025  1.3444 -0.3022
17769TIP3    H274799   1.877   6.232   1.362  1.5530 -1.7025 -0.0889
17770TIP3   OH274800   2.254   5.103  16.686  0.2256  0.3851 -0.0819
17770TIP3    H174801   2.330   5.047  16.701 -0.1298 -0.1642 -0.3157
17770TIP3    H274802   2.195   5.084  16.758  0.1119  0.4726 -0.1511
17771TIP3   OH274803   3.267   6.762  15.045 -0.2526 -0.0498 -0.6839
17771TIP3    H174804   3.195   6.699  15.054  0.5356 -1.1187 -1.5095
17771TIP3    H274805   3.290   6.758  14.952  2.3402 -1.4624 -0.0899
17772TIP3   OH274806   6.229   2.273   0.294 -0.0309  0.0069  0.4694
17772TIP3    H174807   6.180   2.289   0.374  0.1841  0.1406  0.5743
17772TIP3    H274808   6.226   2.178   0.283 -0.7001  0.0517  0.2293
17773TIP3   OH274809   6.072   6.592   2.879 -0.0236  0.0380  0.5167
17773TIP3    H174810   6.107   6.572   2.792 -1.9447  2.3330 -0.9001
17773TIP3    H274811   6.149   6.618   2.929  0.9670 -0.0135 -0.8857
17774TIP3   OH274812   3.810   0.608  14.227  0.1285 -0.0300 -0.2846
17774TIP3    H174813   3.875   0.639  14.164 -0.6108  1.2347 -0.4665
17774TIP3    H274814   3.851   0.533  14.270  0.8596 -0.5992 -1.8949
17775TIP3   OH274815   5.021   5.564   5.409  0.1127 -0.2259 -0.1093
17775TIP3    H174816   5.046   5.619   5.483  1.9866 -0.8283 -0.2484
17775TIP3    H274817   5.028   5.475   5.443 -0.9255 -0.4541 -0.4703
17776TIP3   OH274818   4.747   6.366  15.396  0.2558 -0.5392 -0.0632
17776TIP3    H174819   4.714   6.336  15.481 -0.5082  0.3290 -0.0425
17776TIP3    H274820   4.669   6.374  15.341  0.5582  0.4009 -0.3755
17777TIP3   OH274821   6.122   5.750   0.087  0.6153 -0.3502 -0.3596
17777TIP3    H174822   6.106   5.789   0.001 -1.1006  0.3140  0.2034
17777TIP3    H274823   6.143   5.659   0.069 -0.0589 -0.2990 -1.4890
17778TIP3   OH274824   6.765   4.085   5.861  0.3392 -0.4519  0.0525
17778TIP3    H174825   6.797   4.165   5.819  1.2033  0.4465  2.2330
17778TIP3    H274826   6.670   4.097   5.866  0.3423 -0.0935 -0.6299
17779TIP3   OH274827   5.998   6.385   5.061  0.1773 -0.0413  0.3712
17779TIP3    H174828   5.998   6.398   5.156  0.7446 -2.2683  0.7320
17779TIP3    H274829   5.944   6.456   5.028 -1.0459  0.1169  2.4754
17780TIP3   OH274830   6.297   0.486   2.154 -0.3090 -0.1764 -0.0843
17780TIP3    H174831   6.392   0.474   2.161 -0.1596  1.3755  1.0860
17780TIP3    H274832   6.283   0.579   2.172 -2.0944 -0.4505  0.1320
17781TIP3   OH274833   0.891   4.052  13.992 -0.2864  0.0553 -0.3172
17781TIP3    H174834   0.879   3.967  13.948 -2.3279  0.7702 -1.2569
17781TIP3    H274835   0.982   4.076  13.973 -0.1088 -1.2504 -1.2824
17782TIP3   OH274836   3.923   1.200  12.331 -0.1664 -0.0885  0.1594
17782TIP3    H174837   3.994   1.262  12.316 -1.0132  1.2174  1.2569
17782TIP3    H274838   3.901   1.166  12.244  1.4478 -0.1445 -0.2470
17783TIP3   OH274839   4.544   3.296   5.062 -0.2986  0.3813  0.1579
17783TIP3    H174840   4.627   3.266   5.026 -1.0586 -0.3311 -1.0452
17783TIP3    H274841   4.559   3.389   5.081  0.3043  0.6502 -1.4982
17784TIP3   OH274842   0.280   4.453  15.534 -0.2760 -0.3381  0.7998
17784TIP3    H174843   0.361   4.501  15.518 -0.2783 -0.5177  0.2118
17784TIP3    H274844   0.277   4.441  15.629  0.6544 -0.8000  0.7812
17785TIP3   OH274845   0.651   4.817   4.287 -1.2392 -0.3468  0.4738
17785TIP3    H174846   0.664   4.857   4.201 -1.3905  1.7103  1.3649
17785TIP3    H274847   0.590   4.745   4.271 -0.9938 -0.2195 -1.1773
17786TIP3   OH274848   1.730   2.135  13.458 -0.7341 -0.0949 -0.7780
17786TIP3    H174849   1.709   2.224  13.484 -0.4650 -0.4978  0.9244
17786TIP3    H274850   1.809   2.114  13.508 -0.9957 -1.3995 -0.8849
17787TIP3   OH274851   5.698   1.327  10.716  0.4873  0.1655  0.5133
17787TIP3    H174852   5.669   1.414  10.742 -2.5781  0.1750 -2.2607
17787TIP3    H274853   5.780   1.342  10.669  0.5817  1.4029  1.0615
17788TIP3   OH274854   3.354   5.340  17.168 -0.3087 -0.0639  0.2957
17788TIP3    H174855   3.343   5.321  17.075 -3.0857 -2.0446  0.8956
17788TIP3    H274856   3.281   5.399  17.189 -0.3945 -0.5406  1.4150
17789TIP3   OH274857   4.708   0.335   5.405 -0.0310  0.0803 -0.5297
17789TIP3    H174858   4.630   0.362   5.453 -1.2843  0.5501 -2.6817
17789TIP3    H274859   4.747   0.266   5.458 -1.0455  0.8748  1.3463
17790TIP3   OH274860   5.454   5.941   0.639 -0.0309  0.6614  0.2190
17790TIP3    H174861   5.421   6.019   0.595 -0.3221  0.7544  0.5947
17790TIP3    H274862   5.541   5.965   0.669  0.0054  0.7361  0.0548
17791TIP3   OH274863   1.962   0.051  14.382  0.5520  0.3429 -0.0729
17791TIP3    H174864   1.924   0.002  14.455  1.8852 -0.3324  0.2014
17791TIP3    H274865   2.053   0.064  14.406  0.3302  2.7577 -0.2823
17792TIP3   OH274866   2.114   1.025  13.852 -0.1429  0.3736  0.6247
17792TIP3    H174867   2.117   0.975  13.770  0.2006  0.7303  0.4168
17792TIP3    H274868   2.041   0.987  13.900 -0.4720  0.2929  0.0692
17793TIP3   OH274869   2.366   4.193   4.281  0.4078 -0.0243 -0.2379
17793TIP3    H174870   2.416   4.113   4.299  1.2769  0.7279  0.8880
17793TIP3    H274871   2.381   4.248   4.358 -2.1589  0.2663  0.1449
17794TIP3   OH274872   0.462   3.407  14.319  0.3497  0.2836 -0.1000
17794TIP3    H174873   0.394   3.443  14.377 -0.0368  0.9359 -0.9410
17794TIP3    H274874   0.542   3.411  14.372 -0.0058  0.8028  0.4174
17795TIP3   OH274875   2.528   5.724  12.020 -0.5091  0.4877  0.3944
17795TIP3    H174876   2.449   5.680  11.990  1.8812 -2.8572 -1.7440
17795TIP3    H274877   2.574   5.748  11.939  2.2875 -1.0425  1.4011
17796TIP3   OH274878   5.144   1.433   1.974 -0.2014  0.0136  0.7403
17796TIP3    H174879   5.061   1.387   1.987 -0.3690  0.7607  2.6094
17796TIP3    H274880   5.195   1.413   2.053  1.7981 -1.1426 -0.7265
17797TIP3   OH274881   0.412   2.594  15.152 -0.6853  0.7538  0.3304
17797TIP3    H174882   0.364   2.638  15.082  0.2797  2.2742  0.5851
17797TIP3    H274883   0.448   2.665  15.205  0.2585 -0.3528  1.2210
17798TIP3   OH274884   1.367   2.988  11.764 -0.5836  0.9903 -0.0131
17798TIP3    H174885   1.449   2.961  11.804 -0.2938 -1.3415 -1.9315
17798TIP3    H274886   1.342   3.068  11.810  1.6550  0.5983  2.0408
17799TIP3   OH274887   6.317   3.256   5.282 -0.2003 -0.2171 -0.2052
17799TIP3    H174888   6.313   3.256   5.187 -0.6603 -0.7830 -0.1988
17799TIP3    H274889   6.297   3.165   5.306 -0.0676 -0.0839  0.4272
17800TIP3   OH274890   5.734   3.867  11.724  0.4423 -0.1085  0.0444
17800TIP3    H174891   5.664   3.923  11.691 -0.7534 -1.8252 -0.4173
17800TIP3    H274892   5.693   3.816  11.793  2.0565  1.0109  1.9301
17801TIP3   OH274893   2.737   4.089  16.351 -0.1090 -0.4308 -0.4164
17801TIP3    H174894   2.749   4.174  16.393 -1.0345 -0.7138  0.4605
17801TIP3    H274895   2.691   4.109  16.269 -0.8469 -0.1228  0.0603
17802TIP3   OH274896   2.131   2.406  17.044 -0.1464 -0.2964 -0.0940
17802TIP3    H174897   2.164   2.362  17.122 -1.0197  1.0175  1.0657
17802TIP3    H274898   2.209   2.447  17.005  0.0081  0.8604  1.3333
17803TIP3   OH274899   4.699   6.388   0.418  0.1602  0.2231 -0.3695
17803TIP3    H174900   4.763   6.443   0.373  0.3790  0.0364 -0.2869
17803TIP3    H274901   4.653   6.342   0.347  0.1024  0.3696 -0.4291
17804TIP3   OH274902   0.175   0.955  15.269 -0.0105 -0.8394 -0.3349
17804TIP3    H174903   0.119   1.016  15.221 -0.6571 -0.0439  1.3461
17804TIP3    H274904   0.114   0.907  15.326  0.8931 -0.5856  0.8849
17805TIP3   OH274905   1.628   4.134   3.365  0.1692  0.1782 -0.9294
17805TIP3    H174906   1.718   4.105   3.376  0.4145  0.9271 -0.8755
17805TIP3    H274907   1.593   4.138   3.454  0.0615 -0.1646 -0.9544
17806TIP3   OH274908   1.120   5.199  14.394  0.0411  0.0999 -0.0345
17806TIP3    H174909   1.076   5.133  14.341  0.5935  0.6837 -1.2720
17806TIP3    H274910   1.210   5.167  14.402 -0.0163  0.0650  0.4626
17807TIP3   OH274911   5.970   1.766   2.715 -0.6202 -0.5419 -0.5666
17807TIP3    H174912   6.044   1.825   2.706 -1.1421  0.2476  0.1459
17807TIP3    H274913   6.009   1.678   2.718  0.5133 -0.0509  1.8876
17808TIP3   OH274914   2.451   2.975  14.363  0.0333 -0.0330  0.3794
17808TIP3    H174915   2.415   3.030  14.431 -1.6163  0.7179 -1.0276
17808TIP3    H274916   2.539   3.010  14.347  0.3861 -0.1425  1.9810
17809TIP3   OH274917   6.203   2.385  12.029 -0.1381  0.3034  0.9119
17809TIP3    H174918   6.185   2.438  12.107  0.3879  2.3016 -0.2379
17809TIP3    H274919   6.288   2.417  11.998 -0.2253 -0.6031 -0.3459
17810TIP3   OH274920   5.201   2.433  13.646 -0.1861 -0.3506 -0.1286
17810TIP3    H174921   5.240   2.391  13.723 -1.9575  0.3760  1.2509
17810TIP3    H274922   5.193   2.526  13.671 -1.1850 -0.1820 -1.0125
17811TIP3   OH274923   2.489   1.084   4.504 -0.0703 -0.1672 -1.1762
17811TIP3    H174924   2.425   1.013   4.511  0.9882 -0.9478  1.9331
17811TIP3    H274925   2.439   1.164   4.522 -0.2227 -0.7877  1.4991
17812TIP3   OH274926   2.222   1.659   0.084  0.0370  0.1393 -0.0189
17812TIP3    H174927   2.278   1.628   0.013 -2.9805  0.1705 -2.6491
17812TIP3    H274928   2.169   1.583   0.108 -0.7523  0.8036  0.3947
17813TIP3   OH274929   0.374   5.403  15.901  0.6452  0.0660  0.1175
17813TIP3    H174930   0.461   5.404  15.941  0.6403 -0.3902  0.1449
17813TIP3    H274931   0.388   5.441  15.814  1.0406 -0.7753 -0.2001
17814TIP3   OH274932   0.352   0.712   4.209 -0.1301  0.0925  0.1609
17814TIP3    H174933   0.386   0.624   4.227  2.6054  1.0346  0.1176
17814TIP3    H274934   0.345   0.753   4.296 -1.4528 -0.1429  0.1866
17815TIP3   OH274935   3.523   5.342  16.455 -0.3924  0.4467  0.2421
17815TIP3    H174936   3.530   5.276  16.524 -1.8652  0.0894  0.0912
17815TIP3    H274937   3.580   5.413  16.484  2.2899 -1.3701 -0.2443
17816TIP3   OH274938   5.646   2.260  17.175  0.0621 -0.2955 -0.7552
17816TIP3    H174939   5.574   2.258  17.237  0.2731 -0.0977 -0.5020
17816TIP3    H274940   5.714   2.205  17.214  0.1242 -0.3222 -0.8984
17817TIP3   OH274941   3.446   5.684  12.317 -0.2806 -0.2425 -0.5632
17817TIP3    H174942   3.516   5.649  12.373  0.1247  2.6320  0.8620
17817TIP3    H274943   3.468   5.776  12.306 -1.2205 -0.3104 -4.2518
17818TIP3   OH274944   3.981   3.736  16.916  0.5214  0.4325 -0.5362
17818TIP3    H174945   3.885   3.733  16.918  0.4601 -0.0279 -2.2529
17818TIP3    H274946   4.008   3.706  17.002 -0.8846 -1.1013 -0.5829
17819TIP3   OH274947   0.612   1.932   3.264 -0.7837  0.1814  0.3643
17819TIP3    H174948   0.645   1.877   3.194  0.8035 -0.7166  1.7538
17819TIP3    H274949   0.650   2.019   3.247  0.7054 -0.3537  0.8089
17820TIP3   OH274950   2.029   5.842   2.200 -0.4028 -0.5208 -0.0622
17820TIP3    H174951   2.072   5.859   2.116 -0.6160 -0.4888 -0.1660
17820TIP3    H274952   1.979   5.761   2.185 -0.5342 -0.4506 -0.0008
17821TIP3   OH274953   5.702   0.059   0.348 -0.0603  0.6342 -0.2588
17821TIP3    H174954   5.777   0.034   0.402 -1.3840 -1.6690  0.6032
17821TIP3    H274955   5.702   0.155   0.351  1.2911  0.6372  1.8796
17822TIP3   OH274956   5.746   3.005  16.078  0.3498 -0.5695  0.3708
17822TIP3    H174957   5.755   3.079  16.139  2.0894  1.3299 -1.9962
17822TIP3    H274958   5.668   2.959  16.109  0.4299  0.9744  3.2560
17823TIP3   OH274959   3.265   3.190  14.928 -0.5442  0.2682  0.5675
17823TIP3    H174960   3.314   3.108  14.941 -1.1420 -0.1276  0.3692
17823TIP3    H274961   3.193   3.184  14.990 -0.4002  0.8004  0.7837
17824TIP3   OH274962   0.253   4.209   1.155  0.4791 -0.0115  0.7550
17824TIP3    H174963   0.199   4.133   1.131  1.8265 -1.2303  1.3787
17824TIP3    H274964   0.303   4.229   1.075 -0.3142  0.6353  0.4061
17825TIP3   OH274965   1.803   5.398   1.711  0.1206  0.2706 -0.3767
17825TIP3    H174966   1.771   5.388   1.621  1.6932 -0.6341 -0.8602
17825TIP3    H274967   1.824   5.309   1.739  0.2455  0.6170  0.6650
17826TIP3   OH274968   1.083   5.220  16.200  1.0706  0.1588 -0.6757
17826TIP3    H174969   1.051   5.135  16.169 -0.1151  0.6826 -0.9291
17826TIP3    H274970   1.128   5.200  16.282  1.8494 -0.8711 -1.3308
17827TIP3   OH274971   4.974   2.160  11.922 -0.0320 -0.4240 -0.3556
17827TIP3    H174972   5.021   2.197  11.847  1.1594  1.6463  1.3088
17827TIP3    H274973   5.036   2.098  11.961  1.6769  2.5551  2.0384
17828TIP3   OH274974   3.678   5.829  12.863 -0.1392  0.4481 -0.2314
17828TIP3    H174975   3.751   5.848  12.803  1.4362  3.4203  2.3273
17828TIP3    H274976   3.621   5.905  12.856 -0.6675  0.1803  1.0133
17829TIP3   OH274977   6.270   3.224   1.914  0.2685  0.0794 -0.1034
17829TIP3    H174978   6.354   3.222   1.868 -0.6064 -1.0542 -1.7357
17829TIP3    H274979   6.291   3.193   2.002  1.5597 -0.2426 -0.4941
17830TIP3   OH274980   6.199   0.930   3.259  0.2685 -0.1732  0.0631
17830TIP3    H174981   6.270   0.923   3.195 -0.4582  0.2740 -0.8249
17830TIP3    H274982   6.208   0.853   3.314  3.7903  1.7248  2.5033
17831TIP3   OH274983   4.019   0.773   3.846  0.2323 -0.2587  0.3266
17831TIP3    H174984   3.947   0.722   3.885  0.2364  0.1099  0.8271
17831TIP3    H274985   4.016   0.857   3.892  1.3619 -0.4466  0.7745
17832TIP3   OH274986   3.732   3.078  14.421  0.2395 -0.1134  0.0989
17832TIP3    H174987   3.783   3.052  14.344 -0.5050 -0.7021 -0.2060
17832TIP3    H274988   3.645   3.097  14.387 -0.2302 -0.8539  0.8639
17833TIP3   OH274989   5.708   0.577   4.826  0.2130  0.3442  0.0906
17833TIP3    H174990   5.648   0.521   4.873 -2.3334  1.5827 -1.4686
17833TIP3    H274991   5.667   0.663   4.827  2.1363  1.3452 -0.7860
17834TIP3   OH274992   3.650   4.722   4.631  0.1564  0.2048  0.5719
17834TIP3    H174993   3.739   4.690   4.646 -0.2806 -1.6565 -0.4755
17834TIP3    H274994   3.658   4.786   4.560  0.5268 -0.8969 -0.4035
17835TIP3   OH274995   6.523   0.657  15.262 -0.0559 -0.1932  0.6309
17835TIP3    H174996   6.506   0.743  15.224 -0.8109 -0.7895 -0.4323
17835TIP3    H274997   6.598   0.671  15.321 -0.3639  1.2351  0.7088
17836TIP3   OH274998   4.161   1.075   2.346  0.5440  0.3294 -0.1450
17836TIP3    H174999   4.221   1.008   2.379 -0.2359  0.3367  1.3429
17836TIP3    H275000   4.118   1.033   2.271  0.0700 -0.8456  0.7594
17837TIP3   OH275001   1.339   0.821  11.833  0.2618  0.1938  0.0874
17837TIP3    H175002   1.319   0.902  11.786 -1.3609 -0.3466 -0.2224
17837TIP3    H275003   1.264   0.764  11.815  1.1000 -1.1685  0.7752
17838TIP3   OH275004   3.163   4.742  11.993 -0.1983 -0.3436 -0.2604
17838TIP3    H175005   3.171   4.837  11.982 -0.6382 -0.4914 -2.2799
17838TIP3    H275006   3.084   4.719  11.944 -1.6283 -1.4660  2.3637
17839TIP3   OH275007   2.899   6.677   3.401 -0.6220  0.7245  0.2198
17839TIP3    H175008   2.937   6.759   3.433  0.7319 -0.5678  2.1719
17839TIP3    H275009   2.830   6.657   3.464 -1.9996  1.0959 -1.1201
17840TIP3   OH275010   6.264   1.311   2.860  0.2130 -0.0693  0.3691
17840TIP3    H175011   6.328   1.247   2.828  0.7374  1.2964 -1.5498
17840TIP3    H275012   6.314   1.392   2.867 -1.1922  0.9787 -0.9418
17841TIP3   OH275013   1.441   1.199  15.974 -0.4508 -0.8121 -0.4340
17841TIP3    H175014   1.392   1.125  16.010 -1.6894  0.2168  0.0885
17841TIP3    H275015   1.432   1.267  16.041 -0.4813  0.2425 -1.4974
17842TIP3   OH275016   1.124   2.676   1.886  0.2146  0.1186 -0.0803
17842TIP3    H175017   1.050   2.676   1.826 -1.1678 -0.1936  1.5396
17842TIP3    H275018   1.181   2.605   1.855 -1.2883 -1.1410 -0.0723
17843TIP3   OH275019   0.428   5.611  12.897 -0.5763 -0.2629 -0.1346
17843TIP3    H175020   0.514   5.623  12.938 -0.6633 -1.8011  0.5843
17843TIP3    H275021   0.429   5.520  12.867 -2.4696 -0.7879  1.2013
17844TIP3   OH275022   5.887   6.354  13.169 -0.3986  0.2915  0.0435
17844TIP3    H175023   5.878   6.365  13.264 -1.7366  0.9194 -0.1398
17844TIP3    H275024   5.978   6.328  13.157 -0.4006 -0.5182  1.5584
17845TIP3   OH275025   5.566   4.710  13.028  0.0046 -0.2212  0.2650
17845TIP3    H175026   5.572   4.718  13.123  3.4762 -4.2770  0.6205
17845TIP3    H275027   5.643   4.756  12.995 -1.1118  1.0534 -0.6662
17846TIP3   OH275028   2.562   4.984  16.734  0.3069  0.3979  0.2549
17846TIP3    H175029   2.644   5.025  16.764  0.1110 -0.6765  2.4547
17846TIP3    H275030   2.529   4.938  16.811 -1.3994 -0.7947 -1.1244
17847TIP3   OH275031   1.350   1.024  13.233 -0.0404 -0.1404  0.1120
17847TIP3    H175032   1.276   0.969  13.259 -0.3848  1.0574  1.8445
17847TIP3    H275033   1.323   1.062  13.150 -1.0868 -0.2785  0.3697
17848TIP3   OH275034   1.884   0.910   0.247  0.1027 -0.5977 -0.9448
17848TIP3    H175035   1.914   0.865   0.326 -0.7105 -0.3278 -0.4704
17848TIP3    H275036   1.888   0.843   0.178  0.0776 -1.0549 -0.5081
17849TIP3   OH275037   4.847   6.406  12.388  0.2473  0.5016  0.1039
17849TIP3    H175038   4.889   6.328  12.353 -0.3964  0.2877 -0.2137
17849TIP3    H275039   4.785   6.372  12.453 -0.4945  0.6861 -0.4887
17850TIP3   OH275040   1.327   4.004  16.206  0.9992 -0.4367  0.0743
17850TIP3    H175041   1.329   3.959  16.291 -0.8260 -0.3925  0.1941
17850TIP3    H275042   1.309   3.934  16.143 -1.8051 -0.0023  0.2561
17851TIP3   OH275043   1.333   1.726  16.318 -0.0176  0.1181 -0.2441
17851TIP3    H175044   1.423   1.750  16.339 -0.6204  1.9653  0.4601
17851TIP3    H275045   1.280   1.772  16.383 -1.6071  0.9959 -2.0390
17852TIP3   OH275046   2.160   4.140  10.781  0.0579 -0.2337 -0.1368
17852TIP3    H175047   2.240   4.160  10.732  0.3674 -1.8801 -0.3529
17852TIP3    H275048   2.113   4.077  10.727 -1.4144  0.7160 -0.0125
17853TIP3   OH275049   3.085   3.430  12.321  0.2668  0.1765 -0.0690
17853TIP3    H175050   3.089   3.507  12.378  2.3770  0.1150 -0.0770
17853TIP3    H275051   2.998   3.436  12.280  0.1777  2.2650  0.2935
17854TIP3   OH275052   5.248   5.709   1.241 -0.0807 -0.3487 -0.4202
17854TIP3    H175053   5.284   5.763   1.311 -0.6559  0.1925 -0.5289
17854TIP3    H275054   5.237   5.769   1.168 -2.7036 -0.0528  0.1039
17855TIP3   OH275055   4.617   4.948  14.052  0.2840 -0.1991  0.9114
17855TIP3    H175056   4.538   4.896  14.036 -0.2837  0.8723  0.1592
17855TIP3    H275057   4.623   4.954  14.148 -0.8283  0.1240  0.9679
17856TIP3   OH275058   3.264   5.485  12.326 -0.5187 -0.2344  0.6828
17856TIP3    H175059   3.219   5.502  12.409  1.3088  0.2862  1.6343
17856TIP3    H275060   3.337   5.548  12.325 -1.8128  1.4665 -2.4698
17857TIP3   OH275061   0.338   6.033  13.001 -0.1597 -0.1120 -0.5911
17857TIP3    H175062   0.397   5.974  12.954 -0.3829 -1.3135  0.5666
17857TIP3    H275063   0.379   6.044  13.087  0.4302  2.3330 -1.1022
17858TIP3   OH275064   4.572   1.344   5.645 -0.1115  0.1441 -0.2249
17858TIP3    H175065   4.521   1.380   5.717  0.6884  0.9395 -0.0528
17858TIP3    H275066   4.663   1.359   5.669  0.1865 -0.2075 -1.0826
17859TIP3   OH275067   2.047   6.501   5.255 -1.1532 -0.1695 -0.1497
17859TIP3    H175068   2.021   6.593   5.263 -2.2848 -0.2870 -1.9357
17859TIP3    H275069   1.965   6.453   5.263 -0.6028 -1.0357  0.4554
17860TIP3   OH275070   1.512   2.799  16.003  0.6895 -0.7121 -0.3606
17860TIP3    H175071   1.499   2.835  16.090  0.2583 -0.3307 -0.5763
17860TIP3    H275072   1.428   2.757  15.982  1.4367 -2.6369  0.2373
17861TIP3   OH275073   5.641   4.838  11.816 -0.2441  0.2691 -0.0711
17861TIP3    H175074   5.593   4.912  11.852  0.5556  1.0825 -0.6402
17861TIP3    H275075   5.631   4.846  11.721 -2.2655 -1.8079 -0.1008
17862TIP3   OH275076   3.159   5.262  11.902  0.2127  0.2284 -0.3839
17862TIP3    H175077   3.101   5.307  11.841 -0.6962 -1.5916 -0.9241
17862TIP3    H275078   3.140   5.302  11.987  0.0033  1.3609 -0.9338
17863TIP3   OH275079   6.320   3.727   0.580  0.0323 -0.1448 -0.1517
17863TIP3    H175080   6.228   3.717   0.558 -0.8650 -1.0506  3.4125
17863TIP3    H275081   6.341   3.648   0.630  3.2118 -0.6660 -2.0148
17864TIP3   OH275082   5.812   0.715  11.366  0.0655  0.5654  0.2351
17864TIP3    H175083   5.787   0.670  11.285  0.6538  2.4718 -1.0567
17864TIP3    H275084   5.728   0.731  11.410 -0.7317  2.8037 -1.8450
17865TIP3   OH275085   3.521   6.709   3.553 -0.3464 -0.6575 -0.5019
17865TIP3    H175086   3.585   6.691   3.621  0.0506 -3.3634 -1.4692
17865TIP3    H275087   3.445   6.655   3.576 -1.2749  0.4775 -0.7831
17866TIP3   OH275088   2.141   4.654  15.341  0.0901  0.2151 -0.6617
17866TIP3    H175089   2.126   4.718  15.272 -5.4252 -0.9256 -0.9766
17866TIP3    H275090   2.130   4.569  15.298  0.8364 -0.6951  0.8671
17867TIP3   OH275091   4.812   0.423  15.560 -0.1259  0.4420 -0.3519
17867TIP3    H175092   4.859   0.426  15.476  0.7576  1.8353  0.1629
17867TIP3    H275093   4.750   0.351  15.549  0.7534 -0.1607 -1.7885
17868TIP3   OH275094   3.608   3.225   4.723  0.6036 -0.2574  0.6892
17868TIP3    H175095   3.584   3.157   4.661 -1.2631  0.6741  0.3078
17868TIP3    H275096   3.704   3.224   4.725  0.7090 -0.7672 -1.6814
17869TIP3   OH275097   3.670   2.750   4.713 -0.5001  0.0161  0.1256
17869TIP3    H175098   3.724   2.822   4.745  0.8536 -0.6087 -0.6733
17869TIP3    H275099   3.724   2.672   4.724 -1.2429 -0.6342 -0.6953
17870TIP3   OH275100   2.441   0.673   1.911  0.0827 -0.1523 -0.1464
17870TIP3    H175101   2.472   0.647   1.998  0.2038 -0.0758 -0.1667
17870TIP3    H275102   2.521   0.689   1.860  0.1065  3.0642  0.6885
17871TIP3   OH275103   5.534   0.020   3.377 -0.6801 -0.4126 -0.2036
17871TIP3    H175104   5.443  -0.010   3.374 -1.0288  0.6334 -2.3719
17871TIP3    H275105   5.528   0.113   3.398  0.0619 -0.7003  1.4674
17872TIP3   OH275106   5.914   6.198  11.438  0.2477  0.1045 -0.3501
17872TIP3    H175107   5.983   6.133  11.430 -0.9202 -1.0867 -1.1979
17872TIP3    H275108   5.926   6.235  11.526  0.5056 -1.7813  0.4600
17873TIP3   OH275109   1.128   1.454  16.081  0.1477  0.4269  0.3792
17873TIP3    H175110   1.058   1.418  16.135 -0.7976  0.3247 -0.8884
17873TIP3    H275111   1.128   1.401  16.002  0.5340  1.4887 -0.3578
17874TIP3   OH275112   3.846   5.519   4.204 -0.1614 -0.1167 -0.0444
17874TIP3    H175113   3.802   5.602   4.217  2.7062  1.2614  2.1893
17874TIP3    H275114   3.890   5.527   4.119  0.2492  0.7753  0.2381
17875TIP3   OH275115   1.212   1.128   5.342  0.3268 -0.0715  0.2955
17875TIP3    H175116   1.123   1.163   5.351  0.1457 -0.6927  1.0427
17875TIP3    H275117   1.206   1.066   5.269  0.8188  1.9008 -1.5361
17876TIP3   OH275118   6.056   3.820   0.514  0.0652  0.0035 -0.0511
17876TIP3    H175119   5.983   3.805   0.454  0.4638 -1.4199 -0.1984
17876TIP3    H275120   6.016   3.862   0.590 -0.6786  0.4748 -0.6872
17877TIP3   OH275121   3.308   5.646  11.875  0.0084 -0.4585  0.1892
17877TIP3    H175122   3.238   5.636  11.939  1.5192 -2.0008  1.6881
17877TIP3    H275123   3.363   5.716  11.910 -0.1520 -0.0066 -0.4276
17878TIP3   OH275124   3.699   2.306   2.961 -0.8807  0.2837  0.1363
17878TIP3    H175125   3.734   2.221   2.935 -0.7886 -0.3631  2.1747
17878TIP3    H275126   3.756   2.370   2.919  0.9628 -0.7139  0.9836
17879TIP3   OH275127   2.850   4.749   1.062  0.0702  0.2220 -0.1735
17879TIP3    H175128   2.924   4.809   1.070 -0.6188  0.8733  1.7742
17879TIP3    H275129   2.868   4.679   1.124 -0.0260 -0.6719 -1.1177
17880TIP3   OH275130   1.326   2.372   0.894  0.5942 -0.3489 -0.0710
17880TIP3    H175131   1.290   2.287   0.867 -0.7800  0.1815  0.0544
17880TIP3    H275132   1.288   2.387   0.981  0.4988  0.5913 -0.2732
17881TIP3   OH275133   1.007   6.758  12.732  0.0734 -0.5240  0.5761
17881TIP3    H175134   1.065   6.731  12.803  0.7516 -0.3749  0.0881
17881TIP3    H275135   1.044   6.840  12.700  0.8085 -1.4387 -1.0783
17882TIP3   OH275136   6.251   5.589   0.375  0.2821 -0.5535  0.4216
17882TIP3    H175137   6.172   5.573   0.427 -0.6343 -0.6840 -0.9646
17882TIP3    H275138   6.286   5.501   0.358 -1.1495 -0.7701 -1.7356
17883TIP3   OH275139   3.893   6.189  12.049 -0.1657 -0.0409 -1.0558
17883TIP3    H175140   3.987   6.171  12.042 -0.0435  0.1882 -0.1536
17883TIP3    H275141   3.853   6.138  11.979  0.2507 -3.0472  0.7375
17884TIP3   OH275142   1.302   3.362  14.390  0.3102  0.0813 -0.0225
17884TIP3    H175143   1.358   3.371  14.312  0.7180 -2.5339 -0.1289
17884TIP3    H275144   1.228   3.308  14.360  1.2125 -2.2690  1.6464
17885TIP3   OH275145   0.221   5.314   2.686 -0.1936  0.4592  0.5463
17885TIP3    H175146   0.313   5.302   2.664  0.0944  2.3238  0.5229
17885TIP3    H275147   0.186   5.367   2.613 -2.0471 -2.5450 -0.9478
17886TIP3   OH275148   3.086   4.078  13.182 -0.3020 -0.1051  0.0286
17886TIP3    H175149   3.049   4.072  13.270 -0.7692  0.1372 -0.1463
17886TIP3    H275150   3.143   4.154  13.184  0.9572 -1.0190  0.5702
17887TIP3   OH275151   0.912   0.011  12.217  0.2760  0.1230  0.0897
17887TIP3    H175152   0.908  -0.047  12.293 -0.3263  0.7509  0.5490
17887TIP3    H275153   1.005   0.035  12.211  0.0939  1.5916  1.8431
17888TIP3   OH275154   0.443   1.118   5.051  0.0423 -0.1573  0.2918
17888TIP3    H175155   0.412   1.208   5.063 -0.2536 -0.1010 -0.7659
17888TIP3    H275156   0.533   1.128   5.019 -0.7674 -0.1099 -2.2146
17889TIP3   OH275157   2.399   5.595   2.919  0.6277 -0.1500 -0.1223
17889TIP3    H175158   2.394   5.505   2.887  1.5075 -0.7615  1.3524
17889TIP3    H275159   2.328   5.601   2.983 -1.1849  1.0895 -2.1152
17890TIP3   OH275160   3.737   5.062   4.267  0.5945 -0.4546  0.5313
17890TIP3    H175161   3.697   4.994   4.213  0.5473 -0.2230  0.2752
17890TIP3    H275162   3.755   5.018   4.350 -0.0399 -0.6072  0.5984
17891TIP3   OH275163   2.896   4.075   2.457 -0.0495  0.1465  0.7258
17891TIP3    H175164   2.957   4.062   2.384 -0.8157  0.1612  0.0793
17891TIP3    H275165   2.809   4.067   2.419 -0.5158  2.1080  1.2443
17892TIP3   OH275166   2.496   6.333  12.307  0.2094 -0.5278 -0.1325
17892TIP3    H175167   2.497   6.413  12.361 -0.1950 -0.1828 -0.6307
17892TIP3    H275168   2.578   6.337  12.257  1.1114 -1.3881  1.2142
17893TIP3   OH275169   5.458   0.800  10.377 -0.6037  0.0120  0.4602
17893TIP3    H175170   5.482   0.809  10.469 -2.3167 -3.2304  1.3716
17893TIP3    H275171   5.540   0.786  10.331  0.0652 -1.1610  1.9574
17894TIP3   OH275172   0.598   2.307  14.190 -0.4141 -0.1723 -0.2542
17894TIP3    H175173   0.516   2.335  14.150 -0.2423  1.6076  0.5906
17894TIP3    H275174   0.612   2.218  14.155 -2.0852 -0.0637 -1.2993
17895TIP3   OH275175   1.283   2.261  15.132  0.4883  0.0050  0.2086
17895TIP3    H175176   1.207   2.245  15.188 -0.1698 -1.8458 -1.1031
17895TIP3    H275177   1.246   2.290  15.049  1.3159  0.4127 -0.0350
17896TIP3   OH275178   3.906   5.495   0.912 -0.4172  0.0886 -0.4557
17896TIP3    H175179   3.836   5.442   0.951 -0.1965 -0.8890 -1.3538
17896TIP3    H275180   3.898   5.580   0.956  0.4006 -1.1904  2.3824
17897TIP3   OH275181   2.168   1.932   2.755 -0.6611 -0.5991  0.4215
17897TIP3    H175182   2.172   1.837   2.765  0.9203 -1.0251 -2.8725
17897TIP3    H275183   2.259   1.960   2.746 -1.1826  0.9306 -0.5375
17898TIP3   OH275184   3.053   2.688   3.899 -0.0592  0.5712  0.1733
17898TIP3    H175185   2.987   2.729   3.954 -0.3110  0.6982 -0.2260
17898TIP3    H275186   3.106   2.761   3.866  0.0402  0.5009  0.1756
17899TIP3   OH275187   5.361   0.116   1.773 -0.0575 -0.4476  0.5743
17899TIP3    H175188   5.380   0.180   1.842 -0.5892 -0.2692  0.5588
17899TIP3    H275189   5.273   0.084   1.793 -0.4969  0.0916 -0.3858
17900TIP3   OH275190   0.521   2.044  11.007 -0.3224  0.0100 -0.3152
17900TIP3    H175191   0.433   2.071  10.981 -0.8833 -2.3136 -1.0519
17900TIP3    H275192   0.551   1.987  10.936  1.7585  0.6410 -0.0178
17901TIP3   OH275193   2.924   5.779  16.848 -0.5374 -0.2394  0.1615
17901TIP3    H175194   2.964   5.732  16.776  0.5343  1.6866 -0.5798
17901TIP3    H275195   2.833   5.792  16.821 -0.6500 -1.1995  0.0523
17902TIP3   OH275196   5.510   6.623   2.447 -0.1398  0.0738  0.2648
17902TIP3    H175197   5.534   6.608   2.356 -0.3934  0.2327  0.1702
17902TIP3    H275198   5.544   6.547   2.494  1.1120  0.5996  0.2442
17903TIP3   OH275199   6.452   6.588  13.206 -0.0098 -0.0933 -0.2293
17903TIP3    H175200   6.473   6.639  13.284  0.0806  0.2462 -0.4730
17903TIP3    H275201   6.386   6.640  13.160 -0.4684 -0.5529 -0.1071
17904TIP3   OH275202   3.037   6.745  14.144 -0.1996  0.6488  0.1798
17904TIP3    H175203   3.110   6.690  14.114 -0.7892  0.6947 -1.4251
17904TIP3    H275204   3.079   6.818  14.188  0.7085  0.2980 -0.0693
17905TIP3   OH275205   1.391   4.868   1.540  0.3442  0.2463  0.1421
17905TIP3    H175206   1.439   4.947   1.568  1.3737 -0.5166  0.5848
17905TIP3    H275207   1.319   4.861   1.602  0.8983  0.2218  0.7921
17906TIP3   OH275208   3.609   2.443   5.825 -0.4741 -0.6669  0.4110
17906TIP3    H175209   3.600   2.495   5.904 -1.5968 -0.9111  0.4632
17906TIP3    H275210   3.701   2.417   5.823 -0.2506  0.0417  1.1815
17907TIP3   OH275211   2.613   1.663   3.282 -0.0310 -0.3127 -0.1476
17907TIP3    H175212   2.536   1.692   3.232 -0.0699  0.5504  0.3988
17907TIP3    H275213   2.687   1.708   3.241 -0.1220  0.8126  0.8615
17908TIP3   OH275214   4.064   4.142  16.892  0.6374 -0.0811  0.1750
17908TIP3    H175215   4.049   4.115  16.801  0.4497  0.2310  0.1107
17908TIP3    H275216   3.976   4.159  16.927  0.7307  0.1218  0.3130
17909TIP3   OH275217   5.909   0.951   0.730 -0.3636 -0.2234 -0.6278
17909TIP3    H175218   5.857   0.939   0.651 -1.5612 -0.6067  0.1950
17909TIP3    H275219   5.891   0.874   0.783  0.2015  0.1649  0.1464
17910TIP3   OH275220   5.774   1.116  16.185 -0.3986  0.0400 -0.0467
17910TIP3    H175221   5.750   1.192  16.237 -0.5930 -0.5349  0.7308
17910TIP3    H275222   5.825   1.151  16.112 -1.2037  0.9946 -0.1701
17911TIP3   OH275223   2.821   4.248  16.845 -0.4990  0.0145 -0.0248
17911TIP3    H175224   2.888   4.311  16.875  0.8953 -0.7232 -1.4714
17911TIP3    H275225   2.783   4.288  16.767  0.8330 -1.1328 -1.3276
17912TIP3   OH275226   2.727   6.322   2.105  0.1307 -0.0389  0.2420
17912TIP3    H175227   2.675   6.398   2.131 -1.5507 -0.5315 -1.4359
17912TIP3    H275228   2.719   6.261   2.178 -0.1842  0.6102  0.7562
17913TIP3   OH275229   4.326   3.582   1.276 -0.2548 -0.2896  0.0324
17913TIP3    H175230   4.265   3.563   1.347  0.0796  0.7751  0.6318
17913TIP3    H275231   4.387   3.646   1.313  0.5676 -0.5031 -0.8932
17914TIP3   OH275232   0.247   1.111  13.752  0.3313 -0.6113  0.6620
17914TIP3    H175233   0.252   1.174  13.681 -0.8407 -0.1061  1.0091
17914TIP3    H275234   0.260   1.162  13.831  2.2695 -1.2655  0.8211
17915TIP3   OH275235   5.015   6.786  14.684 -0.1415  0.3074  0.2856
17915TIP3    H175236   4.995   6.693  14.690  0.2282  0.0757 -1.5141
17915TIP3    H275237   5.097   6.790  14.634 -0.6748  1.6476 -0.5289
17916TIP3   OH275238   4.006   6.573  11.369  0.4362 -0.3385 -0.4991
17916TIP3    H175239   3.981   6.581  11.277  0.5202  1.2001 -0.4223
17916TIP3    H275240   3.926   6.549  11.414  0.0589  0.3187 -0.8063
17917TIP3   OH275241   2.248   0.599   1.449 -0.0137  0.3346  0.3051
17917TIP3    H175242   2.293   0.660   1.390 -0.4628  0.6382  0.2765
17917TIP3    H275243   2.254   0.640   1.535  0.8181 -0.2045  0.5195
17918TIP3   OH275244   6.415   5.685   0.153  0.4898  0.1270  0.0426
17918TIP3    H175245   6.422   5.746   0.080  0.5173 -0.2606 -0.2816
17918TIP3    H275246   6.334   5.710   0.198  0.1393 -0.0305 -0.4900
17919TIP3   OH275247   6.439   4.221  14.198 -0.7971 -0.2452  0.2975
17919TIP3    H175248   6.453   4.142  14.146 -0.6902  0.2912 -0.5052
17919TIP3    H275249   6.383   4.276  14.143 -0.0524  0.6548  0.4235
17920TIP3   OH275250   2.394   3.991  14.279  0.5607 -0.7564  0.4349
17920TIP3    H175251   2.348   3.907  14.269  0.6657 -0.8471  0.6950
17920TIP3    H275252   2.388   4.032  14.192  0.7297 -1.1488  0.2351
17921TIP3   OH275253   2.305   6.526  11.263  0.7742 -0.6165 -0.3763
17921TIP3    H175254   2.353   6.511  11.181 -0.3194 -0.4176 -1.0771
17921TIP3    H275255   2.351   6.600  11.304  1.4640 -0.8528 -0.7069
17922TIP3   OH275256   4.515   1.042  12.342  0.0243  0.1226 -0.3521
17922TIP3    H175257   4.518   0.947  12.351  2.2050  0.0763 -0.9811
17922TIP3    H275258   4.534   1.076  12.430 -0.6840 -0.0236 -0.1430
17923TIP3   OH275259   5.361   2.992   4.352 -0.0744  0.1491  0.2752
17923TIP3    H175260   5.312   3.070   4.325  0.0287  0.1932  0.2170
17923TIP3    H275261   5.417   2.972   4.277 -0.2508 -0.1026  0.2074
17924TIP3   OH275262   2.973   1.206  11.370 -0.6513 -0.4441 -0.3377
17924TIP3    H175263   3.033   1.281  11.368 -0.2381 -0.7762 -1.3150
17924TIP3    H275264   2.904   1.231  11.431  0.1732  0.1944  0.3567
17925TIP3   OH275265   4.885   3.788   0.960  0.0339  0.1491 -0.4474
17925TIP3    H175266   4.939   3.763   1.035  0.0532  2.6117  0.4424
17925TIP3    H275267   4.942   3.844   0.906 -1.5837  3.1425  0.7161
17926TIP3   OH275268   1.596   1.670  14.306 -0.7582 -0.0976  0.7808
17926TIP3    H175269   1.642   1.753  14.294 -0.6026  0.1635  2.8512
17926TIP3    H275270   1.552   1.655  14.223  0.8930  0.9987 -0.3557
17927TIP3   OH275271   1.091   5.826  11.260  0.0848  0.0921  0.3188
17927TIP3    H175272   1.099   5.812  11.166  0.9447 -0.2681  0.4339
17927TIP3    H275273   1.006   5.868  11.272  0.1398  0.4901 -0.6551
17928TIP3   OH275274   1.358   0.747   4.377 -0.4774  0.3850  0.2950
17928TIP3    H175275   1.271   0.739   4.417 -0.7310 -0.7785 -0.4569
17928TIP3    H275276   1.363   0.838   4.348 -1.5487  0.3945  0.1141
17929TIP3   OH275277   5.355   1.863   1.333 -0.2413 -0.0160  0.7504
17929TIP3    H175278   5.355   1.793   1.398  1.6072  0.7868  1.7001
17929TIP3    H275279   5.424   1.838   1.272 -1.1916 -0.1817 -0.2774
17930TIP3   OH275280   4.133   6.551  14.008  0.3345 -0.6898 -0.0100
17930TIP3    H175281   4.145   6.489  13.936 -1.3417 -1.1880  0.0861
17930TIP3    H275282   4.159   6.635  13.972  2.5070 -1.3915 -0.1955
17931TIP3   OH275283   3.664   0.584  12.334  0.0750  0.6501 -0.2856
17931TIP3    H175284   3.726   0.515  12.359 -0.9391 -0.2944 -0.3056
17931TIP3    H275285   3.592   0.537  12.291 -1.3379  1.5582  0.9937
17932TIP3   OH275286   5.954   3.755  14.087 -0.1056 -0.0010  0.4893
17932TIP3    H175287   5.938   3.735  14.180 -1.6305  0.4417  0.3472
17932TIP3    H275288   5.877   3.719  14.042  0.2682  0.4473 -0.5224
17933TIP3   OH275289   6.460   3.114  14.269  0.2375 -0.5700  0.0954
17933TIP3    H175290   6.492   3.181  14.329  0.0393 -0.4460  0.0628
17933TIP3    H275291   6.446   3.160  14.187 -1.5007 -0.2921  0.5237
17934TIP3   OH275292   4.456   4.182  14.967 -0.3521  0.0641 -0.3323
17934TIP3    H175293   4.543   4.158  14.936  0.2155 -0.1480  1.3026
17934TIP3    H275294   4.423   4.244  14.902  0.6560 -0.5197 -1.4358
17935TIP3   OH275295   0.737   1.940  14.967 -0.2724 -0.6693 -0.4417
17935TIP3    H175296   0.708   1.893  14.889  1.8990 -1.2182 -0.9872
17935TIP3    H275297   0.732   2.033  14.943  0.3228 -0.8335 -1.2509
17936TIP3   OH275298   1.723   5.508  13.429 -0.4084 -0.2757  0.7391
17936TIP3    H175299   1.796   5.447  13.433 -1.6262 -1.8680 -0.1637
17936TIP3    H275300   1.659   5.474  13.491 -0.8666  0.4297  0.6677
17937TIP3   OH275301   6.351   1.844  15.810  0.0855 -0.4914  0.3433
17937TIP3    H175302   6.344   1.813  15.720 -0.5012 -0.9834  0.5512
17937TIP3    H275303   6.352   1.939  15.803 -1.1198 -0.4937 -0.1123
17938TIP3   OH275304   5.767   0.381  11.453 -0.0052 -0.2440  0.1075
17938TIP3    H175305   5.851   0.421  11.476 -0.0759  0.4483 -0.8026
17938TIP3    H275306   5.704   0.452  11.456 -0.1592 -0.2843 -1.3663
17939TIP3   OH275307   2.183   3.848  16.394 -0.3050 -0.6033  0.0783
17939TIP3    H175308   2.168   3.895  16.312 -0.2643 -0.7361 -0.0050
17939TIP3    H275309   2.151   3.759  16.378  0.8462 -0.9815 -0.2115
17940TIP3   OH275310   4.054   4.336  14.651 -0.8782  0.3930  0.1539
17940TIP3    H175311   4.006   4.346  14.569 -2.7470  0.8605  1.2497
17940TIP3    H275312   4.074   4.242  14.656 -0.1408  0.4631 -1.1314
17941TIP3   OH275313   6.438   0.721  14.453 -0.0306  0.1744 -0.1214
17941TIP3    H175314   6.444   0.814  14.471 -0.1019 -0.3182  2.9436
17941TIP3    H275315   6.345   0.703  14.444 -0.1131  0.1861  0.6917
17942TIP3   OH275316   4.238   5.679  11.439  0.2969  0.2355  0.0119
17942TIP3    H175317   4.303   5.650  11.504  0.2364  3.0599  1.5121
17942TIP3    H275318   4.226   5.603  11.382  0.4692 -2.4442  3.1764
17943TIP3   OH275319   2.154   5.368   2.960 -0.1513  0.0489 -0.5312
17943TIP3    H175320   2.227   5.315   2.928  0.0635  0.2526 -0.3823
17943TIP3    H275321   2.134   5.427   2.887 -0.7840 -0.6257 -0.9254
17944TIP3   OH275322   2.578   0.375   1.176  0.2923  0.3726 -0.2657
17944TIP3    H175323   2.619   0.447   1.128  1.7891 -0.3046 -0.0507
17944TIP3    H275324   2.626   0.297   1.149 -0.4843 -0.3799  0.4505
17945TIP3   OH275325   6.010   3.618  16.291  0.1255 -0.0559  0.3505
17945TIP3    H175326   5.947   3.690  16.297  1.1622  0.8508  0.6901
17945TIP3    H275327   6.075   3.637  16.358  1.4160 -0.3203 -0.7723
17946TIP3   OH275328   3.068   2.689   1.490  0.5732 -0.0834 -0.3584
17946TIP3    H175329   2.995   2.671   1.549  0.8356 -0.2564 -0.0795
17946TIP3    H275330   3.037   2.664   1.403  0.2403  0.0146 -0.2675
17947TIP3   OH275331   4.072   2.258  16.703 -0.0228 -0.4391 -0.2091
17947TIP3    H175332   4.105   2.324  16.642 -1.5166 -0.2510 -0.8586
17947TIP3    H275333   4.144   2.244  16.765  0.4028  1.6786 -0.1559
17948TIP3   OH275334   3.781   0.417  15.284 -0.2464  0.0915  0.4066
17948TIP3    H175335   3.701   0.396  15.332 -0.0438 -1.0876  0.2616
17948TIP3    H275336   3.783   0.512  15.281 -2.1424  0.1465 -0.4338
17949TIP3   OH275337   4.394   2.548  16.522  0.1433 -0.1991  0.5547
17949TIP3    H175338   4.399   2.643  16.515 -1.3824 -0.2107 -1.4777
17949TIP3    H275339   4.441   2.516  16.444  0.1474 -1.0918  0.9138
17950TIP3   OH275340   3.483   5.795  16.269  0.1926 -0.2957  0.1548
17950TIP3    H175341   3.404   5.834  16.307  0.2907 -2.2301  2.6534
17950TIP3    H275342   3.458   5.704  16.250  1.8325 -1.0331  1.2722
17951TIP3   OH275343   1.930   6.145  12.179 -0.1087  0.2387  0.2384
17951TIP3    H175344   1.971   6.186  12.103 -0.8770 -1.6566 -1.2499
17951TIP3    H275345   1.985   6.069  12.199 -0.4984  0.1281  0.9429
17952TIP3   OH275346   1.942   4.636  15.541 -0.3574 -0.2095  0.8904
17952TIP3    H175347   1.997   4.662  15.467 -1.9122  0.4370 -0.0998
17952TIP3    H275348   1.969   4.547  15.562 -1.8204 -1.6018 -2.4593
17953TIP3   OH275349   0.097   4.768   5.996 -0.7856 -0.0961  0.4381
17953TIP3    H175350   0.002   4.762   5.980 -0.7501  0.5392 -0.0337
17953TIP3    H275351   0.115   4.695   6.055 -1.3143 -1.1271 -0.6349
17954TIP3   OH275352   6.739   6.467   1.536  0.0571 -0.0179  0.2552
17954TIP3    H175353   6.742   6.407   1.461  1.4673 -1.6614  1.5391
17954TIP3    H275354   6.784   6.546   1.507 -1.7385  0.4642 -1.4403
17955TIP3   OH275355   0.449   2.237   5.449 -0.6240 -0.1605 -0.2427
17955TIP3    H175356   0.443   2.157   5.501 -1.1365  1.0033  1.5803
17955TIP3    H275357   0.491   2.209   5.367 -0.3514 -2.1849  0.5213
17956TIP3   OH275358   2.155   3.217   3.940  0.2014  0.5522  0.4329
17956TIP3    H175359   2.110   3.296   3.909  0.3932  0.7676  0.6967
17956TIP3    H275360   2.248   3.241   3.939  0.2518  0.3674  0.6229
17957TIP3   OH275361   1.787   0.097   0.558  0.0523  0.5749  0.0535
17957TIP3    H175362   1.784   0.057   0.471  3.0728  0.5063 -0.0971
17957TIP3    H275363   1.867   0.065   0.597  0.6025  3.3719  1.4927
17958TIP3   OH275364   4.115   3.345  14.303 -0.0367  0.1112  0.1470
17958TIP3    H175365   4.104   3.250  14.313 -0.1115 -0.1799 -2.0511
17958TIP3    H275366   4.033   3.382  14.335 -0.4172 -0.6614  0.1024
17959TIP3   OH275367   4.131   6.298   5.086 -0.2949  0.2286  0.2669
17959TIP3    H175368   4.132   6.393   5.078 -1.7500  0.4697  2.2592
17959TIP3    H275369   4.178   6.267   5.009  0.1210  2.5449 -0.4833
17960TIP3   OH275370   4.745   1.893   1.985 -0.3499  0.3530 -0.4742
17960TIP3    H175371   4.696   1.811   1.979  0.8536 -0.3212 -1.5397
17960TIP3    H275372   4.684   1.955   2.025 -1.1906 -1.1305  0.6266
17961TIP3   OH275373   5.668   4.591  11.943  0.3244  0.5019 -0.3098
17961TIP3    H175374   5.696   4.616  12.031 -0.3992  0.4967 -0.0793
17961TIP3    H275375   5.644   4.674  11.901  0.3891  0.4702 -0.4114
17962TIP3   OH275376   5.964   0.039  16.772  0.0946  0.1294  0.4791
17962TIP3    H175377   6.046  -0.001  16.800 -1.4074 -1.0138  3.6868
17962TIP3    H275378   5.908   0.039  16.850 -2.7096  1.6010 -1.3263
17963TIP3   OH275379   1.692   0.816   0.061 -0.2945  0.2074  0.1594
17963TIP3    H175380   1.772   0.802   0.012 -1.3053 -0.9502 -1.2478
17963TIP3    H275381   1.716   0.880   0.128  1.3722  1.1791 -1.2727
17964TIP3   OH275382   4.147   4.806  15.719 -0.0750 -0.6893  0.0460
17964TIP3    H175383   4.210   4.829  15.651  0.9378  0.2963  1.2604
17964TIP3    H275384   4.062   4.821  15.679  0.4143 -2.1343 -1.6719
17965TIP3   OH275385   3.850   2.581   2.622 -0.4474 -0.7608 -0.1257
17965TIP3    H175386   3.806   2.638   2.685 -2.0491 -1.2496 -0.7648
17965TIP3    H275387   3.795   2.584   2.544  0.7274 -1.3096 -0.9949
17966TIP3   OH275388   5.439   1.314   1.693  0.2571  0.5623  0.1892
17966TIP3    H175389   5.423   1.328   1.786  0.2066  0.0630  0.2569
17966TIP3    H275390   5.533   1.330   1.683  0.3236  0.2938  0.3843
17967TIP3   OH275391   6.769   0.812  12.277  0.1557  0.3510 -0.2048
17967TIP3    H175392   6.805   0.737  12.324 -0.4625 -0.3048 -0.7529
17967TIP3    H275393   6.690   0.778  12.236 -1.6194  1.9347  1.6623
17968TIP3   OH275394   2.244   2.757  11.923 -0.6268 -0.4688 -0.0828
17968TIP3    H175395   2.311   2.697  11.956 -1.7137 -1.2635  0.7894
17968TIP3    H275396   2.219   2.721  11.838 -0.0705 -0.2666 -0.3332
17969TIP3   OH275397   2.083   2.952  11.391  0.3372 -0.3481  0.6917
17969TIP3    H175398   2.077   2.969  11.297 -0.0282  0.1732  0.8033
17969TIP3    H275399   2.176   2.957  11.410  0.2776  1.6398  0.7084
17970TIP3   OH275400   1.285   0.358  13.609 -0.5881  0.1821  0.1467
17970TIP3    H175401   1.319   0.426  13.551 -1.5694 -1.3547 -2.4164
17970TIP3    H275402   1.363   0.319  13.649  0.2371  0.5812 -1.0178
17971TIP3   OH275403   2.026   1.148   6.823  0.4253  0.1687  0.2279
17971TIP3    H175404   2.032   1.234   6.779 -2.6263 -0.0712 -0.8511
17971TIP3    H275405   2.046   1.085   6.754 -1.1543 -0.0961 -0.0068
17972TIP3   OH275406   5.043   2.198   4.877  0.7186 -0.1283  0.1176
17972TIP3    H175407   5.071   2.112   4.846  1.9362  0.2864  0.0353
17972TIP3    H275408   5.119   2.234   4.923  0.4208  1.1265 -0.3176
17973TIP3   OH275409   4.573   0.031   2.563 -0.9492  0.4565 -0.1411
17973TIP3    H175410   4.592   0.125   2.565 -0.7407  0.4441 -1.0379
17973TIP3    H275411   4.502   0.023   2.500 -0.8884 -0.0038 -0.1524
17974TIP3   OH275412   0.830   6.057   5.139 -0.1656 -1.1084 -0.7548
17974TIP3    H175413   0.924   6.045   5.126  0.5532  2.5733 -0.2217
17974TIP3    H275414   0.817   6.046   5.233  0.3218  0.9077 -0.4026
17975TIP3   OH275415   2.852   2.407  12.872 -0.2415 -0.3426  0.1622
17975TIP3    H175416   2.770   2.444  12.906  0.4012 -0.5277  2.0415
17975TIP3    H275417   2.829   2.318  12.845 -0.9125  0.0345 -0.5569
17976TIP3   OH275418   0.492   4.581  16.841  0.2786 -0.5243  0.8881
17976TIP3    H175419   0.558   4.642  16.808 -2.5764  1.3476 -1.9522
17976TIP3    H275420   0.441   4.632  16.903  0.4861 -1.4540  1.8467
17977TIP3   OH275421   2.891   4.141  14.049  0.4541  0.7228  0.2575
17977TIP3    H175422   2.936   4.201  13.989  0.9653  1.2753  1.1677
17977TIP3    H275423   2.918   4.170  14.136 -0.0248 -0.2609  0.7477
17978TIP3   OH275424   3.242   4.544  13.944  0.2388  0.4198 -0.6219
17978TIP3    H175425   3.234   4.448  13.943 -0.7758  0.4582  0.8563
17978TIP3    H275426   3.192   4.572  13.868  0.3184 -0.2075 -0.9187
17979TIP3   OH275427   2.851   3.993   3.378  0.1013  0.1142 -0.4671
17979TIP3    H175428   2.916   3.923   3.374 -1.2871 -1.2128 -0.6847
17979TIP3    H275429   2.833   4.015   3.286  1.0593  1.2963 -0.3928
17980TIP3   OH275430   3.905   3.465  14.512  0.3796 -0.2672 -0.4519
17980TIP3    H175431   3.925   3.406  14.585 -1.0769  1.0005  1.0241
17980TIP3    H275432   3.810   3.466  14.506  0.2714  2.7278  0.2849
17981TIP3   OH275433   6.400   5.441  16.438 -0.1653 -0.1258 -0.4314
17981TIP3    H175434   6.327   5.499  16.418  0.8704  1.9084  1.1846
17981TIP3    H275435   6.468   5.464  16.375  0.1301  0.2110 -0.0006
17982TIP3   OH275436   0.784   4.439   0.425  0.3226  0.0615  0.2762
17982TIP3    H175437   0.849   4.421   0.493  0.5588  0.0498  0.0500
17982TIP3    H275438   0.715   4.375   0.441  2.0930 -2.6083 -1.7969
17983TIP3   OH275439   4.594   3.232  16.243  0.1776  0.4492  0.3303
17983TIP3    H175440   4.650   3.213  16.319 -0.2223 -0.8773  0.3023
17983TIP3    H275441   4.642   3.196  16.169  0.5826  1.7741 -0.0850
17984TIP3   OH275442   2.282   2.116  13.292  0.0731  0.0439 -0.1855
17984TIP3    H175443   2.338   2.044  13.264 -0.6851 -0.5630 -0.1622
17984TIP3    H275444   2.341   2.192  13.297  0.5732 -0.2239 -1.6816
17985TIP3   OH275445   5.144   1.014   0.442 -0.0728  0.2639 -0.4846
17985TIP3    H175446   5.094   1.056   0.513  0.7838  0.8487 -0.2128
17985TIP3    H275447   5.113   0.923   0.442 -1.1283  0.6084 -0.3227
17986TIP3   OH275448   2.562   2.507   5.186 -0.8008  0.4706  0.1611
17986TIP3    H175449   2.618   2.583   5.168  0.9713 -0.8823 -0.3554
17986TIP3    H275450   2.521   2.486   5.102  0.8284 -0.7133 -0.3947
17987TIP3   OH275451   2.693   5.612   5.239  0.6349 -0.1371 -0.2876
17987TIP3    H175452   2.789   5.621   5.236  0.6714 -0.6105 -0.6795
17987TIP3    H275453   2.661   5.669   5.169  0.6634 -0.3436 -0.4721
17988TIP3   OH275454   2.157   5.888   4.286  0.2885  0.3614  0.1430
17988TIP3    H175455   2.184   5.851   4.202 -1.2009  1.3406 -0.8208
17988TIP3    H275456   2.232   5.939   4.315  0.4719  0.8550 -1.1339
17989TIP3   OH275457   1.605   3.945   4.573  0.2476 -0.3877 -0.0797
17989TIP3    H175458   1.625   3.852   4.581  1.0176 -0.3679 -1.4803
17989TIP3    H275459   1.511   3.948   4.554  0.2557 -0.8911 -0.2068
17990TIP3   OH275460   6.528   1.809  14.971  0.2130 -0.1659  0.1656
17990TIP3    H175461   6.448   1.756  14.967 -0.7610  1.1905  0.7218
17990TIP3    H275462   6.509   1.884  14.914  0.4549  0.9768  1.5467
17991TIP3   OH275463   4.912   5.136  14.731  0.4422 -0.0967 -0.9109
17991TIP3    H175464   4.974   5.085  14.783 -0.5849 -1.1112 -0.6395
17991TIP3    H275465   4.826   5.118  14.771  0.1631  3.1357  0.2500
17992TIP3   OH275466   2.546   5.888  13.235  0.4340 -0.7106 -0.5577
17992TIP3    H175467   2.600   5.912  13.310 -0.8702 -1.8547  0.7848
17992TIP3    H275468   2.499   5.969  13.212  1.6109 -0.0838 -0.8474
17993TIP3   OH275469   6.477   6.230  13.376  0.3519  0.4867  0.2096
17993TIP3    H175470   6.411   6.175  13.334 -0.0079  1.0222  0.0587
17993TIP3    H275471   6.468   6.211  13.470 -1.8293  2.3935  0.5045
17994TIP3   OH275472   3.788   2.962   4.829 -0.0324 -0.0203 -0.5977
17994TIP3    H175473   3.855   2.902   4.861 -1.6337 -0.6852  1.7379
17994TIP3    H275474   3.837   3.036   4.792  1.9593 -1.7073 -1.4928
17995TIP3   OH275475   6.087   5.906  11.599  0.2116 -0.1509 -0.5566
17995TIP3    H175476   6.159   5.855  11.635 -0.0695  0.1045  0.3865
17995TIP3    H275477   6.105   5.996  11.624  0.5340  0.1997 -1.9447
17996TIP3   OH275478   1.477   0.741   3.747 -0.0671  0.2254 -0.4717
17996TIP3    H175479   1.403   0.742   3.807 -1.0925  1.7972 -1.6783
17996TIP3    H275480   1.543   0.797   3.788 -0.7723  1.3123 -0.7590
17997TIP3   OH275481   4.677   6.514  16.789  0.1328  0.0430 -0.0508
17997TIP3    H175482   4.602   6.566  16.759  1.2081  0.9654 -1.2150
17997TIP3    H275483   4.685   6.444  16.724  1.6148  1.2423 -1.2275
17998TIP3   OH275484   6.655   5.982  13.631  0.2944 -0.0029  0.4238
17998TIP3    H175485   6.718   5.975  13.560  0.9964 -0.8459  1.0986
17998TIP3    H275486   6.576   5.938  13.599  0.2870  0.4402 -0.1690
17999TIP3   OH275487   3.713   0.859   3.893 -0.3940  0.0712 -0.4185
17999TIP3    H175488   3.761   0.938   3.868 -0.1734 -0.4964 -1.8538
17999TIP3    H275489   3.770   0.787   3.870  0.3116 -0.5653  2.7592
18000TIP3   OH275490   2.122   0.050  13.318 -0.1529 -0.2557  0.7402
18000TIP3    H175491   2.211   0.060  13.351 -0.8340 -0.7120  2.9059
18000TIP3    H275492   2.132   0.008  13.233  1.7024  0.1055  0.7390
18001TIP3   OH275493   6.523   1.071   5.889  0.0747  0.0399 -0.2308
18001TIP3    H175494   6.560   1.142   5.836 -1.5829 -0.1724 -1.7892
18001TIP3    H275495   6.593   1.005   5.892  0.5956  0.5069 -1.3030
18002TIP3   OH275496   1.842   6.642  14.944 -0.2367  0.1024 -0.2218
18002TIP3    H175497   1.877   6.678  15.025  1.6261  0.3825 -1.0886
18002TIP3    H275498   1.843   6.715  14.882  3.3431 -1.1647 -1.9315
18003TIP3   OH275499   0.569   1.234   5.384 -0.3016  0.0867  0.7215
18003TIP3    H175500   0.594   1.291   5.311  0.4681 -1.6935 -0.4849
18003TIP3    H275501   0.501   1.178   5.348 -1.8185  0.8875  2.2078
18004TIP3   OH275502   3.258   1.878   4.253 -0.1112  0.0119 -0.2749
18004TIP3    H175503   3.266   1.791   4.214  0.2904  0.6794 -1.7531
18004TIP3    H275504   3.303   1.937   4.192 -0.7034  1.3161  0.4814
18005TIP3   OH275505   0.506   2.365  13.863  0.1597 -0.1886  0.0407
18005TIP3    H175506   0.587   2.314  13.857 -0.3785 -1.2306  1.1145
18005TIP3    H275507   0.440   2.309  13.822 -0.2458  0.0935  0.3003
18006TIP3   OH275508   1.855   6.006   6.544  0.5272  0.0391 -0.2918
18006TIP3    H175509   1.923   6.074   6.543  0.1415  0.4316 -0.1715
18006TIP3    H275510   1.785   6.043   6.598  0.1706 -0.3136 -0.5055
18007TIP3   OH275511   2.150   4.225  16.837 -0.0814 -0.0283 -0.1101
18007TIP3    H175512   2.170   4.247  16.928  0.7578  1.2778 -0.5769
18007TIP3    H275513   2.150   4.309  16.792 -3.3566 -0.2930 -0.8351
18008TIP3   OH275514   3.982   2.669  13.318 -0.7792  1.1464 -0.1347
18008TIP3    H175515   3.932   2.727  13.261  0.1072  0.2189 -1.9595
18008TIP3    H275516   3.988   2.586  13.269  2.1931  1.1007  0.0972
18009TIP3   OH275517   4.830   2.575  12.425 -0.1845  0.1021 -0.2144
18009TIP3    H175518   4.737   2.572  12.444 -0.2915  1.6785 -0.2914
18009TIP3    H275519   4.864   2.645  12.482  0.9234 -0.3793 -0.2596
18010TIP3   OH275520   4.308   5.632  11.092 -0.1262  0.0380  0.5680
18010TIP3    H175521   4.362   5.699  11.050 -0.1713  0.4232  1.1122
18010TIP3    H275522   4.230   5.679  11.121 -0.9671 -0.5991 -0.5992
18011TIP3   OH275523   5.317   4.720   0.075  0.5335 -0.3311 -0.0294
18011TIP3    H175524   5.341   4.777   0.002 -3.3244  0.8077 -0.6204
18011TIP3    H275525   5.288   4.639   0.033  0.8065 -0.6826  0.4515
18012TIP3   OH275526   4.026   2.903  15.534 -0.5965  0.2596 -0.3854
18012TIP3    H175527   4.068   2.819  15.515 -0.5982  0.0618  0.4327
18012TIP3    H275528   3.950   2.881  15.588  0.2198  0.8699  1.0926
18013TIP3   OH275529   2.339   2.357   6.482 -0.2270 -0.0159 -0.3229
18013TIP3    H175530   2.249   2.382   6.500 -0.0693  1.7155 -1.6925
18013TIP3    H275531   2.334   2.307   6.401 -0.1391 -1.7193  0.6631
18014TIP3   OH275532   6.697   0.228   0.441  0.5256  0.1422  0.3643
18014TIP3    H175533   6.603   0.243   0.437  0.8173  2.5426  0.8455
18014TIP3    H275534   6.725   0.273   0.521  2.3359  1.2571 -0.8283
18015TIP3   OH275535   5.427   3.039  16.865  0.0423  0.0683  0.2290
18015TIP3    H175536   5.496   3.075  16.810  0.9906 -2.3557 -0.2548
18015TIP3    H275537   5.456   3.058  16.955  1.3697 -0.9007  0.0352
18016TIP3   OH275538   1.763   1.642  12.273  0.1015 -0.1585  0.1022
18016TIP3    H175539   1.724   1.565  12.315 -1.8803  0.2657 -0.8529
18016TIP3    H275540   1.716   1.716  12.309  0.4127  0.4277 -0.6716
18017TIP3   OH275541   2.152   0.699  15.924  0.2394  0.2054  0.0649
18017TIP3    H175542   2.185   0.768  15.981  0.7116 -0.1296  0.2015
18017TIP3    H275543   2.097   0.645  15.980  0.5348 -0.0033  0.1551
18018TIP3   OH275544   4.559   2.916   2.755  0.0434 -1.1190  1.4217
18018TIP3    H175545   4.650   2.886   2.755  0.4966  0.1297  2.4644
18018TIP3    H275546   4.563   3.003   2.794 -1.8534 -1.8313  3.3993
18019TIP3   OH275547   2.722   4.811  14.439 -0.1507 -0.5868 -0.0635
18019TIP3    H175548   2.755   4.754  14.508 -0.1213 -0.8584 -0.3007
18019TIP3    H275549   2.774   4.789  14.362  0.7501  0.6775  0.1602
18020TIP3   OH275550   0.050   4.147  12.279 -0.1444  0.3495 -0.1495
18020TIP3    H175551  -0.000   4.095  12.342 -1.3097 -0.5200 -1.7236
18020TIP3    H275552   0.102   4.206  12.334 -1.1978 -0.2552  1.6189
18021TIP3   OH275553   1.827   1.917   3.073 -0.4256  0.4989  0.5478
18021TIP3    H175554   1.735   1.898   3.054  0.3394 -1.2954 -1.8415
18021TIP3    H275555   1.864   1.833   3.099  0.8537  0.8625 -0.0317
18022TIP3   OH275556   2.524   4.755   2.654 -0.4215  0.0849  0.2319
18022TIP3    H175557   2.606   4.795   2.683  0.6150 -1.0594 -0.9842
18022TIP3    H275558   2.538   4.733   2.562 -1.5527 -1.4434  0.3725
18023TIP3   OH275559   0.997   3.417  14.211  0.1473  0.7786  0.3085
18023TIP3    H175560   1.071   3.357  14.209 -0.5314 -0.2099  2.1434
18023TIP3    H275561   1.015   3.480  14.141  0.6555 -1.7800 -2.0384
18024TIP3   OH275562   3.345   4.495  15.696  0.4423  0.2300 -0.1191
18024TIP3    H175563   3.355   4.547  15.776  2.2630  0.1398 -0.2455
18024TIP3    H275564   3.367   4.557  15.626 -2.6775  0.7709 -0.7468
18025TIP3   OH275565   5.736   5.790  13.785  0.1736  0.3965 -0.2503
18025TIP3    H175566   5.716   5.787  13.879  0.9455 -1.0695 -0.1050
18025TIP3    H275567   5.654   5.763  13.743  0.1329  0.0048  0.0686
18026TIP3   OH275568   6.365   1.891  11.709 -0.1025  0.1057  0.2559
18026TIP3    H175569   6.371   1.889  11.805  0.2712  0.8690  0.2565
18026TIP3    H275570   6.362   1.985  11.688  0.4218 -0.0540 -0.5149
18027TIP3   OH275571   0.874   1.954  15.970 -0.0131 -0.6981  0.1364
18027TIP3    H175572   0.821   1.984  16.044 -0.5064 -0.2962 -0.3791
18027TIP3    H275573   0.826   1.879  15.934  0.3162 -1.0044  0.3214
18028TIP3   OH275574   4.727   2.886  12.744 -0.3998 -0.0214 -0.1079
18028TIP3    H175575   4.731   2.894  12.839 -0.7371  2.5065 -0.2444
18028TIP3    H275576   4.634   2.869  12.726 -0.6035  1.0332 -0.0612
18029TIP3   OH275577   3.141   1.576  11.815 -0.5435  0.3476 -0.2929
18029TIP3    H175578   3.102   1.628  11.745  0.0009  0.9087 -0.1924
18029TIP3    H275579   3.109   1.487  11.800  1.2513 -0.0118 -2.5588
18030TIP3   OH275580   2.598   4.756  11.935 -0.4516  0.0705 -0.0117
18030TIP3    H175581   2.622   4.849  11.937  0.4139 -0.1431  0.0036
18030TIP3    H275582   2.549   4.746  11.853  2.7427 -0.1847 -2.0775
18031TIP3   OH275583   0.175   5.163  10.953  0.6144  0.0312  0.0584
18031TIP3    H175584   0.136   5.200  10.873  0.4663  0.9948  0.5646
18031TIP3    H275585   0.156   5.228  11.021  1.2210 -0.5220  0.7650
18032TIP3   OH275586   0.598   3.383   2.808 -0.6604 -0.0466 -0.5547
18032TIP3    H175587   0.681   3.430   2.804 -1.1271  0.7612 -1.2270
18032TIP3    H275588   0.621   3.295   2.837  0.2733  0.5111  0.5019
18033TIP3   OH275589   0.094   2.898   2.447  0.0441 -0.1134 -0.4462
18033TIP3    H175590   0.066   2.889   2.356 -2.1339 -0.2478  0.1721
18033TIP3    H275591   0.190   2.902   2.443 -0.0194  0.3837 -2.7663
18034TIP3   OH275592   4.338   4.644  13.792  0.6310 -0.6112  0.5154
18034TIP3    H175593   4.429   4.614  13.801  1.1666  1.0735  1.0269
18034TIP3    H275594   4.327   4.656  13.697  1.4166  0.4896  0.5427
18035TIP3   OH275595   1.348   4.148  12.736 -0.1447  0.0616 -0.2355
18035TIP3    H175596   1.308   4.086  12.675  0.8006  0.2364 -1.0636
18035TIP3    H275597   1.280   4.164  12.802 -1.1359 -0.2659 -1.1445
18036TIP3   OH275598   3.480   6.779   6.396 -0.6563  0.4261  0.2801
18036TIP3    H175599   3.509   6.862   6.357 -0.6858  0.2471 -0.1200
18036TIP3    H275600   3.404   6.753   6.344  0.5639 -0.8931 -0.9064
18037TIP3   OH275601   6.551   5.336  14.632  0.0515 -0.1195 -0.2112
18037TIP3    H175602   6.557   5.426  14.664 -0.0297  0.2985 -1.3368
18037TIP3    H275603   6.616   5.330  14.563 -1.0680 -0.4197 -1.2733
18038TIP3   OH275604   0.679   5.519  16.804 -0.3972 -0.3376  0.0050
18038TIP3    H175605   0.711   5.608  16.792 -0.8002 -0.1900  0.0044
18038TIP3    H275606   0.711   5.493  16.891 -0.5680 -0.0670  0.1488
18039TIP3   OH275607   4.690   5.268  11.196  1.1101  0.5742 -0.0763
18039TIP3    H175608   4.777   5.309  11.192  0.6323  1.4796 -1.9616
18039TIP3    H275609   4.630   5.341  11.212  0.4346  0.3856 -1.6052
18040TIP3   OH275610   1.477   6.097   2.752 -0.8606 -0.6502 -0.5707
18040TIP3    H175611   1.473   6.025   2.814  0.6422 -0.4574 -0.1890
18040TIP3    H275612   1.482   6.055   2.666  0.5510 -1.0572 -0.3205
18041TIP3   OH275613   1.486   5.978   0.525  0.0881  0.1646 -0.3286
18041TIP3    H175614   1.478   5.992   0.619  1.1291  3.7353 -0.5948
18041TIP3    H275615   1.549   5.906   0.516  0.4285  0.1623  1.6976
18042TIP3   OH275616   5.731   2.228   5.788 -0.1223  0.2480  0.4589
18042TIP3    H175617   5.703   2.202   5.700  1.4797  0.7106 -0.2094
18042TIP3    H275618   5.651   2.263   5.828 -1.0299 -0.5564 -0.5622
18043TIP3   OH275619   1.197   1.022  13.582 -0.1425  0.3093 -0.5659
18043TIP3    H175620   1.108   0.987  13.594  0.0311 -1.0532 -2.7605
18043TIP3    H275621   1.239   0.962  13.521  1.9364  1.5662 -0.4813
18044TIP3   OH275622   3.074   4.883   0.005  0.2655  0.4291 -0.5126
18044TIP3    H175623   3.060   4.949  -0.062  1.1284  0.1213 -1.0236
18044TIP3    H275624   3.102   4.932   0.082  1.4453  0.6459 -1.0540
18045TIP3   OH275625   1.812   4.078   0.145  0.0298 -0.1965 -0.0310
18045TIP3    H175626   1.795   4.023   0.222  1.5280 -0.0733  0.4083
18045TIP3    H275627   1.798   4.167   0.177  1.8002 -0.0660  0.4486
18046TIP3   OH275628   2.724   1.655  11.638  0.1537  0.2445 -0.5206
18046TIP3    H175629   2.692   1.587  11.698  1.0075  0.7455  0.5321
18046TIP3    H275630   2.688   1.736  11.672 -0.0761  0.4348 -1.2120
18047TIP3   OH275631   5.366   2.971   5.550  0.0764 -0.3647  0.0788
18047TIP3    H175632   5.405   2.930   5.627  0.1824 -1.4911 -0.5525
18047TIP3    H275633   5.427   3.041   5.526  0.1595 -0.1592  0.8721
18048TIP3   OH275634   5.281   5.162   2.834  0.4518  0.6169  0.1218
18048TIP3    H175635   5.292   5.090   2.896 -3.4299 -1.1798 -0.9268
18048TIP3    H275636   5.340   5.141   2.762 -0.3339 -1.3998  0.0084
18049TIP3   OH275637   2.943   4.060  11.359 -0.4880  0.1709 -0.1784
18049TIP3    H175638   2.866   4.028  11.311 -0.1183  0.2877 -0.8508
18049TIP3    H275639   3.001   4.095  11.292 -1.2497  3.1277  0.5862
18050TIP3   OH275640   4.255   2.712   0.057  0.7276  0.2718 -0.1011
18050TIP3    H175641   4.309   2.749   0.127 -0.8562  0.9557  0.8141
18050TIP3    H275642   4.190   2.659   0.103 -0.8718  1.4176 -0.9840
18051TIP3   OH275643   5.254   5.674   5.288  0.5502  0.4671 -0.0200
18051TIP3    H175644   5.321   5.653   5.353 -0.0631 -0.6954  0.2726
18051TIP3    H275645   5.176   5.628   5.319 -0.0517  0.8090 -0.9904
18052TIP3   OH275646   1.760   5.973  15.849  0.2933 -0.3819 -0.2409
18052TIP3    H175647   1.777   5.916  15.924  1.6894 -1.3016 -1.2053
18052TIP3    H275648   1.781   5.919  15.773  0.4205  1.0267 -1.2349
18053TIP3   OH275649   6.104   6.155   4.288  0.1419  0.4153  0.2854
18053TIP3    H175650   6.021   6.173   4.243 -0.1246  1.7329  1.2498
18053TIP3    H275651   6.091   6.070   4.330  0.9504 -1.6786 -3.3019
18054TIP3   OH275652   1.138   0.852  14.631 -0.0502 -0.0443  0.0504
18054TIP3    H175653   1.134   0.868  14.725 -0.4056 -2.0892  0.4315
18054TIP3    H275654   1.227   0.821  14.615  0.5731  1.9629 -0.6255
18055TIP3   OH275655   6.647   2.050  11.900 -0.3357 -0.2863 -0.2024
18055TIP3    H175656   6.733   2.087  11.920 -1.3540  1.2722  1.7363
18055TIP3    H275657   6.607   2.114  11.841 -1.5211  1.0493  1.9265
18056TIP3   OH275658   1.173   3.974  11.965  0.4487 -0.0768  0.3454
18056TIP3    H175659   1.099   4.024  11.999 -1.6405 -2.1154 -0.9778
18056TIP3    H275660   1.176   3.995  11.872 -1.0403 -2.8583 -0.4548
18057TIP3   OH275661   3.958   0.040   1.617 -0.1866 -0.1398 -0.1243
18057TIP3    H175662   3.917   0.094   1.549 -1.2735 -0.6749  0.0977
18057TIP3    H275663   3.894  -0.029   1.636 -0.2558  0.4235  1.9775
18058TIP3   OH275664   0.201   6.610  15.820  0.2722  0.1505 -0.0877
18058TIP3    H175665   0.138   6.559  15.769  0.7785  0.9354 -1.5528
18058TIP3    H275666   0.250   6.545  15.870 -0.1088 -0.6645 -0.7483
18059TIP3   OH275667   1.773   0.009  12.388  0.0990 -0.1600 -0.2269
18059TIP3    H175668   1.761   0.103  12.397  1.7243  0.0159  0.4991
18059TIP3    H275669   1.857  -0.000  12.343  0.2872 -1.2676  0.3145
18060TIP3   OH275670   4.064   4.152   4.550  0.4268  0.3293  0.1099
18060TIP3    H175671   4.042   4.083   4.487 -0.5928 -1.2672  2.1247
18060TIP3    H275672   4.099   4.223   4.495 -0.5443 -0.8976 -2.2668
18061TIP3   OH275673   3.641   3.672   3.569 -0.1437 -0.1375  0.4846
18061TIP3    H175674   3.697   3.615   3.517  1.1688  1.1748  0.3837
18061TIP3    H275675   3.675   3.664   3.659  0.1913  0.6105  0.4349
18062TIP3   OH275676   0.869   0.680  14.024  0.7398  0.3877  1.1723
18062TIP3    H175677   0.814   0.692  13.946 -0.7685 -0.1603  2.1100
18062TIP3    H275678   0.953   0.719  14.000  0.2901  0.3103 -0.6908
18063TIP3   OH275679   5.969   1.225  15.985  0.2904 -0.0732 -0.1052
18063TIP3    H175680   5.981   1.312  15.949  0.4887  0.2367  0.6807
18063TIP3    H275681   6.050   1.179  15.965  0.0285 -0.2061 -0.8679
18064TIP3   OH275682   3.378   2.372  14.244  0.9487  0.0661  0.7117
18064TIP3    H175683   3.387   2.289  14.291  0.4683 -0.1640  0.4096
18064TIP3    H275684   3.294   2.364  14.198  1.9773 -0.2506 -1.2055
18065TIP3   OH275685   5.203   4.631   3.244  0.9156  0.5262  0.1515
18065TIP3    H175686   5.142   4.608   3.314  1.6524 -0.4003  0.4928
18065TIP3    H275687   5.290   4.622   3.282  1.3634 -0.7153 -1.0840
18066TIP3   OH275688   4.569   4.831  10.592  0.0854  0.2349 -0.0804
18066TIP3    H175689   4.481   4.863  10.571 -0.5369 -1.2015  0.2300
18066TIP3    H275690   4.554   4.755  10.648  1.4985 -0.7668 -1.0023
18067TIP3   OH275691   0.542   0.020   4.360  0.3285  0.0237  0.0555
18067TIP3    H175692   0.472  -0.039   4.389  1.3705 -1.0562  0.4795
18067TIP3    H275693   0.557  -0.003   4.269 -1.1240  1.5735 -0.6249
18068TIP3   OH275694   0.050   3.796  15.654  0.1479 -0.5817  0.2450
18068TIP3    H175695   0.034   3.752  15.570 -2.9344  0.2663  0.2709
18068TIP3    H275696   0.137   3.835  15.645  0.1129 -0.9424 -2.3640
18069TIP3   OH275697   5.654   1.204   3.805 -0.7526 -0.2182 -0.0345
18069TIP3    H175698   5.657   1.260   3.883  0.3724 -0.8643  0.4204
18069TIP3    H275699   5.585   1.241   3.751  0.3986  2.0306 -0.0732
18070TIP3   OH275700   5.788   4.068   1.710  0.0551  0.6536  0.3927
18070TIP3    H175701   5.802   4.151   1.664 -1.2293  0.4403 -0.4492
18070TIP3    H275702   5.842   4.005   1.662  2.1203  1.1945  1.8617
18071TIP3   OH275703   6.055   1.174   5.374  0.6556  0.0034  0.8058
18071TIP3    H175704   6.053   1.080   5.387 -0.8436  0.1084  1.4470
18071TIP3    H275705   6.083   1.185   5.283 -2.3178 -1.2023 -0.3621
18072TIP3   OH275706   0.372   4.992  17.006 -0.1935 -0.2969  0.3292
18072TIP3    H175707   0.359   5.057  17.075  0.4149 -1.7057  1.8761
18072TIP3    H275708   0.353   5.038  16.925  0.3250  1.8266  1.3284
18073TIP3   OH275709   2.640   4.924  12.586  0.1727  0.0991  0.2002
18073TIP3    H175710   2.610   4.902  12.674 -0.4828 -1.0080 -0.2797
18073TIP3    H275711   2.727   4.961  12.598  0.1142 -0.1131  1.3027
18074TIP3   OH275712   1.706   6.085   1.942  0.2623 -0.4381  0.5754
18074TIP3    H175713   1.633   6.147   1.954  0.3935 -0.2510  0.4171
18074TIP3    H275714   1.695   6.021   2.012 -0.2856 -0.6362  0.3143
18075TIP3   OH275715   0.801   4.263   3.955  0.0923  0.4663 -0.1450
18075TIP3    H175716   0.767   4.308   3.878 -0.5217  2.2064  1.0819
18075TIP3    H275717   0.896   4.259   3.941 -0.0354  0.5374 -1.0881
18076TIP3   OH275718   0.460   5.140   5.155 -0.1300 -0.1661  0.5045
18076TIP3    H175719   0.406   5.166   5.080  0.8155 -1.8025 -0.8290
18076TIP3    H275720   0.427   5.192   5.228 -1.8799  0.6349 -0.7830
18077TIP3   OH275721   5.892   2.798   1.350 -0.0821  0.0421 -0.2428
18077TIP3    H175722   5.889   2.831   1.260 -1.9701  0.1213 -0.1786
18077TIP3    H275723   5.810   2.752   1.362 -0.1389  0.5419  1.6490
18078TIP3   OH275724   5.778   4.253   4.089  0.3093  0.0711  0.2677
18078TIP3    H175725   5.752   4.342   4.064 -0.3887 -0.1476  0.1897
18078TIP3    H275726   5.859   4.264   4.138  0.3797  0.7261  0.0103
18079TIP3   OH275727   4.641   3.576  14.026  0.0976 -0.5781 -0.0426
18079TIP3    H175728   4.736   3.586  14.027  0.1512 -0.8707 -1.0621
18079TIP3    H275729   4.614   3.615  13.942 -0.7400  0.0291  0.4941
18080TIP3   OH275730   0.569   2.082   2.982  0.4377 -0.1666 -0.1791
18080TIP3    H175731   0.510   2.051   2.913  0.5813 -0.3052 -0.2408
18080TIP3    H275732   0.540   2.172   2.999 -1.2289 -0.9534  1.3848
18081TIP3   OH275733   6.082   1.327   3.061  0.3572  0.0521  0.1643
18081TIP3    H175734   6.129   1.313   2.979 -1.6247  0.0040 -1.0240
18081TIP3    H275735   6.093   1.420   3.080 -3.1985  1.3389 -2.9343
18082TIP3   OH275736   4.315   1.176  14.031 -0.9353 -0.2688  0.0599
18082TIP3    H175737   4.311   1.103  14.093  0.4456 -0.7866 -0.4176
18082TIP3    H275738   4.370   1.241  14.075 -0.9293 -0.1400 -0.1400
18083TIP3   OH275739   2.097   3.447  11.866  0.1890 -0.2224  0.6977
18083TIP3    H175740   2.062   3.419  11.950 -0.0912 -0.6288  0.4497
18083TIP3    H275741   2.091   3.369  11.811 -0.5987  0.3205 -0.0085
18084TIP3   OH275742   4.953   5.499  14.959  0.1025  0.1784 -0.0089
18084TIP3    H175743   5.036   5.547  14.946  0.8306 -1.0597 -0.0921
18084TIP3    H275744   4.896   5.532  14.889  1.0319 -0.0183 -0.8940
18085TIP3   OH275745   6.545   6.220  16.374  0.2803 -0.0649  0.2086
18085TIP3    H175746   6.460   6.191  16.341  0.0278  0.0051  0.7875
18085TIP3    H275747   6.525   6.295  16.430  0.6057 -0.7486  1.2606
18086TIP3   OH275748   3.425   6.587   4.570 -0.1415  0.2217 -0.2796
18086TIP3    H175749   3.519   6.605   4.569  0.0625 -0.8009 -0.1857
18086TIP3    H275750   3.393   6.630   4.649  0.4034 -0.1745  0.1590
18087TIP3   OH275751   1.880   6.220  13.473  0.1101 -0.3400 -0.1966
18087TIP3    H175752   1.882   6.290  13.538  1.2087 -0.0954 -0.4796
18087TIP3    H275753   1.802   6.238  13.421 -0.3677 -0.1126  0.5773
18088TIP3   OH275754   4.714   2.290   1.333 -0.2859  0.5540 -0.0988
18088TIP3    H175755   4.770   2.220   1.299 -0.5537  0.0342  0.4948
18088TIP3    H275756   4.628   2.271   1.296  0.0793  1.8471 -1.7064
18089TIP3   OH275757   0.199   0.252   2.132  0.5289  0.4630 -0.0676
18089TIP3    H175758   0.204   0.286   2.221  1.0543  1.8029 -0.5769
18089TIP3    H275759   0.205   0.157   2.141  0.0093  0.5534  1.3527
18090TIP3   OH275760   1.454   4.663  15.409 -0.4091  0.0749 -0.5868
18090TIP3    H175761   1.522   4.691  15.471 -1.3933  3.1033 -0.6886
18090TIP3    H275762   1.390   4.618  15.463 -0.8202  1.8971  0.5632
18091TIP3   OH275763   2.482   3.851  17.220  0.0997 -0.5971  0.8959
18091TIP3    H175764   2.463   3.907  17.145 -1.0208 -0.3328  1.3401
18091TIP3    H275765   2.422   3.777  17.211 -0.7227 -0.0963  1.9922
18092TIP3   OH275766   5.127   1.397  12.861  0.4204 -0.4161  0.6629
18092TIP3    H175767   5.194   1.465  12.853 -0.3683  0.8997  3.8418
18092TIP3    H275768   5.169   1.328  12.912 -0.0504 -0.4154  1.0619
18093TIP3   OH275769   3.315   6.714   3.870 -0.4500  0.1716 -0.1386
18093TIP3    H175770   3.248   6.780   3.856 -1.6462 -1.0996 -0.5665
18093TIP3    H275771   3.391   6.764   3.903 -1.4467  1.6789 -0.0248
18094TIP3   OH275772   1.245   3.364   6.219 -0.1274 -0.0049  0.0896
18094TIP3    H175773   1.297   3.325   6.290  1.0656  1.8668  0.3328
18094TIP3    H275774   1.311   3.399   6.158 -1.0631  1.9739  0.1275
18095TIP3   OH275775   0.901   0.844  16.807 -0.2837  0.1228  0.0184
18095TIP3    H175776   0.921   0.879  16.720  0.2509 -0.2461 -0.0130
18095TIP3    H275777   0.980   0.797  16.832 -0.9178 -0.9218  0.1229
18096TIP3   OH275778   0.153   3.036   0.106 -0.0100  0.1897 -0.0877
18096TIP3    H175779   0.142   3.069   0.195 -0.1330 -0.8216  0.2905
18096TIP3    H275780   0.065   3.011   0.079  0.0725  0.2128 -0.3774
18097TIP3   OH275781   0.376   3.232  14.549  0.2036  0.0858 -0.0628
18097TIP3    H175782   0.362   3.179  14.470 -0.0014  0.9418 -0.6134
18097TIP3    H275783   0.464   3.267  14.538 -0.1862  0.9832 -0.3860
18098TIP3   OH275784   3.540   0.482   0.361 -0.4071 -0.0473  0.1512
18098TIP3    H175785   3.522   0.394   0.394 -0.9318  0.2555  0.6991
18098TIP3    H275786   3.581   0.468   0.275  1.5022 -0.8867  1.1304
18099TIP3   OH275787   1.357   2.615   2.447 -0.1144  0.8697 -0.0906
18099TIP3    H175788   1.400   2.666   2.379 -2.2225  1.7895 -0.8315
18099TIP3    H275789   1.311   2.546   2.399  0.3634  0.0271  0.6427
18100TIP3   OH275790   0.438   4.818  14.762  0.1928  0.0428 -0.0139
18100TIP3    H175791   0.485   4.776  14.835  0.0224 -0.3199 -0.1080
18100TIP3    H275792   0.374   4.752  14.734 -1.0290  0.8732  0.7344
18101TIP3   OH275793   4.093   2.855  14.581 -0.2233 -0.0200 -0.4011
18101TIP3    H175794   4.036   2.780  14.597 -0.4264  0.2473  0.1799
18101TIP3    H275795   4.069   2.918  14.649 -0.5473  0.8586 -1.3028
18102TIP3   OH275796   6.104   2.788   4.618 -0.5423 -0.3272  0.3833
18102TIP3    H175797   6.200   2.789   4.613 -0.2850  0.0420  3.4800
18102TIP3    H275798   6.080   2.697   4.604  0.1180 -0.2498 -1.5311
18103TIP3   OH275799   0.918   6.283  11.910 -0.6862 -0.1532  0.4881
18103TIP3    H175800   0.865   6.204  11.922 -1.5004 -0.0781 -1.9671
18103TIP3    H275801   0.993   6.254  11.859 -1.0711  0.6525 -0.5721
18104TIP3   OH275802   6.095   2.511   2.696 -0.1060  0.0814  0.4390
18104TIP3    H175803   6.139   2.545   2.619 -0.5939 -0.3508 -0.0371
18104TIP3    H275804   6.119   2.418   2.698 -1.0389 -0.1791  0.1333
18105TIP3   OH275805   4.304   4.315   1.813  0.6600  0.1578  0.0371
18105TIP3    H175806   4.363   4.241   1.829  0.4139 -0.0933 -0.2039
18105TIP3    H275807   4.221   4.275   1.791 -0.0041  0.4992  1.7322
18106TIP3   OH275808   5.308   3.711  16.977  0.2564 -0.1274  0.1901
18106TIP3    H175809   5.371   3.742  17.043  0.7401 -0.4444 -0.1150
18106TIP3    H275810   5.357   3.646  16.927 -0.0589  0.2322 -0.5921
18107TIP3   OH275811   2.619   5.864  12.348 -0.1678 -0.2526  0.0121
18107TIP3    H175812   2.603   5.793  12.287  1.9436 -0.5073 -0.3136
18107TIP3    H275813   2.605   5.944  12.297 -0.6653 -0.4487 -0.1565
18108TIP3   OH275814   1.982   4.197   1.344 -0.3534  0.6602  0.5183
18108TIP3    H175815   2.000   4.167   1.255  0.6540  0.8224  0.6511
18108TIP3    H275816   2.013   4.287   1.346 -1.1235  0.9203  0.8095
18109TIP3   OH275817   2.341   1.664   0.339 -0.6527 -0.2595 -0.8698
18109TIP3    H175818   2.308   1.671   0.249  0.3740  1.8643 -1.1501
18109TIP3    H275819   2.278   1.713   0.391 -0.8304 -0.8374 -0.5327
18110TIP3   OH275820   3.584   3.933   5.380  0.6674  0.2566  0.0685
18110TIP3    H175821   3.602   3.870   5.450  1.0439  0.6821  0.3625
18110TIP3    H275822   3.628   3.897   5.303 -0.7132 -0.8018 -0.2494
18111TIP3   OH275823   6.178   0.769  12.336  0.6694 -0.4042 -0.2960
18111TIP3    H175824   6.197   0.721  12.256  1.4901 -3.7205  1.7130
18111TIP3    H275825   6.129   0.707  12.391  1.5968  1.0784  2.4293
18112TIP3   OH275826   6.067   2.897   1.782  0.0995 -0.3934 -0.4584
18112TIP3    H175827   6.091   2.855   1.700 -0.8283  0.1672 -1.0414
18112TIP3    H275828   6.093   2.989   1.771  1.1026 -0.5527  0.3698
18113TIP3   OH275829   2.222   1.745   5.755  0.2208 -0.8630  0.1883
18113TIP3    H175830   2.159   1.685   5.794  0.4023  0.1064  2.0955
18113TIP3    H275831   2.239   1.811   5.823  1.1550  0.5052 -1.2766
18114TIP3   OH275832   6.060   5.269   2.406 -0.2439 -0.4422  0.7358
18114TIP3    H175833   5.972   5.235   2.390 -0.3325 -0.0253  0.3305
18114TIP3    H275834   6.046   5.351   2.454 -0.3031  1.6586 -2.5706
18115TIP3   OH275835   3.648   4.052  16.086 -0.8633  0.0209 -0.4520
18115TIP3    H175836   3.688   4.036  16.000  0.4135  1.8001 -0.2419
18115TIP3    H275837   3.621   3.966  16.116  2.6168 -1.3625 -0.7525
18116TIP3   OH275838   0.531   5.446   3.615  0.7347  0.0324  0.8271
18116TIP3    H175839   0.591   5.408   3.679  1.4371 -0.1154  0.0999
18116TIP3    H275840   0.586   5.505   3.563  1.0622 -2.5292 -1.9888
18117TIP3   OH275841   1.832   0.445  13.167  0.1062  0.4366  0.3216
18117TIP3    H175842   1.840   0.531  13.125 -0.1369 -0.6741 -2.1023
18117TIP3    H275843   1.796   0.465  13.254 -0.4170  2.7316 -0.3487
18118TIP3   OH275844   2.844   2.135  14.287  0.0299  0.5591 -0.3453
18118TIP3    H175845   2.890   2.062  14.245 -0.2987  0.3064 -0.2689
18118TIP3    H275846   2.822   2.102  14.374 -0.7932  0.4727 -0.5779
18119TIP3   OH275847   6.558   4.846   4.701 -0.4914 -0.2524  0.0942
18119TIP3    H175848   6.556   4.901   4.622 -0.2448 -2.6480 -1.7268
18119TIP3    H275849   6.484   4.876   4.754  0.3872  2.6252 -0.1217
18120TIP3   OH275850   3.127   3.825  14.744 -0.0863 -0.3475 -0.0558
18120TIP3    H175851   3.220   3.831  14.763  0.0713 -0.0724 -0.8640
18120TIP3    H275852   3.123   3.792  14.654 -0.7988 -1.9671  0.5385
18121TIP3   OH275853   6.646   5.254   4.464  0.0297  0.1727 -0.6563
18121TIP3    H175854   6.602   5.283   4.544  0.7704  0.0432 -0.1940
18121TIP3    H275855   6.725   5.211   4.494 -0.5811 -1.5208 -1.3710
18122TIP3   OH275856   2.494   4.366   5.435 -0.4382  0.4119  0.7695
18122TIP3    H175857   2.537   4.373   5.520  1.9291 -0.5281 -0.2662
18122TIP3    H275858   2.520   4.444   5.388  0.9474 -0.5731 -0.1731
18123TIP3   OH275859   2.637   0.131  13.004 -0.0972  0.7041 -0.2742
18123TIP3    H175860   2.544   0.115  12.990  0.2894 -0.9036 -1.2034
18123TIP3    H275861   2.645   0.149  13.098 -1.3188  0.6958 -0.1626
18124TIP3   OH275862   4.852   3.657   4.734 -0.0919  0.0937  0.8725
18124TIP3    H175863   4.914   3.584   4.743 -0.9130 -0.7311 -0.0057
18124TIP3    H275864   4.908   3.735   4.732  1.0165 -0.6877 -0.9212
18125TIP3   OH275865   1.235   5.256   4.726 -0.0833  0.2198  0.3350
18125TIP3    H175866   1.193   5.328   4.678 -0.8796  0.4819  1.3817
18125TIP3    H275867   1.213   5.273   4.818 -1.0059 -1.8340  0.5364
18126TIP3   OH275868   3.172   1.249  14.370 -0.0079  0.4166  0.0150
18126TIP3    H175869   3.246   1.262  14.429 -0.1933  0.5016  0.2283
18126TIP3    H275870   3.195   1.299  14.291 -0.2297  1.1465  0.4117
18127TIP3   OH275871   2.234   5.710  12.296  0.8262  0.0931  0.2264
18127TIP3    H175872   2.200   5.652  12.228  0.6328  0.8856 -0.3726
18127TIP3    H275873   2.319   5.673  12.319  0.6544 -0.4904 -0.0589
18128TIP3   OH275874   4.751   0.670  12.523 -0.6968 -0.5334 -0.6084
18128TIP3    H175875   4.753   0.649  12.617 -1.9599 -0.7463 -0.6081
18128TIP3    H275876   4.789   0.757  12.517 -0.4596 -0.5849  0.0831
18129TIP3   OH275877   3.832   5.508  15.782  0.1230 -0.0687 -0.2667
18129TIP3    H175878   3.800   5.424  15.749 -0.9432 -0.2559  1.1733
18129TIP3    H275879   3.877   5.487  15.864  4.5263  0.1167 -2.3415
18130TIP3   OH275880   3.590   4.112   4.067 -0.0579  0.0708  0.3321
18130TIP3    H175881   3.629   4.084   4.150  0.8019  0.5250  0.1010
18130TIP3    H275882   3.636   4.060   4.001  1.5450  1.9362 -0.0989
18131TIP3   OH275883   4.864   0.564  16.783  0.3696 -0.4299  0.2136
18131TIP3    H175884   4.950   0.587  16.747  0.5400 -2.6134 -0.9589
18131TIP3    H275885   4.882   0.539  16.874  1.0058 -0.9767 -0.0564
18132TIP3   OH275886   3.381   4.416  12.683  0.2711 -0.0879  0.6548
18132TIP3    H175887   3.313   4.397  12.619  0.0427  2.0519  0.2046
18132TIP3    H275888   3.344   4.485  12.738  2.3214  1.7310 -0.1018
18133TIP3   OH275889   0.430   4.069   6.554 -0.1250  0.5376 -0.4522
18133TIP3    H175890   0.385   4.152   6.537  0.1901  0.5866 -1.0886
18133TIP3    H275891   0.507   4.071   6.497  1.4022  0.9966  1.5014
18134TIP3   OH275892   3.542   3.716  17.092 -0.4464  0.0445 -0.3316
18134TIP3    H175893   3.470   3.753  17.143 -1.1600  2.1596 -2.7185
18134TIP3    H275894   3.542   3.623  17.115 -1.5791  0.6221  2.4092
18135TIP3   OH275895   6.182   6.662   1.446 -0.3256 -0.4684  1.0329
18135TIP3    H175896   6.186   6.600   1.373 -1.9412  1.4392 -0.8212
18135TIP3    H275897   6.089   6.678   1.459  0.0165  0.8275  2.0998
18136TIP3   OH275898   2.337   0.565  15.735 -1.4387 -0.0440  0.2717
18136TIP3    H175899   2.297   0.621  15.801  0.8961  1.2428  0.6948
18136TIP3    H275900   2.430   0.583  15.741 -0.6702 -3.1591 -0.4043
18137TIP3   OH275901   6.783   3.240  16.603  0.3846 -0.1057 -0.0966
18137TIP3    H175902   6.737   3.263  16.684  0.6549 -0.5639  0.1904
18137TIP3    H275903   6.739   3.162  16.571 -1.2033  1.3347 -1.6205
18138TIP3   OH275904   0.342   5.951  15.997  0.5798  0.2091 -0.3898
18138TIP3    H175905   0.401   6.014  16.038  1.4950 -0.0513 -1.2816
18138TIP3    H275906   0.278   5.931  16.066  1.8735  0.0400  0.8213
18139TIP3   OH275907   4.219   2.991   4.143  0.2002  0.3225  0.2498
18139TIP3    H175908   4.166   2.928   4.094 -0.2581 -0.0171  1.1562
18139TIP3    H275909   4.286   2.938   4.185  0.4836  0.5901  0.1394
18140TIP3   OH275910   0.302   3.459   0.540  0.4724 -0.0753 -0.1315
18140TIP3    H175911   0.333   3.515   0.469  2.4891  0.3095  0.9893
18140TIP3    H275912   0.313   3.511   0.619 -0.5504 -0.9555  0.6342
18141TIP3   OH275913   2.442   3.766   5.737 -0.0222 -0.0677 -0.5798
18141TIP3    H175914   2.463   3.747   5.829 -1.5087 -0.1444 -0.2283
18141TIP3    H275915   2.435   3.862   5.735 -2.1403 -0.1683 -0.0710
18142TIP3   OH275916   6.677   6.585  16.400  0.4174  0.2337 -0.5581
18142TIP3    H175917   6.735   6.516  16.431  0.2718 -0.2301 -1.3090
18142TIP3    H275918   6.605   6.586  16.463 -0.0302 -0.8988 -1.0349
18143TIP3   OH275919   3.126   3.382  17.087  0.4541  0.0516  0.4201
18143TIP3    H175920   3.072   3.447  17.041  1.7610  0.7809 -0.1235
18143TIP3    H275921   3.068   3.307  17.098 -1.4369  1.5938  1.8831
18144TIP3   OH275922   0.189   2.778  11.922  0.0528  0.2052  0.3050
18144TIP3    H175923   0.201   2.809  11.832 -0.4140  2.2098  0.8953
18144TIP3    H275924   0.179   2.857  11.974  1.5840 -0.8471  2.3520
18145TIP3   OH275925   4.845   4.872  13.890  0.1216  0.5051 -0.5218
18145TIP3    H175926   4.911   4.930  13.927  0.8987 -1.8506  2.1276
18145TIP3    H275927   4.762   4.905  13.926  0.6269 -0.3211  1.5611
18146TIP3   OH275928   2.983   3.909   4.880  0.3241  0.0542 -0.6414
18146TIP3    H175929   2.984   3.854   4.802  1.1150 -1.8694  0.6291
18146TIP3    H275930   3.048   3.977   4.862  0.3766 -0.2564 -1.7027
18147TIP3   OH275931   6.786   5.859   6.064 -0.6290  0.1002  0.6787
18147TIP3    H175932   6.855   5.882   6.126 -2.2053  0.5282  2.3462
18147TIP3    H275933   6.762   5.942   6.024  1.5452 -0.3603 -1.9403
18148TIP3   OH275934   5.273   6.750  14.273  0.1417  0.0920 -0.1690
18148TIP3    H175935   5.333   6.675  14.268 -0.1132 -0.0279 -3.2432
18148TIP3    H275936   5.328   6.826  14.253  0.1184  0.5840  1.5278
18149TIP3   OH275937   2.748   0.083   4.542  0.5616 -0.0668  0.3142
18149TIP3    H175938   2.753   0.004   4.595 -0.5721 -0.1942  0.2619
18149TIP3    H275939   2.668   0.072   4.490  1.1594  0.4595 -0.7550
18150TIP3   OH275940   3.902   4.908   0.640 -0.1015  0.1500 -1.6529
18150TIP3    H175941   3.907   4.832   0.581  0.8455 -1.2399  0.1118
18150TIP3    H275942   3.976   4.962   0.615  1.1123 -1.1068 -0.9167
18151TIP3   OH275943   1.135   1.422   0.427  0.1021 -0.0197 -0.1115
18151TIP3    H175944   1.089   1.501   0.453 -0.5795 -0.7567  0.9834
18151TIP3    H275945   1.169   1.386   0.509  1.7508 -0.0538 -0.7639
18152TIP3   OH275946   0.945   1.677  17.095 -0.4340  0.6016 -0.0017
18152TIP3    H175947   0.961   1.590  17.059  0.1035  0.3837  0.7390
18152TIP3    H275948   1.031   1.719  17.097 -0.2801  0.2945  1.7794
18153TIP3   OH275949   5.918   3.650   1.107 -0.3427 -0.3358  0.4563
18153TIP3    H175950   5.865   3.599   1.169  1.1410  0.7800  2.8033
18153TIP3    H275951   5.866   3.729   1.091 -1.7055 -1.5344 -1.5585
18154TIP3   OH275952   0.887   4.844   5.393  0.5209  0.6515  0.2607
18154TIP3    H175953   0.829   4.774   5.422  2.2376 -1.0214 -0.1105
18154TIP3    H275954   0.842   4.883   5.318 -0.3506 -0.2584  0.2900
18155TIP3   OH275955   6.731   6.614  13.703 -0.1230 -0.2083  0.5137
18155TIP3    H175956   6.686   6.697  13.688  1.1626  0.2561 -1.0363
18155TIP3    H275957   6.661   6.549  13.705 -1.1315  0.8615  1.5948
18156TIP3   OH275958   5.669   3.523   5.905  0.3912 -0.2022 -0.0248
18156TIP3    H175959   5.736   3.486   5.848 -0.0819 -0.4967 -0.3977
18156TIP3    H275960   5.616   3.577   5.847  0.4909  0.2816  0.3305
18157TIP3   OH275961   4.474   3.708   5.996  0.0394  0.2708 -0.0007
18157TIP3    H175962   4.400   3.721   6.055 -0.2360  2.0758 -0.6639
18157TIP3    H275963   4.540   3.664   6.049 -1.2800 -0.8586  0.7611
18158TIP3   OH275964   3.862   1.136   5.374 -0.6665  0.0446  0.2784
18158TIP3    H175965   3.952   1.152   5.403 -0.8186 -2.2753  2.3271
18158TIP3    H275966   3.809   1.198   5.424 -0.3431  0.7673 -0.2433
18159TIP3   OH275967   6.110   0.181   3.894 -0.2214  0.2813 -0.6608
18159TIP3    H175968   6.134   0.210   3.806 -0.4053  3.6307  0.2200
18159TIP3    H275969   6.020   0.213   3.905 -0.9896 -1.9501  0.0725
18160TIP3   OH275970   3.394   1.852  11.018 -0.0501  0.4655  0.1644
18160TIP3    H175971   3.458   1.809  10.960 -0.3053  0.7492 -0.3292
18160TIP3    H275972   3.311   1.845  10.971 -0.4570 -0.2160  0.9645
18161TIP3   OH275973   2.605   2.044   4.748 -0.7237  0.2410 -0.3441
18161TIP3    H175974   2.613   1.988   4.825  1.8994  0.0025 -0.6900
18161TIP3    H275975   2.518   2.025   4.713 -1.1960 -1.1129  1.4411
18162TIP3   OH275976   4.043   5.776   4.843  0.5861 -0.3917  0.1727
18162TIP3    H175977   3.962   5.814   4.810  0.6090  0.4531  1.0321
18162TIP3    H275978   4.096   5.760   4.765  0.4386  1.0416 -0.2490
18163TIP3   OH275979   5.287   1.421  15.097 -0.2481  0.3119  0.3062
18163TIP3    H175980   5.239   1.399  15.017 -0.7407 -0.0553  0.6978
18163TIP3    H275981   5.220   1.454  15.157 -0.0610 -0.4192  0.9389
18164TIP3   OH275982   2.752   0.697  10.523  0.5494 -0.3538  0.2343
18164TIP3    H175983   2.774   0.783  10.558  2.0215 -0.5883 -0.0565
18164TIP3    H275984   2.656   0.698  10.516  0.4338  0.7390  1.5393
18165TIP3   OH275985   0.099   4.794   1.247 -0.5484  0.2257 -0.6920
18165TIP3    H175986   0.073   4.810   1.338 -0.1965 -0.1866 -0.5169
18165TIP3    H275987   0.186   4.754   1.253 -1.3527 -1.6847 -1.1069
18166TIP3   OH275988   0.438   4.187   3.427 -0.3328 -0.4584 -0.8101
18166TIP3    H175989   0.477   4.201   3.341  2.6764 -0.8357  0.3374
18166TIP3    H275990   0.470   4.101   3.454  0.1352  0.2955  1.2542
18167TIP3   OH275991   6.384   1.403  12.947  0.5207 -0.2817  0.1499
18167TIP3    H175992   6.327   1.345  12.897  1.8883  0.0714 -1.9713
18167TIP3    H275993   6.357   1.391  13.038 -0.8837 -2.3462 -0.4618
18168TIP3   OH275994   2.773   1.399  13.893 -0.2701  0.7794  0.0753
18168TIP3    H175995   2.765   1.347  13.973 -1.8655  2.7861  1.3370
18168TIP3    H275996   2.684   1.403  13.858 -0.0674  2.0165 -0.3576
18169TIP3   OH275997   5.933   3.838  14.648 -0.7521  0.1726  0.7335
18169TIP3    H175998   5.886   3.919  14.626 -0.5576  0.1736  0.2999
18169TIP3    H275999   6.025   3.864  14.651 -0.7111  0.0167  0.8208
18170TIP3   OH276000   4.122   3.193   5.539  0.1119 -0.2631  0.3417
18170TIP3    H176001   4.116   3.123   5.604 -0.6692 -0.5427 -0.0201
18170TIP3    H276002   4.034   3.198   5.501  0.8901 -1.0786 -1.7050
18171TIP3   OH276003   5.911   0.414   2.745  0.0303  0.3067 -0.1496
18171TIP3    H176004   5.937   0.480   2.681 -0.3305  1.0187  0.4210
18171TIP3    H276005   5.816   0.422   2.750  0.1081  0.7821  1.0038
18172TIP3   OH276006   4.308   3.626  15.972 -0.0767  0.4909  0.9271
18172TIP3    H176007   4.341   3.580  16.050  0.4529  1.0455  1.0322
18172TIP3    H276008   4.342   3.575  15.899 -1.9006 -0.9901  1.0281
18173TIP3   OH276009   1.927   4.635  15.091 -0.2776  0.1439 -0.1123
18173TIP3    H176010   1.902   4.709  15.146 -1.1884  0.0225 -0.3519
18173TIP3    H276011   1.922   4.668  15.002  0.0670  0.0065 -0.1879
18174TIP3   OH276012   4.435   5.090   5.893  0.5153  0.7540 -0.2342
18174TIP3    H176013   4.508   5.034   5.919 -1.9643 -2.2427  0.8724
18174TIP3    H276014   4.408   5.134   5.973 -0.9692 -0.8383  0.1905
18175TIP3   OH276015   6.510   3.926  16.093 -0.1260 -0.0231 -1.2446
18175TIP3    H176016   6.600   3.949  16.117  0.7038 -2.9167 -1.1124
18175TIP3    H276017   6.511   3.922  15.997  0.0370 -0.5181 -1.2245
18176TIP3   OH276018   2.361   2.945   2.286  0.0707 -0.5192 -0.1406
18176TIP3    H176019   2.341   2.993   2.205 -0.3534  0.3096  0.4413
18176TIP3    H276020   2.412   3.007   2.338 -0.0687 -0.8751  0.4255
18177TIP3   OH276021   1.471   0.648   1.889 -0.3473 -0.3327  0.0890
18177TIP3    H176022   1.526   0.597   1.829  1.0606 -0.5094  1.4815
18177TIP3    H276023   1.494   0.739   1.870 -3.2704 -0.0035 -2.7977
18178TIP3   OH276024   6.113   3.790  11.866 -0.6359  0.1764 -0.0833
18178TIP3    H176025   6.100   3.705  11.824  0.3862 -0.1533  0.2333
18178TIP3    H276026   6.035   3.803  11.919 -1.5514  0.1973 -1.3947
18179TIP3   OH276027   5.892   2.769   2.497  0.1348  0.5812  0.1239
18179TIP3    H176028   5.815   2.713   2.498 -1.4362  2.5340 -1.4086
18179TIP3    H276029   5.910   2.787   2.589 -2.2069  1.2189  0.5396
18180TIP3   OH276030   4.662   0.155   1.913  0.2336 -0.3824  0.1125
18180TIP3    H176031   4.578   0.170   1.869  0.2971  0.0162  0.1256
18180TIP3    H276032   4.638   0.122   1.999  0.0296  1.2599  0.7251
18181TIP3   OH276033   3.905   5.875  13.151 -0.0857 -0.4574 -0.3227
18181TIP3    H176034   3.827   5.820  13.143 -0.3258 -0.7531  2.8168
18181TIP3    H276035   3.955   5.857  13.072 -2.6883 -1.0220 -1.9748
18182TIP3   OH276036   4.519   0.430  12.148 -0.2326 -0.3298 -0.4537
18182TIP3    H176037   4.593   0.484  12.120  1.2744 -1.8947  0.3382
18182TIP3    H276038   4.488   0.472  12.228  0.2919 -0.0942 -0.3710
18183TIP3   OH276039   4.513   1.890   2.778 -0.3580 -0.4055  0.1914
18183TIP3    H176040   4.527   1.816   2.718 -0.0886  0.0828 -0.3628
18183TIP3    H276041   4.439   1.863   2.832 -0.1642 -1.1476  0.1056
18184TIP3   OH276042   6.447   2.211   0.068  0.0681  0.1434 -0.0469
18184TIP3    H176043   6.403   2.226   0.152 -1.0419  0.4364 -0.6620
18184TIP3    H276044   6.394   2.258   0.004 -1.5372 -3.3124 -1.5392
18185TIP3   OH276045   4.691   4.991   5.004 -0.1556  0.6518  0.4015
18185TIP3    H176046   4.599   5.017   5.010 -0.2764  0.6233 -0.9943
18185TIP3    H276047   4.704   4.968   4.912  1.6453  2.2118  0.1946
18186TIP3   OH276048   3.817   4.936  16.081 -0.4803 -0.2649 -0.0585
18186TIP3    H176049   3.861   4.987  16.012 -0.5903  0.9220  0.7107
18186TIP3    H276050   3.800   4.851  16.041 -0.8130  0.4896 -1.5990
18187TIP3   OH276051   0.027   3.071   2.897  0.1699  0.2025  0.1756
18187TIP3    H176052   0.076   3.031   2.969  0.2038  1.3381  0.8104
18187TIP3    H276053   0.064   3.159   2.889 -0.7377  0.5471 -0.3493
18188TIP3   OH276054   0.085   0.901   2.045  0.1977 -0.5107 -0.6210
18188TIP3    H176055   0.085   0.806   2.040 -1.4092 -0.6236  0.7168
18188TIP3    H276056  -0.002   0.924   2.076  1.0564  1.3071  0.6641
18189TIP3   OH276057   1.255   3.348   2.518  0.0175  0.2065 -0.0007
18189TIP3    H176058   1.160   3.353   2.532 -0.0924 -1.3633 -0.0301
18189TIP3    H276059   1.266   3.379   2.428 -0.6724 -1.0183 -0.5391
18190TIP3   OH276060   2.244   3.617  15.988 -0.0510  0.3209  1.0806
18190TIP3    H176061   2.283   3.560  16.054 -0.6963  0.0770  1.2543
18190TIP3    H276062   2.315   3.677  15.964  0.1266  0.5701  2.1739
18191TIP3   OH276063   1.180   1.943  16.397 -0.4380  0.3903  0.4372
18191TIP3    H176064   1.129   1.887  16.339  2.0656  0.8881 -2.5314
18191TIP3    H276065   1.117   2.008  16.429 -2.6704 -2.0184  1.2738
18192TIP3   OH276066   1.650   0.933  16.336  0.1206 -0.4089  0.5837
18192TIP3    H176067   1.556   0.951  16.332  0.0074 -1.1436 -1.2758
18192TIP3    H276068   1.666   0.908  16.427 -1.9378 -2.4435  0.4850
18193TIP3   OH276069   3.651   4.812   5.722 -0.6547 -0.2741  0.0930
18193TIP3    H176070   3.610   4.816   5.808  0.2344  0.0999  0.5120
18193TIP3    H276071   3.714   4.740   5.729  1.6037  1.6246  0.7883
18194TIP3   OH276072   2.065   6.044   1.491  0.6136 -0.2784  0.4274
18194TIP3    H176073   2.039   6.135   1.475 -1.3645 -0.8858 -0.1420
18194TIP3    H276074   2.075   6.038   1.586 -0.4622  0.2450  0.5894
18195TIP3   OH276075   4.932   1.063   2.114  0.0345 -0.2697  0.3235
18195TIP3    H176076   4.939   1.154   2.086 -0.0919 -0.0411  1.0128
18195TIP3    H276077   5.022   1.034   2.127  0.0422  0.4357  2.1795
18196TIP3   OH276078   0.202   1.915   2.385 -0.2247  0.0318 -0.6565
18196TIP3    H176079   0.271   1.860   2.350  1.4857  0.8915  1.1388
18196TIP3    H276080   0.211   1.998   2.337 -0.3378 -0.0270 -0.7783
18197TIP3   OH276081   6.628   5.192   2.442  0.0143 -0.4465  0.3556
18197TIP3    H176082   6.614   5.118   2.382 -2.8220  0.4480 -0.2142
18197TIP3    H276083   6.698   5.243   2.400 -0.1965 -1.1423 -0.9008
18198TIP3   OH276084   4.978   2.260  15.126 -0.2398 -0.5509  0.4563
18198TIP3    H176085   5.030   2.183  15.105  0.7834 -0.0977  1.2426
18198TIP3    H276086   4.986   2.317  15.050 -1.0015 -1.2047 -0.1258
18199TIP3   OH276087   0.743   2.915  15.055  1.0594  0.7630 -0.6101
18199TIP3    H176088   0.725   2.861  15.132  1.0012 -1.0263 -1.8126
18199TIP3    H276089   0.704   3.000  15.075 -2.3146 -0.7493 -0.1677
18200TIP3   OH276090   4.644   0.708  15.971  0.0163  0.2219  0.4191
18200TIP3    H176091   4.662   0.730  16.062 -1.0656  0.3110  0.6224
18200TIP3    H276092   4.657   0.790  15.923 -0.6003  0.4721  0.6735
18201TIP3   OH276093   5.587   0.224  10.367 -0.1389  0.0576  0.0003
18201TIP3    H176094   5.662   0.194  10.317  0.8636 -0.8588  1.9288
18201TIP3    H276095   5.593   0.177  10.450 -0.3744  3.1374  1.9241
18202TIP3   OH276096   1.736   1.860  13.845 -0.4115  0.4182 -0.7994
18202TIP3    H176097   1.819   1.831  13.884 -1.4823 -2.5658 -0.4864
18202TIP3    H276098   1.731   1.953  13.866  2.3151  0.4493  0.1338
18203TIP3   OH276099   0.072   2.237  14.143  0.1184  0.2534 -0.3662
18203TIP3    H176100   0.159   2.260  14.111  0.0083  2.0668  0.4970
18203TIP3    H276101   0.017   2.311  14.120 -0.6635  0.1980  1.1399
18204TIP3   OH276102   2.323   5.691   1.229  0.1351  0.7959 -0.0534
18204TIP3    H176103   2.260   5.756   1.198  1.9720  3.4283  1.3550
18204TIP3    H276104   2.409   5.727   1.207  1.2492 -1.0356  1.0061
18205TIP3   OH276105   6.495   6.150   0.864  0.3752  0.6481  0.1183
18205TIP3    H176106   6.405   6.183   0.864  0.7041  1.5892  0.5908
18205TIP3    H276107   6.497   6.086   0.794 -0.4532  1.2185 -0.4503
18206TIP3   OH276108   6.054   1.695   1.351  0.1699  0.1298 -0.1593
18206TIP3    H176109   6.018   1.636   1.417  0.4651  1.8590  1.6614
18206TIP3    H276110   6.129   1.736   1.394  0.8667  0.7524 -1.8824
18207TIP3   OH276111   5.221   1.759  12.644 -0.4812  0.2975  0.1947
18207TIP3    H176112   5.218   1.828  12.578 -0.0236 -0.6576 -0.8594
18207TIP3    H276113   5.252   1.803  12.723  1.4436  1.0185 -0.8773
18208TIP3   OH276114   4.158   5.310  15.899 -0.1273  0.2247  0.6599
18208TIP3    H176115   4.161   5.317  15.804 -2.4976  1.0475  0.5759
18208TIP3    H276116   4.119   5.225  15.916 -1.3456  0.8011  0.8244
18209TIP3   OH276117   5.884   2.864  13.494 -0.6638 -0.1087 -0.2119
18209TIP3    H176118   5.810   2.910  13.455 -0.0601  1.6002  0.5472
18209TIP3    H276119   5.897   2.907  13.578 -0.2543 -1.9292  0.6871
18210TIP3   OH276120   2.123   3.932   5.232  0.0469  0.0222 -0.5112
18210TIP3    H176121   2.166   4.012   5.263  1.4381 -0.9920  0.2959
18210TIP3    H276122   2.121   3.942   5.136 -0.0033  1.1123 -0.4075
18211TIP3   OH276123   1.251   6.679  16.448  0.0509 -0.1313 -0.0933
18211TIP3    H176124   1.230   6.699  16.357 -0.9906 -0.8006 -0.0122
18211TIP3    H276125   1.278   6.763  16.485  2.2011 -0.1453 -1.4404
18212TIP3   OH276126   5.148   3.433   2.137  0.6708  0.0469  0.7908
18212TIP3    H176127   5.232   3.415   2.179  0.8311 -0.3826  0.2984
18212TIP3    H276128   5.121   3.349   2.100  0.3191  0.3144  0.4212
18213TIP3   OH276129   0.178   3.257  13.100 -0.0587 -0.4178  0.2677
18213TIP3    H176130   0.226   3.314  13.160 -0.8299 -0.3668  0.8516
18213TIP3    H276131   0.209   3.282  13.013  0.7300 -0.1687  0.6111
18214TIP3   OH276132   3.212   1.561  14.541  0.3610  0.2717 -0.3419
18214TIP3    H176133   3.231   1.543  14.449  1.0672 -0.0827 -0.1348
18214TIP3    H276134   3.294   1.540  14.587  0.6322  2.2480  0.1523
18215TIP3   OH276135   5.475   4.790  15.950 -0.3685  0.0598  0.2911
18215TIP3    H176136   5.543   4.723  15.940 -0.0063  0.4695 -0.0224
18215TIP3    H276137   5.394   4.740  15.956 -0.0947 -0.4162  0.1498
18216TIP3   OH276138   1.496   5.240   1.301  0.5500 -0.2114 -0.1167
18216TIP3    H176139   1.494   5.322   1.251 -1.1237 -1.9571 -3.2317
18216TIP3    H276140   1.427   5.251   1.366 -1.0337  0.2202 -1.7762
18217TIP3   OH276141   4.269   0.265  14.817  0.6424 -0.3737 -0.4950
18217TIP3    H176142   4.265   0.186  14.871  0.4250  0.0598  0.1367
18217TIP3    H276143   4.205   0.251  14.748  1.0123 -0.9887 -0.7203
18218TIP3   OH276144   1.661   0.273  12.255  0.2670  0.1945 -0.0853
18218TIP3    H176145   1.704   0.309  12.178  0.2731 -0.7886 -0.5602
18218TIP3    H276146   1.635   0.349  12.306 -0.6194  0.8986 -1.5376
18219TIP3   OH276147   4.474   5.522  12.465  0.1736 -0.1206  0.1308
18219TIP3    H176148   4.516   5.524  12.380 -0.8104  0.3952 -0.3562
18219TIP3    H276149   4.460   5.429  12.482  1.0822 -0.2703  0.0980
18220TIP3   OH276150   3.699   6.384   4.009  0.2127 -0.1143 -0.6928
18220TIP3    H176151   3.603   6.384   4.006  0.2096 -0.1705 -0.6039
18220TIP3    H276152   3.725   6.422   3.926  0.0848  1.5317 -0.0305
18221TIP3   OH276153   2.919   5.858  16.144  0.5827 -0.1019  0.0698
18221TIP3    H176154   2.851   5.916  16.108  1.6620 -0.0703 -2.0741
18221TIP3    H276155   2.871   5.797  16.200 -0.8928  1.3402  0.4906
18222TIP3   OH276156   6.205   3.319  14.217  0.1132  0.1456 -0.1567
18222TIP3    H176157   6.204   3.353  14.128  1.3543  0.8254  0.0606
18222TIP3    H276158   6.169   3.389  14.271  2.2119  1.0148  0.2284
18223TIP3   OH276159   0.635   5.163   4.840 -0.1032 -0.0819  0.2067
18223TIP3    H176160   0.688   5.094   4.880  0.7452  0.2938 -0.2424
18223TIP3    H276161   0.550   5.121   4.823  0.8424 -1.4840 -1.3975
18224TIP3   OH276162   5.351   1.717  15.146 -0.5473 -0.4386 -0.2275
18224TIP3    H176163   5.300   1.675  15.077  0.1948 -0.9406 -0.4897
18224TIP3    H276164   5.395   1.644  15.190 -0.2339 -0.0384  0.1328
18225TIP3   OH276165   1.898   4.105   3.417  0.0197 -0.3069  0.0110
18225TIP3    H176166   1.893   4.195   3.387  1.5931 -0.4246 -0.6622
18225TIP3    H276167   1.908   4.053   3.337  1.0073 -0.9104  0.5102
18226TIP3   OH276168   4.893   0.389   0.471  0.4633  0.1790  0.3353
18226TIP3    H176169   4.821   0.451   0.458  1.6146  1.1871 -1.6875
18226TIP3    H276170   4.881   0.324   0.402  1.8655  0.7557 -0.4833
18227TIP3   OH276171   3.009   2.546  12.684  0.6271 -0.4887 -0.0232
18227TIP3    H176172   2.948   2.508  12.747  0.6660 -0.2055  0.1884
18227TIP3    H276173   3.057   2.472  12.649  0.1399 -0.7186 -0.2154
18228TIP3   OH276174   6.747   5.624   6.560  0.2289  0.3627  0.0665
18228TIP3    H176175   6.738   5.607   6.466  1.9476  2.0622 -0.4698
18228TIP3    H276176   6.837   5.600   6.580  0.1219  0.7772  1.1045
18229TIP3   OH276177   0.776   3.408  13.618  0.3295 -0.6279  0.7999
18229TIP3    H176178   0.840   3.455  13.564  0.5791 -0.3242  1.3497
18229TIP3    H276179   0.829   3.350  13.673  0.1491 -0.2353  1.3946
18230TIP3   OH276180   5.517   0.330   1.098  0.1924  0.3989 -0.1351
18230TIP3    H176181   5.548   0.345   1.008  1.7168 -2.4521 -0.2215
18230TIP3    H276182   5.498   0.236   1.101  0.8008  0.2803  2.7059
18231TIP3   OH276183   4.749   3.824  12.486  0.1085 -0.3002 -0.0521
18231TIP3    H176184   4.728   3.896  12.545 -0.4217 -2.1666  2.1999
18231TIP3    H276185   4.844   3.815  12.490  0.1989  0.3803 -0.5188
18232TIP3   OH276186   5.614   3.838  14.349  0.0476  0.4590  0.1957
18232TIP3    H176187   5.578   3.844  14.261 -0.4667  0.4117  0.4010
18232TIP3    H276188   5.555   3.778  14.395  1.9744 -1.9616 -0.2770
18233TIP3   OH276189   2.808   0.768  13.141  0.5547  0.2123 -0.1321
18233TIP3    H176190   2.810   0.724  13.226 -1.8114  0.1272 -0.0688
18233TIP3    H276191   2.761   0.850  13.156  1.6578  1.0475 -1.0243
18234TIP3   OH276192   2.172   2.227  12.634 -0.2021 -0.2427 -0.4555
18234TIP3    H176193   2.152   2.313  12.671  2.0530  0.6002 -1.0462
18234TIP3    H276194   2.101   2.211  12.572 -1.5929  0.3742  0.9037
18235TIP3   OH276195   6.194   6.504  12.345  0.7435  0.6124  0.0069
18235TIP3    H176196   6.277   6.489  12.390 -1.2105 -0.5149  3.6607
18235TIP3    H276197   6.127   6.494  12.413 -2.6791 -1.8625 -3.2579
18236TIP3   OH276198   2.280   0.667   0.033 -0.1511  0.0053  0.0741
18236TIP3    H176199   2.293   0.643   0.125 -0.8681 -0.8838 -0.0377
18236TIP3    H276200   2.261   0.761   0.035 -1.8047 -0.2993  1.0202
18237TIP3   OH276201   1.394   6.038   0.287  0.7048  0.3227 -0.5607
18237TIP3    H176202   1.437   5.976   0.228  0.2221  0.0051 -0.5800
18237TIP3    H276203   1.415   6.006   0.375 -0.6908 -0.6889 -0.5626
18238TIP3   OH276204   1.704   4.786   3.449  0.1667  0.1544  0.2126
18238TIP3    H176205   1.671   4.734   3.376  1.2776 -1.4357  0.7713
18238TIP3    H276206   1.687   4.731   3.526  2.5241 -0.0166  0.6899
18239TIP3   OH276207   3.705   2.478  10.684 -0.4963  0.1473 -0.1597
18239TIP3    H176208   3.779   2.483  10.624  0.1952  0.0136  0.6581
18239TIP3    H276209   3.629   2.500  10.631  0.1420  0.3646 -0.9974
18240TIP3   OH276210   6.319   2.113  14.971  0.2576  0.8472  0.2276
18240TIP3    H176211   6.345   2.159  15.051 -1.4806  3.3267 -0.5049
18240TIP3    H276212   6.401   2.101  14.923  1.4428 -1.2383  2.5297
18241TIP3   OH276213   0.622   1.636  14.239 -0.1301 -0.1589  0.0258
18241TIP3    H176214   0.678   1.713  14.246 -0.2136 -0.0659 -0.2796
18241TIP3    H276215   0.537   1.671  14.211  0.5953 -0.5899 -3.1640
18242TIP3   OH276216   4.598   0.437  15.211 -0.0577 -0.0142 -0.4200
18242TIP3    H176217   4.608   0.449  15.306  1.1335 -0.4488 -0.4707
18242TIP3    H276218   4.661   0.499  15.173 -0.6657  0.2936 -0.9370
18243TIP3   OH276219   5.997   6.806  14.701  0.1716 -0.0301 -0.3450
18243TIP3    H176220   6.090   6.807  14.727  0.4337 -0.4111 -1.2106
18243TIP3    H276221   5.990   6.876  14.636  0.3763 -1.3941 -1.9046
18244TIP3   OH276222   3.810   6.454   5.624 -0.3441 -0.2508 -0.3641
18244TIP3    H176223   3.845   6.543   5.621  0.5716 -0.5987 -0.3066
18244TIP3    H276224   3.718   6.464   5.601 -0.1841  0.6747 -0.6484
18245TIP3   OH276225   0.878   3.130   5.008 -0.0097  0.2309  0.5719
18245TIP3    H176226   0.808   3.175   4.960 -0.4011 -1.4176 -0.4570
18245TIP3    H276227   0.944   3.111   4.941 -0.4028 -1.7898  0.7135
18246TIP3   OH276228   1.032   5.749  11.509  0.3532 -0.1197 -0.1079
18246TIP3    H176229   1.049   5.774  11.419  0.0109 -2.4961 -0.9097
18246TIP3    H276230   1.118   5.724  11.544  0.1072 -2.1635 -0.8280
18247TIP3   OH276231   3.183   3.892  11.263  0.0150  0.0912  0.4006
18247TIP3    H176232   3.121   3.917  11.194  0.6528 -1.0076 -0.6163
18247TIP3    H276233   3.228   3.973  11.286  0.7636  0.2701 -1.4914
18248TIP3   OH276234   5.791   6.501   3.864 -0.0537 -0.3621 -0.4631
18248TIP3    H176235   5.734   6.512   3.939 -0.7058 -1.2999 -0.8019
18248TIP3    H276236   5.878   6.525   3.896 -0.7280  1.9874 -0.1778
18249TIP3   OH276237   6.603   6.373  10.966  0.9469 -0.1899  0.2398
18249TIP3    H176238   6.660   6.444  10.994  1.5495 -0.7769  0.5554
18249TIP3    H276239   6.648   6.335  10.890  0.1869  0.3084 -0.4820
18250TIP3   OH276240   6.165   6.258   3.874  0.8295  0.4622 -0.2033
18250TIP3    H176241   6.189   6.307   3.795  2.0828  0.3422  0.0844
18250TIP3    H276242   6.083   6.213   3.850  2.1502 -1.0918 -2.1196
18251TIP3   OH276243   1.413   2.066   0.294 -0.2232  0.0447  0.2343
18251TIP3    H176244   1.331   2.114   0.293 -0.1965  0.0933  0.3980
18251TIP3    H276245   1.454   2.089   0.377 -0.2141 -0.2632  0.3187
18252TIP3   OH276246   3.890   3.396   1.136 -0.0493  0.4770  0.1496
18252TIP3    H176247   3.932   3.356   1.060  0.3797  0.2339  0.5116
18252TIP3    H276248   3.819   3.448   1.099 -1.1581 -1.2639 -0.2927
18253TIP3   OH276249   2.848   5.302  16.482 -0.8102 -0.1836 -0.1064
18253TIP3    H176250   2.820   5.219  16.520  1.5462  0.0062  2.3404
18253TIP3    H276251   2.848   5.364  16.554 -1.8644  1.8417 -1.7387
18254TIP3   OH276252   0.006   0.563  14.203 -0.1993 -0.2162 -0.4290
18254TIP3    H176253   0.020   0.468  14.203 -0.5624 -0.2806 -1.6312
18254TIP3    H276254  -0.085   0.574  14.176 -0.9639  0.4127  2.0836
18255TIP3   OH276255   3.442   0.157  17.051 -0.1468 -0.4977 -0.1719
18255TIP3    H176256   3.411   0.243  17.079 -0.0103  0.0299 -1.6011
18255TIP3    H276257   3.407   0.097  17.117 -1.2611  0.4986  0.1797
18256TIP3   OH276258   2.143   5.426   4.445  0.3022 -0.2323 -0.0413
18256TIP3    H176259   2.153   5.338   4.479 -0.3020  0.0763  0.9871
18256TIP3    H276260   2.129   5.414   4.351  2.8836 -1.0557 -0.4069
18257TIP3   OH276261   1.513   4.709  16.373 -0.0093  0.7225 -0.0438
18257TIP3    H176262   1.582   4.669  16.426  0.0776 -0.8693 -1.2698
18257TIP3    H276263   1.436   4.653  16.387  0.1063  0.0504 -1.7916
18258TIP3   OH276264   5.675   4.785  12.506 -0.2733 -0.0883 -0.1959
18258TIP3    H176265   5.678   4.689  12.504 -2.1716 -0.2213  0.8327
18258TIP3    H276266   5.720   4.808  12.588 -3.3300 -0.4384  1.7426
18259TIP3   OH276267   5.163   0.529  15.481  0.3390 -0.3564 -0.1924
18259TIP3    H176268   5.130   0.507  15.568  1.2575  1.1599  0.5838
18259TIP3    H276269   5.152   0.624  15.475 -0.2329 -0.4917 -1.9850
18260TIP3   OH276270   3.597   2.183   5.381  0.4220  0.0611  0.2145
18260TIP3    H176271   3.691   2.201   5.386  1.0318 -2.6025  0.0249
18260TIP3    H276272   3.563   2.206   5.468  1.7571 -1.2098  1.1191
18261TIP3   OH276273   0.815   6.104   2.516 -0.0755  0.2780  0.2394
18261TIP3    H176274   0.858   6.044   2.577  1.3904  0.0121 -0.9867
18261TIP3    H276275   0.752   6.049   2.470 -0.0664  0.1102  0.4224
18262TIP3   OH276276   5.805   4.673   5.555  0.0566  0.1786  0.0126
18262TIP3    H176277   5.726   4.634   5.519  0.1864 -0.6132  0.5577
18262TIP3    H276278   5.828   4.743   5.493 -0.8559  0.1780 -0.3372
18263TIP3   OH276279   0.212   0.773  14.418  0.1672  0.3968  0.3879
18263TIP3    H176280   0.212   0.780  14.323 -0.8551 -1.5048  0.1995
18263TIP3    H276281   0.296   0.732  14.439  0.6392  1.3371  0.3721
18264TIP3   OH276282   4.569   2.828  17.295 -0.2321 -0.2106 -0.5740
18264TIP3    H176283   4.551   2.787  17.211 -1.8805  0.6764 -0.7054
18264TIP3    H276284   4.634   2.771  17.337  0.1295 -1.0129 -2.1571
18265TIP3   OH276285   1.724   4.474  16.259 -0.7204 -0.0453  0.6669
18265TIP3    H176286   1.732   4.427  16.176 -1.6083  1.6938 -0.4554
18265TIP3    H276287   1.653   4.429  16.305 -1.1462 -0.1962 -0.1176
18266TIP3   OH276288   6.283   1.695  13.951 -0.2434  0.1157 -0.8157
18266TIP3    H176289   6.191   1.721  13.952 -0.3499 -0.2583 -0.1281
18266TIP3    H276290   6.321   1.738  14.028 -0.1390 -0.7616 -0.3706
18267TIP3   OH276291   4.983   4.407  12.380 -0.3601 -0.1304 -0.6045
18267TIP3    H176292   4.976   4.315  12.355  0.3415 -0.9861  2.1073
18267TIP3    H276293   4.907   4.449  12.338 -0.5914 -1.8535 -2.0258
18268TIP3   OH276294   0.376   2.374  13.072  0.6549 -0.2664 -0.2313
18268TIP3    H176295   0.449   2.355  13.013  1.3887  1.3720  0.0935
18268TIP3    H276296   0.416   2.384  13.158  0.0219  0.3855  0.0049
18269TIP3   OH276297   2.735   4.298  12.604 -0.2475  0.5528 -0.1930
18269TIP3    H176298   2.815   4.349  12.589 -0.3489  0.4820 -1.0447
18269TIP3    H276299   2.759   4.236  12.672  0.7784 -0.1957 -1.1988
18270TIP3   OH276300   5.311   3.289   5.644 -1.1355  0.1013  0.6029
18270TIP3    H176301   5.281   3.198   5.648 -1.1170 -0.0666 -1.6169
18270TIP3    H276302   5.230   3.340   5.635 -1.1091 -0.2041 -3.4229
18271TIP3   OH276303   0.938   0.505   2.359  0.2991 -0.1284  0.2464
18271TIP3    H176304   0.964   0.597   2.366  0.9743 -0.3098  0.1003
18271TIP3    H276305   1.020   0.456   2.357  0.0607 -1.0738  4.4289
18272TIP3   OH276306   5.796   1.599   3.385 -0.3400 -0.5642 -0.4706
18272TIP3    H176307   5.887   1.591   3.413 -0.4599 -0.2159  0.0244
18272TIP3    H276308   5.748   1.620   3.465 -0.4797  1.9292 -1.1270
18273TIP3   OH276309   5.103   1.984   0.252  0.1718 -0.5071  0.0695
18273TIP3    H176310   5.198   1.969   0.253  0.1183 -0.8565  1.2344
18273TIP3    H276311   5.080   1.995   0.344 -0.8235  0.2498 -0.2582
18274TIP3   OH276312   0.979   0.440  13.115 -0.7032 -0.3341 -0.2198
18274TIP3    H176313   0.924   0.394  13.051 -0.3119 -1.3859  0.1763
18274TIP3    H276314   1.068   0.425  13.085 -0.4813 -1.3417  0.8640
18275TIP3   OH276315   0.294   1.789  10.837  0.1289  0.2440 -0.1895
18275TIP3    H176316   0.311   1.883  10.830  1.6700  0.0075 -0.0638
18275TIP3    H276317   0.323   1.753  10.753  0.4617 -0.2289  0.1225
18276TIP3   OH276318   6.060   4.787  15.402  0.2946  0.1525  0.1755
18276TIP3    H176319   5.987   4.755  15.349 -0.6411  0.5495  1.1762
18276TIP3    H276320   6.132   4.728  15.381 -0.1025  0.1891 -1.3708
18277TIP3   OH276321   2.553   5.479  11.707  0.1704  1.0686 -0.1193
18277TIP3    H176322   2.495   5.473  11.631  0.3338  0.7283 -0.2211
18277TIP3    H276323   2.588   5.568  11.703  0.2451  1.0252 -0.4959
18278TIP3   OH276324   4.472   2.984   5.411 -0.2121  0.7087 -0.2765
18278TIP3    H176325   4.419   2.951   5.483  1.1393  0.4507  0.6442
18278TIP3    H276326   4.445   3.075   5.401 -1.7892  0.2158 -0.7789
18279TIP3   OH276327   3.826   5.577   2.078 -0.3975 -0.0143  0.1219
18279TIP3    H176328   3.853   5.495   2.121 -0.1082  0.1634  0.2804
18279TIP3    H276329   3.762   5.615   2.137 -0.0681  0.1841  0.3536
18280TIP3   OH276330   0.994   3.148  11.798 -0.0949  0.7724  0.0943
18280TIP3    H176331   0.922   3.100  11.757  0.2820  0.9427 -0.7996
18280TIP3    H276332   0.958   3.236  11.813  0.0204  0.9701 -0.6992
18281TIP3   OH276333   4.985   1.428  12.505 -0.1674  0.2735 -0.0893
18281TIP3    H176334   5.075   1.461  12.507 -0.1009  0.0717  0.5784
18281TIP3    H276335   4.994   1.333  12.493 -0.3105  0.3202 -0.5785
18282TIP3   OH276336   6.768   4.969   1.935  0.1715  0.7566 -0.2973
18282TIP3    H176337   6.791   5.061   1.921  0.2819  0.9747  1.1766
18282TIP3    H276338   6.727   4.967   2.021 -1.3260 -0.3337 -0.9794
18283TIP3   OH276339   4.934   3.606   2.807 -0.2098 -0.1167 -0.0309
18283TIP3    H176340   4.928   3.589   2.713 -2.4939 -0.1499  0.0587
18283TIP3    H276341   5.009   3.554   2.836  0.5716 -0.0724 -1.8226
18284TIP3   OH276342   3.270   6.724  11.643  0.2845  0.1593 -0.4782
18284TIP3    H176343   3.223   6.660  11.590  0.9851 -0.1575 -0.7377
18284TIP3    H276344   3.325   6.772  11.581  2.1035 -1.0997  0.0640
18285TIP3   OH276345   1.568   3.775  11.596 -0.1600 -0.1026 -0.3979
18285TIP3    H176346   1.554   3.815  11.682  0.2449  0.0001 -0.3805
18285TIP3    H276347   1.521   3.832  11.535 -1.8221 -1.0360 -0.0746
18286TIP3   OH276348   1.151   3.152   1.118 -0.0842  0.3651  0.5498
18286TIP3    H176349   1.157   3.057   1.115 -0.8946  0.2568  1.7192
18286TIP3    H276350   1.057   3.171   1.112  0.0554  1.0876  0.4801
18287TIP3   OH276351   1.794   6.656   4.464  0.2042  0.2276 -0.5000
18287TIP3    H176352   1.817   6.563   4.464 -0.3361  0.0473  1.5537
18287TIP3    H276353   1.874   6.699   4.494 -0.1982  0.2063  0.6202
18288TIP3   OH276354   1.476   5.137   3.660 -0.2344  0.4589 -0.6473
18288TIP3    H176355   1.386   5.152   3.690 -0.7774  0.2535 -2.1026
18288TIP3    H276356   1.491   5.044   3.678  0.6426  0.9973  1.9200
18289TIP3   OH276357   1.965   3.923   1.877 -0.1605 -0.4607 -0.1097
18289TIP3    H176358   1.924   3.840   1.898  0.5027 -0.3702  1.7173
18289TIP3    H276359   2.050   3.899   1.839 -0.8100 -0.6082 -1.5331
18290TIP3   OH276360   4.432   4.107   0.661  0.1838 -0.1691  0.0825
18290TIP3    H176361   4.360   4.082   0.603  0.4352 -1.7811  0.3949
18290TIP3    H276362   4.389   4.131   0.744 -0.1627  1.9512 -0.6693
18291TIP3   OH276363   3.995   3.773   0.811 -0.2236  0.4546  0.5765
18291TIP3    H176364   3.943   3.733   0.880 -0.1568  0.5101  0.6607
18291TIP3    H276365   4.045   3.842   0.856  0.5859 -0.1726  0.6654
18292TIP3   OH276366   1.626   5.874   2.077 -0.8854  0.0276  0.1864
18292TIP3    H176367   1.656   5.798   2.128 -1.0030  0.1133  0.3843
18292TIP3    H276368   1.560   5.839   2.018 -0.3283 -0.1797 -0.3164
18293TIP3   OH276369   3.853   1.933   4.336  0.3275 -0.1371 -0.9286
18293TIP3    H176370   3.794   1.976   4.274  0.4611 -0.0025 -0.9601
18293TIP3    H276371   3.852   1.988   4.414 -0.4738 -0.7285 -0.5045
18294TIP3   OH276372   5.132   0.289  15.324  0.1321  0.0342 -0.0192
18294TIP3    H176373   5.227   0.284  15.333  0.1494 -0.2057 -0.2945
18294TIP3    H276374   5.105   0.357  15.385  0.1497 -2.0386  2.5091
18295TIP3   OH276375   0.581   5.019   2.428 -0.2011 -0.7030  0.8917
18295TIP3    H176376   0.661   5.048   2.383 -0.6539 -0.0592  0.5005
18295TIP3    H276377   0.512   5.074   2.392 -1.0018 -1.9599  0.4653
18296TIP3   OH276378   4.345   0.460   4.937 -0.4791 -0.4910 -0.1580
18296TIP3    H176379   4.251   0.474   4.928 -0.7007 -2.3626 -1.2878
18296TIP3    H276380   4.353   0.381   4.991  0.3873 -0.9991 -0.9855
18297TIP3   OH276381   4.450   1.461   3.983 -0.1784  0.1753 -0.1719
18297TIP3    H176382   4.459   1.524   3.911 -1.4428  0.2017 -0.3253
18297TIP3    H276383   4.522   1.483   4.042 -0.5870  1.7872 -0.2177
18298TIP3   OH276384   1.733   1.504  16.844  0.1098  0.4373  0.1995
18298TIP3    H176385   1.820   1.468  16.859  0.8846  2.1341  0.0803
18298TIP3    H276386   1.698   1.521  16.932  1.3736  2.9653  0.3004
18299TIP3   OH276387   5.514   2.822  15.269  0.7083 -0.4501  0.4853
18299TIP3    H176388   5.564   2.815  15.188 -1.0681  0.3484 -0.7416
18299TIP3    H276389   5.512   2.732  15.303  0.4041 -1.0611 -1.0516
18300TIP3   OH276390   6.651   2.763   4.368 -0.6243  0.3102  0.1606
18300TIP3    H176391   6.632   2.821   4.442 -3.3476  0.5318 -0.6221
18300TIP3    H276392   6.609   2.805   4.293  2.1691  0.1569 -1.6269
18301TIP3   OH276393   4.621   0.976  13.370 -0.0858  0.3410  0.4933
18301TIP3    H176394   4.534   0.947  13.341 -0.5701  0.2262  1.9871
18301TIP3    H276395   4.647   1.042  13.305 -1.0188 -0.0502 -0.3054
18302TIP3   OH276396   6.364   2.904  15.786  0.4005 -0.3741  0.0274
18302TIP3    H176397   6.275   2.905  15.822 -0.1436 -2.9056 -1.0189
18302TIP3    H276398   6.402   2.988  15.813 -1.7486  0.1122  1.8576
18303TIP3   OH276399   0.234   5.363   0.584  0.2287 -0.1845  0.4084
18303TIP3    H176400   0.185   5.433   0.542  1.5895  0.4443 -0.1911
18303TIP3    H276401   0.234   5.385   0.677  0.5747  0.5666  0.2320
18304TIP3   OH276402   2.718   2.743   1.327  0.3869  0.4760  0.1690
18304TIP3    H176403   2.784   2.681   1.298 -1.0400 -1.3667  0.6085
18304TIP3    H276404   2.733   2.822   1.275  0.6480 -1.1447 -2.3705
18305TIP3   OH276405   1.301   6.324  11.425  0.2202 -0.1679  0.3669
18305TIP3    H176406   1.363   6.350  11.357 -2.5981  2.0396 -1.5580
18305TIP3    H276407   1.285   6.231  11.408  1.5500 -0.3099 -0.2624
18306TIP3   OH276408   6.415   0.016   5.841  0.1732 -0.0258  0.2973
18306TIP3    H176409   6.450   0.023   5.752  1.5629 -1.1512  0.7174
18306TIP3    H276410   6.377  -0.072   5.845  1.6258 -0.6431  1.2881
18307TIP3   OH276411   5.834   0.566   3.017 -0.0413  0.2798  0.5613
18307TIP3    H176412   5.760   0.537   3.071 -0.1834  0.0290  0.2310
18307TIP3    H276413   5.812   0.538   2.929 -0.1291  1.2924  0.2466
18308TIP3   OH276414   4.801   3.146   2.191  0.0818  0.2379  0.2611
18308TIP3    H176415   4.748   3.215   2.151 -1.5277 -0.7477  0.5882
18308TIP3    H276416   4.744   3.110   2.260  0.3210 -2.2996 -0.7669
18309TIP3   OH276417   2.956   0.473   3.111  0.4639 -0.3403  0.0202
18309TIP3    H176418   3.018   0.518   3.168 -0.9274  1.4581  0.2267
18309TIP3    H276419   2.980   0.501   3.023 -0.8894  1.6309  0.1966
18310TIP3   OH276420   3.615   4.032  14.169 -0.1779 -0.4441 -0.3521
18310TIP3    H176421   3.695   3.979  14.177  0.7524  0.8868 -0.3861
18310TIP3    H276422   3.647   4.122  14.167 -1.8906  0.4378  3.5716
18311TIP3   OH276423   1.257   4.224   3.423 -0.5045 -0.5418 -0.1218
18311TIP3    H176424   1.171   4.246   3.458  0.3543  2.2490  0.4906
18311TIP3    H276425   1.297   4.170   3.491 -0.8277  0.3576  0.8066
18312TIP3   OH276426   5.155   1.929   4.423 -0.5050 -0.1521  0.2450
18312TIP3    H176427   5.207   1.934   4.342  0.7520 -1.6765  0.9053
18312TIP3    H276428   5.197   1.860   4.474 -2.7976 -0.9854  1.1304
18313TIP3   OH276429   1.125   2.464   4.835  0.1293  0.0710  0.2783
18313TIP3    H176430   1.193   2.527   4.810  0.2747 -0.6050 -1.1047
18313TIP3    H276431   1.156   2.380   4.801 -0.3167 -0.6849  1.6452
18314TIP3   OH276432   1.953   5.599   4.792  0.0962  0.1318 -0.9752
18314TIP3    H176433   1.933   5.680   4.745  0.7492  0.8463 -0.0784
18314TIP3    H276434   1.929   5.529   4.732 -0.3944  0.9950 -1.8108
18315TIP3   OH276435   1.775   1.315  13.503  0.0793  0.5593  0.4283
18315TIP3    H176436   1.730   1.261  13.568 -0.6862 -0.2969 -0.7676
18315TIP3    H276437   1.851   1.263  13.477 -0.1277  0.4806 -0.0269
18316TIP3   OH276438   1.191   5.397  11.871  0.0179  0.4972  0.5471
18316TIP3    H176439   1.218   5.306  11.855  0.7386  0.9817 -1.2046
18316TIP3    H276440   1.180   5.434  11.784 -1.2353  1.8295  1.2475
18317TIP3   OH276441   4.777   0.828  11.959 -0.5677 -0.1535  0.0551
18317TIP3    H176442   4.830   0.904  11.984 -1.4157  0.3693  0.2807
18317TIP3    H276443   4.718   0.860  11.892  0.5322 -1.1529 -1.4676
18318TIP3   OH276444   6.326   4.844  16.452 -0.1827 -0.0216 -0.3529
18318TIP3    H176445   6.323   4.813  16.362  1.9188 -1.7511  0.0828
18318TIP3    H276446   6.353   4.767  16.503 -0.2485  1.1783  1.6056
18319TIP3   OH276447   3.282   3.014   2.585 -0.4939  0.1139 -0.7828
18319TIP3    H176448   3.325   3.031   2.669 -0.1316 -1.4943 -0.6134
18319TIP3    H276449   3.235   2.932   2.599 -1.8540  0.7266 -1.6444
18320TIP3   OH276450   1.153   4.783   0.805  0.6620 -0.3878  0.2503
18320TIP3    H176451   1.140   4.743   0.891 -0.8635 -0.6423 -0.0875
18320TIP3    H276452   1.085   4.747   0.750  0.8572  0.7062 -0.7626
18321TIP3   OH276453   3.014   3.391  14.870  0.2035  0.2436 -0.2987
18321TIP3    H176454   3.108   3.389  14.891  0.3611  1.0690 -0.8662
18321TIP3    H276455   3.012   3.396  14.774 -0.4347 -0.1478 -0.3062
18322TIP3   OH276456   2.284   3.571  11.646 -0.6573 -0.5089 -0.0751
18322TIP3    H176457   2.241   3.610  11.570 -1.1657  1.8904  1.3574
18322TIP3    H276458   2.215   3.519  11.688 -1.0191 -0.0040 -0.0317
18323TIP3   OH276459   0.116   0.462  13.736 -0.0799  0.0525  0.5409
18323TIP3    H176460   0.033   0.476  13.782  0.4307 -0.3722  1.6247
18323TIP3    H276461   0.090   0.445  13.645 -1.2361 -0.9414  1.0357
18324TIP3   OH276462   4.469   0.276  16.868 -0.3214  0.2869 -0.4798
18324TIP3    H176463   4.513   0.324  16.938  3.1785 -2.8954 -0.1682
18324TIP3    H276464   4.518   0.299  16.789 -1.4008  0.4755 -1.1076
18325TIP3   OH276465   0.838   2.870   3.122 -0.3160 -0.2160 -0.0786
18325TIP3    H176466   0.929   2.865   3.152 -0.5871 -1.9342  0.5483
18325TIP3    H276467   0.825   2.793   3.068 -2.2328 -1.7997  2.3870
18326TIP3   OH276468   6.553   4.887  11.935 -0.4339  0.0996 -0.0500
18326TIP3    H176469   6.540   4.964  11.990 -0.8891 -0.9377  1.3646
18326TIP3    H276470   6.620   4.836  11.980  0.3522 -0.0424 -1.3229
18327TIP3   OH276471   4.737   0.600  12.116  0.1127 -0.2414  0.3031
18327TIP3    H176472   4.809   0.540  12.094  0.4026 -0.3277  1.4549
18327TIP3    H276473   4.755   0.678  12.063  0.0497 -0.9343 -0.7732
18328TIP3   OH276474   0.743   5.769  12.305 -0.0383 -0.2463  0.0254
18328TIP3    H176475   0.737   5.864  12.293 -0.0302 -0.2169  0.2599
18328TIP3    H276476   0.671   5.734  12.253  0.7508 -0.1963 -1.1488
18329TIP3   OH276477   5.832   2.970  14.095 -0.0979 -0.0998  0.1644
18329TIP3    H176478   5.755   3.005  14.052 -0.2173 -1.0552 -0.4221
18329TIP3    H276479   5.864   3.042  14.149 -1.3642  0.3200  0.3799
18330TIP3   OH276480   0.526   5.572  16.593  0.1380 -0.0209  0.0903
18330TIP3    H176481   0.569   5.649  16.556 -0.7947  0.7336  0.5631
18330TIP3    H276482   0.580   5.549  16.669  1.4901 -0.9846 -1.0960
18331TIP3   OH276483   2.266   0.149   4.273 -0.3474  0.0053 -0.0456
18331TIP3    H176484   2.191   0.108   4.316 -1.4932  0.7117 -1.3313
18331TIP3    H276485   2.280   0.098   4.193 -0.3737  0.7575 -0.5366
18332TIP3   OH276486   4.134   5.019   2.358 -0.5152 -0.0764  0.3502
18332TIP3    H176487   4.133   4.938   2.307  1.4888 -0.4107  0.7464
18332TIP3    H276488   4.201   5.004   2.425 -0.2145  1.8411  0.5480
18333TIP3   OH276489   0.810   4.325   1.289  0.3927  0.1666  0.0595
18333TIP3    H176490   0.902   4.300   1.291  0.3065 -0.3772 -1.2705
18333TIP3    H276491   0.766   4.250   1.248 -0.6972  0.2732  0.9852
18334TIP3   OH276492   4.161   0.893  15.775  0.4435 -0.7398 -0.1698
18334TIP3    H176493   4.149   0.968  15.833 -0.7867 -1.7845  0.9854
18334TIP3    H276494   4.099   0.907  15.703  2.3903  0.8625 -1.6593
18335TIP3   OH276495   2.374   0.833  14.004  0.0963  0.2682 -0.0123
18335TIP3    H176496   2.398   0.919  14.036  0.8041  0.1149 -0.1209
18335TIP3    H276497   2.279   0.829  14.015  0.1910  0.6443  0.9972
18336TIP3   OH276498   6.123   0.896  15.219  0.4356 -0.2298 -0.1215
18336TIP3    H176499   6.124   0.940  15.134  1.0476  0.4850  0.2435
18336TIP3    H276500   6.158   0.808  15.201  2.9117  0.6820 -0.2485
18337TIP3   OH276501   4.935   6.162   3.610  0.0190 -0.5891  0.6967
18337TIP3    H176502   4.932   6.085   3.667  2.2100 -2.8746 -1.9846
18337TIP3    H276503   5.025   6.193   3.616 -0.6441  1.3803  1.1477
18338TIP3   OH276504   4.637   2.063  12.949  0.0032  0.2543  0.0256
18338TIP3    H176505   4.728   2.047  12.973  0.1482 -0.9395 -1.2296
18338TIP3    H276506   4.640   2.091  12.858 -0.8319  1.1003  0.2339
18339TIP3   OH276507   5.890   5.814  16.365 -0.0932  0.1388 -0.1172
18339TIP3    H176508   5.916   5.833  16.455  1.3834 -1.3896 -0.1735
18339TIP3    H276509   5.799   5.784  16.373  0.0199  0.0219  0.8792
18340TIP3   OH276510   4.556   4.103  13.111  0.3775 -0.0578 -0.5509
18340TIP3    H176511   4.640   4.116  13.067  0.8479 -1.2027 -0.0334
18340TIP3    H276512   4.567   4.021  13.160 -1.2496 -0.5767 -0.9775
18341TIP3   OH276513   1.176   1.326  16.765 -0.0341  0.0500 -0.0563
18341TIP3    H176514   1.204   1.401  16.818  0.8382  0.6059 -1.2781
18341TIP3    H276515   1.091   1.301  16.803 -1.3127  2.8613 -0.7748
18342TIP3   OH276516   3.599   1.085  14.479  0.7346 -0.3710  0.4192
18342TIP3    H176517   3.601   1.047  14.392  0.6235  1.0543 -0.2355
18342TIP3    H276518   3.691   1.097  14.503  0.7659 -0.8487  0.5399
18343TIP3   OH276519   2.584   2.149  14.372 -0.0012 -0.2814 -0.0628
18343TIP3    H176520   2.590   2.226  14.427 -0.6690 -0.5441  0.3889
18343TIP3    H276521   2.665   2.150  14.321 -1.9610  3.3898 -3.6670
18344TIP3   OH276522   2.576   4.408  14.976 -0.3356 -0.1362  0.0211
18344TIP3    H176523   2.489   4.380  15.003 -0.3262 -1.0495 -0.8627
18344TIP3    H276524   2.561   4.484  14.920 -0.5115  0.1671  0.4764
18345TIP3   OH276525   4.891   6.101  16.976 -0.3252  0.0262 -0.0047
18345TIP3    H176526   4.934   6.166  17.031  0.1923 -0.3786  0.0742
18345TIP3    H276527   4.800   6.099  17.008 -0.3740  0.7719 -0.0727
18346TIP3   OH276528   6.593   6.099  14.858 -0.0788  0.4688 -0.4584
18346TIP3    H176529   6.639   6.182  14.848 -1.2242  1.2934  0.8061
18346TIP3    H276530   6.522   6.117  14.919  1.7614 -2.2663  2.8381
18347TIP3   OH276531   0.041   1.026   6.095 -0.1880  0.2563 -0.4951
18347TIP3    H176532   0.049   0.984   6.181  0.2746  1.0775 -0.1285
18347TIP3    H276533   0.131   1.031   6.063 -0.4262 -0.7543 -1.3856
18348TIP3   OH276534   1.732   1.768   3.908 -0.0204 -0.4458  0.3886
18348TIP3    H176535   1.683   1.798   3.984 -1.3677 -2.4428  0.3580
18348TIP3    H276536   1.823   1.791   3.928 -0.5834  0.8603  1.6682
18349TIP3   OH276537   0.151   1.105  13.224  0.2817  0.0002 -0.1573
18349TIP3    H176538   0.184   1.136  13.139  1.1870 -0.9455 -0.1841
18349TIP3    H276539   0.062   1.138  13.229  0.8976  1.8223 -0.5497
18350TIP3   OH276540   1.298   6.280  12.002  0.0482 -0.1181  0.2794
18350TIP3    H176541   1.295   6.361  12.054 -3.0546  0.5532 -0.7521
18350TIP3    H276542   1.391   6.259  11.997  0.9787  3.2495  0.8047
18351TIP3   OH276543   2.832   0.495   0.227  0.3241  0.9047  0.2908
18351TIP3    H176544   2.744   0.472   0.258  0.1668  1.6194  0.3860
18351TIP3    H276545   2.850   0.431   0.158 -0.9689  1.7635 -0.8942
18352TIP3   OH276546   4.643   4.981   0.532  0.0345  0.3124  0.0851
18352TIP3    H176547   4.704   5.032   0.480  0.0171 -0.2523 -0.4979
18352TIP3    H276548   4.696   4.910   0.568 -0.2437 -0.0959 -0.3045
18353TIP3   OH276549   0.897   0.171   2.631 -0.1726 -0.4658  0.3684
18353TIP3    H176550   0.845   0.220   2.694  1.9506  0.4755  1.5047
18353TIP3    H276551   0.864   0.082   2.635 -2.4548  0.3089  0.1085
18354TIP3   OH276552   5.019   0.213  12.491  0.2571  0.2881 -0.2874
18354TIP3    H176553   4.953   0.280  12.507  1.0023  0.9412  0.1252
18354TIP3    H276554   5.100   0.250  12.526  0.7150 -0.7748 -0.1772
18355TIP3   OH276555   5.672   6.709  12.558  0.5152 -0.2228 -0.2263
18355TIP3    H176556   5.649   6.627  12.514 -0.8589 -0.7162  1.3080
18355TIP3    H276557   5.594   6.763  12.549  0.1963 -0.3299  1.5073
18356TIP3   OH276558   2.943   1.809  16.347 -0.3953  0.0950 -0.1822
18356TIP3    H176559   3.016   1.802  16.286 -2.9281  0.2070 -3.5155
18356TIP3    H276560   2.954   1.895  16.389  2.2009 -0.6042  0.7641
18357TIP3   OH276561   3.525   1.894   6.109 -0.3537 -0.2684  0.3561
18357TIP3    H176562   3.557   1.960   6.171  1.4842 -0.8036  0.0310
18357TIP3    H276563   3.518   1.814   6.161 -0.4683 -0.3194  0.2610
18358TIP3   OH276564   4.020   2.315  13.724 -0.1220 -0.4969 -0.0397
18358TIP3    H176565   3.953   2.340  13.660  0.2739 -0.9834 -0.6681
18358TIP3    H276566   4.027   2.220  13.714  1.0817 -0.3832 -0.4243
18359TIP3   OH276567   0.424   0.320   2.441  0.0459 -0.4243 -0.1992
18359TIP3    H176568   0.435   0.366   2.525 -0.4240 -0.5944 -0.0379
18359TIP3    H276569   0.332   0.334   2.419  0.3123  0.1258 -0.9955
18360TIP3   OH276570   1.579   1.118   3.284  0.1817 -0.1187 -0.0605
18360TIP3    H176571   1.490   1.118   3.247 -0.7800  0.5465  2.0702
18360TIP3    H276572   1.607   1.209   3.280  0.4233 -0.1867  0.0729
18361TIP3   OH276573   2.655   0.328   0.701 -0.2822  0.4950  0.0329
18361TIP3    H176574   2.733   0.368   0.741 -0.9451 -0.7585  2.8111
18361TIP3    H276575   2.686   0.244   0.669 -0.3419  0.2238  0.6618
18362TIP3   OH276576   3.269   6.747  14.773  0.1427  0.1178  0.1714
18362TIP3    H176577   3.287   6.671  14.719  1.0655 -0.5119  1.3048
18362TIP3    H276578   3.178   6.737  14.800 -0.4185  0.5963 -1.4580
18363TIP3   OH276579   0.240   1.279   0.149  0.0733  0.4056  0.2139
18363TIP3    H176580   0.307   1.228   0.195 -0.5368 -0.8197 -0.2153
18363TIP3    H276581   0.253   1.257   0.057 -2.2560 -1.5879  0.2650
18364TIP3   OH276582   5.554   4.085  11.745 -0.0660 -0.0940 -0.4471
18364TIP3    H176583   5.504   4.132  11.811 -3.6020 -1.3850 -1.9895
18364TIP3    H276584   5.580   4.152  11.682  2.7406  1.0279  1.6793
18365TIP3   OH276585   3.689   3.632  14.858  0.2916  0.2462  0.0114
18365TIP3    H176586   3.599   3.627  14.890  0.1655  3.4448  0.4139
18365TIP3    H276587   3.735   3.563  14.907 -1.5105 -0.1274  1.2771
18366TIP3   OH276588   5.098   3.872  13.532 -0.0978  0.4475 -0.4462
18366TIP3    H176589   5.026   3.811  13.548  0.6178  0.2723  2.6559
18366TIP3    H276590   5.079   3.909  13.446 -3.1949 -0.5211 -0.2986
18367TIP3   OH276591   0.006   5.696   1.931  0.2292 -0.8988 -0.1217
18367TIP3    H176592   0.043   5.659   2.011 -0.2242 -1.3494 -0.1194
18367TIP3    H276593   0.019   5.791   1.940 -1.8858 -0.7055  1.5558
18368TIP3   OH276594   4.658   4.676  11.968  0.5999 -0.4071  0.2508
18368TIP3    H176595   4.658   4.592  11.923  1.2894 -2.5195  3.7640
18368TIP3    H276596   4.742   4.678  12.015 -0.7031  0.7337  2.7278
18369TIP3   OH276597   0.978   3.168  16.247 -0.7435 -0.4807  0.3768
18369TIP3    H176598   0.957   3.161  16.154  2.2024 -0.9180 -0.3581
18369TIP3    H276599   1.033   3.246  16.254  1.7929 -2.1905  1.0795
18370TIP3   OH276600   6.762   4.109   4.521  0.4739  0.4502  0.4023
18370TIP3    H176601   6.773   4.029   4.573 -0.2649 -1.1806 -1.8066
18370TIP3    H276602   6.838   4.110   4.463  0.2150  1.0845  0.0644
18371TIP3   OH276603   3.328   4.326   0.864  0.4058 -0.6268 -0.2676
18371TIP3    H176604   3.354   4.417   0.877 -0.0094 -0.6513  0.8738
18371TIP3    H276605   3.236   4.331   0.837  0.5676 -0.6804 -0.8273
18372TIP3   OH276606   2.238   0.303  15.685  0.2712 -0.2212  0.1758
18372TIP3    H176607   2.234   0.398  15.678 -0.1308 -0.1430  1.2690
18372TIP3    H276608   2.292   0.275  15.611  0.2592  0.8391 -0.2398
18373TIP3   OH276609   4.078   2.076   2.669 -0.0210  0.4452 -0.3403
18373TIP3    H176610   4.166   2.104   2.695 -0.6549  2.1207  0.1312
18373TIP3    H276611   4.063   2.120   2.585 -0.1545 -0.4067 -0.7741
18374TIP3   OH276612   0.496   5.597  15.709 -0.5016 -0.5194  0.1542
18374TIP3    H176613   0.549   5.674  15.690 -1.3666 -0.1264 -0.7309
18374TIP3    H276614   0.427   5.629  15.767 -0.8247 -0.6306 -0.1628
18375TIP3   OH276615   4.563   4.476   0.061  0.3644 -0.5001  0.4977
18375TIP3    H176616   4.498   4.538   0.028 -1.6905 -2.3117  0.8661
18375TIP3    H276617   4.546   4.472   0.155  1.3808 -0.6530  0.6900
18376TIP3   OH276618   3.483   2.648   5.058 -0.1148 -0.0949 -0.4770
18376TIP3    H176619   3.513   2.736   5.036 -0.1736 -0.2749 -1.3226
18376TIP3    H276620   3.522   2.592   4.990 -0.2326 -0.6914 -0.0625
18377TIP3   OH276621   5.885   1.140  16.864  0.0749  0.1849 -0.0496
18377TIP3    H176622   5.928   1.059  16.890 -0.3832 -0.0096  0.1132
18377TIP3    H276623   5.954   1.193  16.824  0.3376 -0.3619 -0.3284
18378TIP3   OH276624   3.430   1.473  16.792  0.2536 -0.0905  0.1488
18378TIP3    H176625   3.429   1.567  16.806  1.7389  0.1205 -1.0150
18378TIP3    H276626   3.448   1.436  16.879 -1.6793  0.5753  0.8961
18379TIP3   OH276627   5.162   4.810  14.127 -0.1831  0.0063  0.0497
18379TIP3    H176628   5.218   4.785  14.201  1.4638 -0.0193 -1.1384
18379TIP3    H276629   5.175   4.905  14.118 -0.0516 -0.0548 -0.4396
18380TIP3   OH276630   0.036   3.921   5.438  0.2026  0.2881 -0.5318
18380TIP3    H176631   0.085   3.859   5.493 -1.3062  0.3114  0.9404
18380TIP3    H276632  -0.012   3.865   5.377 -0.2716  0.0640  0.0367
18381TIP3   OH276633   2.185   6.354   5.992  0.4376 -0.6676 -0.0824
18381TIP3    H176634   2.112   6.380   5.936  0.6349  0.7503  0.2736
18381TIP3    H276635   2.202   6.263   5.969 -0.9542 -0.7974 -0.7023
18382TIP3   OH276636   1.003   5.211  13.903  0.0765 -0.0486 -0.2805
18382TIP3    H176637   0.985   5.122  13.871 -2.4043  0.9050 -1.8022
18382TIP3    H276638   0.941   5.223  13.975  1.4756 -0.0353  0.9711
18383TIP3   OH276639   2.232   6.602  13.105  0.9695  0.7769 -0.3682
18383TIP3    H176640   2.138   6.617  13.103  0.9594  0.8721  0.4001
18383TIP3    H276641   2.245   6.524  13.052  0.2293 -0.3311  1.0325
18384TIP3   OH276642   3.485   6.353  13.568 -0.2156  0.3231  0.0179
18384TIP3    H176643   3.579   6.343  13.552 -0.3446 -1.6485  0.2174
18384TIP3    H276644   3.443   6.318  13.489 -0.7819 -0.8115  0.7924
18385TIP3   OH276645   5.837   4.235   4.465 -0.3170  0.2854 -0.1566
18385TIP3    H176646   5.862   4.326   4.481  0.8404  0.0847 -0.7236
18385TIP3    H276647   5.776   4.214   4.536 -0.3525  1.3964  0.1652
18386TIP3   OH276648   1.142   6.724   5.491  0.0838 -0.1931  0.3866
18386TIP3    H176649   1.053   6.733   5.525 -0.0721  0.1661 -0.1045
18386TIP3    H276650   1.170   6.636   5.518 -1.4051 -1.3910 -1.7097
18387TIP3   OH276651   2.595   6.490  16.868 -0.3944  0.0279  0.0164
18387TIP3    H176652   2.626   6.580  16.864  0.9699 -0.4625 -1.0701
18387TIP3    H276653   2.551   6.484  16.953 -1.6955  2.0519 -0.4275
18388TIP3   OH276654   1.563   6.560  12.800  0.6139 -0.7154 -0.0240
18388TIP3    H176655   1.604   6.632  12.848  1.1123 -2.0700  1.6720
18388TIP3    H276656   1.599   6.568  12.711  2.6617 -0.3583  0.7733
18389TIP3   OH276657   6.399   1.317  14.375  0.1025 -0.5842 -0.5960
18389TIP3    H176658   6.339   1.283  14.441 -0.2316 -0.1396 -0.6691
18389TIP3    H276659   6.346   1.322  14.295  0.8891 -2.5976 -1.3163
18390TIP3   OH276660   2.285   0.904   4.590 -0.3466  0.6307 -0.2334
18390TIP3    H176661   2.192   0.926   4.594 -0.3815  0.2502  1.5439
18390TIP3    H276662   2.286   0.813   4.560 -0.7532 -0.3731  2.5441
18391TIP3   OH276663   1.604   2.054  16.474  0.0589 -0.4084 -0.7071
18391TIP3    H176664   1.690   2.071  16.434  1.0595 -0.7173  1.1697
18391TIP3    H276665   1.615   2.080  16.565 -1.8176 -0.6496 -0.3739
18392TIP3   OH276666   2.697   2.723  13.370 -0.4302 -0.0882  0.1132
18392TIP3    H176667   2.676   2.788  13.437 -0.7162 -1.1004  1.0439
18392TIP3    H276668   2.791   2.729  13.358 -0.3904  0.1629  0.5535
18393TIP3   OH276669   4.132   6.490   2.871 -0.3370  0.3456  0.1270
18393TIP3    H176670   4.068   6.531   2.813  0.3103 -0.6515 -1.3665
18393TIP3    H276671   4.150   6.405   2.830  1.4467  0.3385  0.8408
18394TIP3   OH276672   6.241   0.404   5.002 -0.6365  0.0993  0.2756
18394TIP3    H176673   6.171   0.454   4.961 -0.9827 -0.8350 -0.3269
18394TIP3    H276674   6.322   0.442   4.967 -0.8025  1.5605  1.4269
18395TIP3   OH276675   5.171   5.097  16.923 -0.1800 -0.6333 -0.1157
18395TIP3    H176676   5.223   5.082  17.002 -1.0534  0.0227  0.6035
18395TIP3    H276677   5.235   5.121  16.856  0.3029  2.4080  1.2915
18396TIP3   OH276678   5.442   0.640  13.006 -0.4819  0.7595  0.5207
18396TIP3    H176679   5.381   0.571  12.981  0.1748  0.2918  0.1707
18396TIP3    H276680   5.435   0.644  13.102 -0.9249  0.5839  0.4964
18397TIP3   OH276681   5.771   2.053  13.602 -0.3304  0.0771  0.5878
18397TIP3    H176682   5.691   2.087  13.561  0.2819 -1.1280 -1.8092
18397TIP3    H276683   5.838   2.062  13.534  0.5386 -2.9614  0.8808
18398TIP3   OH276684   6.207   2.349  13.626 -0.1869 -0.0994 -0.3716
18398TIP3    H176685   6.117   2.319  13.634 -0.6167  1.3337  0.6981
18398TIP3    H276686   6.258   2.270  13.606 -1.2281 -1.5431  2.2002
18399TIP3   OH276687   1.322   2.103  17.188 -0.5371 -0.1054  0.0458
18399TIP3    H176688   1.298   2.010  17.185 -1.2684  0.0737  0.1495
18399TIP3    H276689   1.417   2.103  17.200 -0.4284 -0.8446 -0.7099
18400TIP3   OH276690   4.581   1.711  16.137  0.0051 -0.3192  0.5078
18400TIP3    H176691   4.622   1.626  16.154 -1.9022 -1.2286  0.8113
18400TIP3    H276692   4.619   1.738  16.053 -0.7654 -2.4458 -0.6274
18401TIP3   OH276693   5.048   0.630   5.003 -0.2692  0.2318  0.2726
18401TIP3    H176694   5.065   0.700   5.067  2.2886  1.4617 -1.5543
18401TIP3    H276695   5.099   0.556   5.034  1.8600  1.1734 -0.7562
18402TIP3   OH276696   2.744   5.560  13.452  0.4087 -0.1782 -0.3336
18402TIP3    H176697   2.727   5.469  13.476  1.9111  0.0449  1.8980
18402TIP3    H276698   2.676   5.611  13.497  0.5582 -0.0824 -0.2136
18403TIP3   OH276699   0.204   4.429  11.932 -0.1498  0.2955  0.4082
18403TIP3    H176700   0.269   4.381  11.879  0.1128  3.1536 -2.0967
18403TIP3    H276701   0.120   4.410  11.890 -0.2563  0.6797  0.4461
18404TIP3   OH276702   3.121   4.704   4.446  0.3117  0.8102  0.6077
18404TIP3    H176703   3.080   4.787   4.421  1.2219  2.3894  3.7789
18404TIP3    H276704   3.073   4.677   4.524  1.6214 -0.3337  1.0477
18405TIP3   OH276705   0.392   2.723  12.346 -0.2270 -0.0538  0.3200
18405TIP3    H176706   0.376   2.811  12.311 -1.0234 -0.7188 -1.0506
18405TIP3    H276707   0.431   2.675  12.273 -0.6201 -1.0870  0.7684
18406TIP3   OH276708   2.489   2.410   2.480 -0.1530  0.1890  0.1925
18406TIP3    H176709   2.412   2.434   2.532 -0.7784 -0.2766 -0.4866
18406TIP3    H276710   2.561   2.459   2.519 -1.0896  1.9163 -0.1622
18407TIP3   OH276711   2.911   1.918  14.116 -0.1851  0.0669  0.2224
18407TIP3    H176712   2.855   1.847  14.082 -1.0416 -0.0941  1.8908
18407TIP3    H276713   2.996   1.876  14.131 -0.0428 -0.0612 -0.8645
18408TIP3   OH276714   1.640   6.188   0.109  0.2816 -0.8056 -0.0105
18408TIP3    H176715   1.585   6.205   0.033  0.5240  0.0909 -0.0067
18408TIP3    H276716   1.607   6.248   0.176 -0.9353 -2.6637  1.1288
18409TIP3   OH276717   1.861   5.140  12.469  0.0596 -0.8340 -0.1514
18409TIP3    H176718   1.860   5.101  12.381  0.9726 -0.3796 -0.3756
18409TIP3    H276719   1.897   5.227  12.456  0.4644 -0.8596  0.7241
18410TIP3   OH276720   3.116   1.575   1.253 -0.3383 -1.0047  0.0304
18410TIP3    H176721   3.043   1.527   1.214 -1.0862 -0.8274  1.1901
18410TIP3    H276722   3.077   1.626   1.323  0.9045 -0.9499  0.7056
18411TIP3   OH276723   1.291   3.074   2.577 -0.6609 -0.6149 -0.2281
18411TIP3    H176724   1.314   3.094   2.668 -0.4693 -1.7260 -0.0237
18411TIP3    H276725   1.301   3.158   2.531 -1.0884  0.0314  0.8301
18412TIP3   OH276726   3.365   1.079  12.501 -0.7349 -0.5027 -0.1746
18412TIP3    H176727   3.376   0.988  12.475  0.9081 -0.3953  0.0295
18412TIP3    H276728   3.446   1.122  12.473 -2.2206  1.3233 -1.9443
18413TIP3   OH276729   0.938   2.672   1.670 -0.3392 -0.0297  0.5587
18413TIP3    H176730   1.004   2.702   1.608 -0.6523 -1.9312 -0.8082
18413TIP3    H276731   0.866   2.735   1.661 -0.7122 -0.6667 -1.7040
18414TIP3   OH276732   5.120   1.787   2.830  0.0747 -0.2090  0.5551
18414TIP3    H176733   5.168   1.787   2.747  0.3139 -1.3582  0.6820
18414TIP3    H276734   5.185   1.764   2.896  0.1023  1.6346  1.2234
18415TIP3   OH276735   3.950   2.032  13.375 -0.4490  0.4481 -0.1759
18415TIP3    H176736   3.907   2.110  13.340 -0.5907  0.5215  0.1549
18415TIP3    H276737   4.024   2.018  13.317 -0.5465  0.7062 -0.3658
18416TIP3   OH276738   4.163   2.403   5.118  0.1282 -0.0185  0.2771
18416TIP3    H176739   4.247   2.447   5.130 -0.1048  0.9620 -1.3518
18416TIP3    H276740   4.099   2.463   5.157  0.1792 -0.9125  1.8033
18417TIP3   OH276741   0.920   3.655  12.699  0.1941  0.5505  0.2347
18417TIP3    H176742   0.951   3.737  12.738  1.9060 -0.9743  2.2621
18417TIP3    H276743   0.998   3.618  12.658  0.0197 -1.1317  1.3466
18418TIP3   OH276744   1.757   3.133  11.318 -0.3457  0.9150 -0.8345
18418TIP3    H176745   1.670   3.161  11.290  0.2043  2.8257 -0.7822
18418TIP3    H276746   1.814   3.155  11.244  0.6132  2.9863  0.4208
18419TIP3   OH276747   3.223   0.834  12.425  0.2356 -0.1509 -0.4296
18419TIP3    H176748   3.225   0.880  12.341  0.0561 -2.5902 -1.8488
18419TIP3    H276749   3.302   0.781  12.425  0.1564 -0.2991  0.9167
18420TIP3   OH276750   4.129   4.800   5.924  0.1271 -0.1242 -0.5231
18420TIP3    H176751   4.067   4.831   5.990 -0.8792 -1.4418 -0.8203
18420TIP3    H276752   4.195   4.752   5.973  0.0215 -0.1048 -0.3617
18421TIP3   OH276753   6.030   4.839   0.927  0.1417  0.3339 -0.2817
18421TIP3    H176754   6.062   4.797   0.847 -0.2373  0.2377 -0.3887
18421TIP3    H276755   5.984   4.917   0.896  0.2160  0.4324 -0.1409
18422TIP3   OH276756   5.420   1.930   5.707 -0.3972  0.6320  0.1770
18422TIP3    H176757   5.444   1.957   5.618  0.7783 -0.3309  0.1751
18422TIP3    H276758   5.347   1.987   5.730 -1.7814 -0.1225 -1.9945
18423TIP3   OH276759   0.338   3.209   2.569 -0.0886 -0.2758  0.5453
18423TIP3    H176760   0.318   3.259   2.649 -1.5622 -1.6359  1.0817
18423TIP3    H276761   0.299   3.123   2.584 -0.8110 -0.4283 -1.8360
18424TIP3   OH276762   5.205   2.703   1.117 -0.2454 -0.3050  0.6265
18424TIP3    H176763   5.110   2.696   1.130 -0.2482 -2.2573 -0.0340
18424TIP3    H276764   5.215   2.727   1.025 -0.1598 -3.1886 -0.2276
18425TIP3   OH276765   0.412   0.162  12.221  0.4629 -0.2991 -0.1632
18425TIP3    H176766   0.332   0.136  12.175 -0.7500  2.2438  0.3536
18425TIP3    H276767   0.476   0.175  12.151 -0.3058 -0.0104 -0.8381
18426TIP3   OH276768   4.413   6.794   0.339 -0.1497  0.7422  0.3570
18426TIP3    H176769   4.386   6.833   0.422 -1.5512 -0.8688  0.7051
18426TIP3    H276770   4.361   6.839   0.273  1.0096  2.0691  0.2879
18427TIP3   OH276771   6.279   3.218  15.523  0.4722  0.4493 -0.7898
18427TIP3    H176772   6.295   3.196  15.432 -0.3096  2.6273 -1.5234
18427TIP3    H276773   6.347   3.281  15.545 -1.1297  2.3308 -0.9177
18428TIP3   OH276774   5.243   5.434  15.742 -0.5832  0.1511  0.4918
18428TIP3    H176775   5.245   5.344  15.774  0.2003 -0.0526 -0.0996
18428TIP3    H276776   5.204   5.427  15.655 -0.0632  0.3101  0.2416
18429TIP3   OH276777   3.796   6.643  16.224 -0.7625 -0.0620 -0.2403
18429TIP3    H176778   3.758   6.693  16.296 -1.5375  0.4706 -0.9927
18429TIP3    H276779   3.762   6.686  16.145  1.3279  0.3834 -0.9661
18430TIP3   OH276780   1.983   1.338  16.820  0.2360  0.1801  0.5828
18430TIP3    H176781   2.079   1.340  16.812  0.1998  0.8264  0.1703
18430TIP3    H276782   1.954   1.275  16.754  0.2820  1.3747 -0.6375
18431TIP3   OH276783   2.218   3.117   3.481 -0.2116  0.0243 -0.5453
18431TIP3    H176784   2.150   3.183   3.497 -0.7400 -0.7495  0.4649
18431TIP3    H276785   2.222   3.111   3.385 -2.3120 -0.6246 -0.6610
18432TIP3   OH276786   0.492   3.126  13.422  0.1780  0.0622 -0.0429
18432TIP3    H176787   0.490   3.221  13.426  0.8216  0.1083 -0.6904
18432TIP3    H276788   0.405   3.102  13.390  0.0200  0.4344  0.1062
18433TIP3   OH276789   4.408   5.051  13.621  0.1393  0.1776  0.2441
18433TIP3    H176790   4.429   4.987  13.688  1.0745 -0.0727 -0.2805
18433TIP3    H276791   4.486   5.056  13.566 -0.1742  1.2497 -0.1329
18434TIP3   OH276792   3.209   1.821  12.214 -0.6281  0.4207 -0.1329
18434TIP3    H176793   3.209   1.884  12.286 -0.9093  0.1063  0.1427
18434TIP3    H276794   3.195   1.736  12.256  1.7245 -0.1092 -0.2700
18435TIP3   OH276795   3.218   1.568   3.129 -0.0721  0.1235 -0.5149
18435TIP3    H176796   3.309   1.570   3.158 -0.2387  0.3854 -0.0023
18435TIP3    H276797   3.218   1.617   3.047  0.0412  1.1490  0.0872
18436TIP3   OH276798   0.789   3.552  15.005  0.1486  0.0522  0.3668
18436TIP3    H176799   0.831   3.553  14.919 -1.6532  0.8142 -0.5491
18436TIP3    H276800   0.848   3.603  15.061  1.2976 -0.3713 -0.4233
18437TIP3   OH276801   1.359   1.480   3.228  0.5449 -0.0142 -0.1023
18437TIP3    H176802   1.429   1.435   3.275  0.4812  0.3611  0.3646
18437TIP3    H276803   1.280   1.458   3.278  0.6159  1.2101  0.5786
18438TIP3   OH276804   5.396   6.412   4.459 -0.5589  0.3490  0.0996
18438TIP3    H176805   5.332   6.353   4.498  0.4210 -1.1397 -0.4358
18438TIP3    H276806   5.355   6.442   4.378 -0.6647 -0.4670 -0.1598
18439TIP3   OH276807   2.238   2.945  12.156 -0.3711 -0.7017 -0.3043
18439TIP3    H176808   2.328   2.917  12.173 -0.1165  0.0909 -0.3078
18439TIP3    H276809   2.204   2.880  12.095  0.3816 -0.6959 -0.7402
18440TIP3   OH276810   2.799   1.714  11.174 -0.7574 -0.6971  0.2837
18440TIP3    H176811   2.860   1.776  11.134 -2.2892  1.2174  0.7374
18440TIP3    H276812   2.724   1.713  11.115 -1.3559 -0.9886  1.0321
18441TIP3   OH276813   4.595   3.360   2.191 -0.0046  0.6227 -0.0074
18441TIP3    H176814   4.532   3.423   2.224  0.9519  1.2721  0.6368
18441TIP3    H276815   4.618   3.393   2.104  0.1454  0.9102  0.1389
18442TIP3   OH276816   6.120   0.102   3.457 -0.4319  0.0105  0.0959
18442TIP3    H176817   6.205   0.061   3.438 -0.5815  0.2874 -1.2947
18442TIP3    H276818   6.078   0.042   3.519  0.4762 -0.5231  0.2130
18443TIP3   OH276819   0.095   3.450  15.677 -0.4323  0.3241 -0.4272
18443TIP3    H176820   0.129   3.508  15.745 -0.0658  0.1583 -0.4674
18443TIP3    H276821   0.135   3.365  15.695 -0.9863  0.0739 -0.3575
18444TIP3   OH276822   2.482   1.604   1.277  0.2690 -0.2237  0.0407
18444TIP3    H176823   2.420   1.667   1.316 -0.6527  0.3225 -2.1809
18444TIP3    H276824   2.567   1.645   1.289  0.0057  0.0520  1.1823
18445TIP3   OH276825   1.132   4.198  12.510  0.0881  0.8763  0.3268
18445TIP3    H176826   1.109   4.288  12.488 -0.6302  0.6042 -0.0496
18445TIP3    H276827   1.221   4.187  12.476 -0.4712  0.9084 -1.2324
18446TIP3   OH276828   3.253   5.977  15.621 -0.1987  0.3045 -0.0079
18446TIP3    H176829   3.167   6.013  15.643 -0.9672 -1.7874  0.6297
18446TIP3    H276830   3.235   5.914  15.551  0.6629 -0.7861  0.7220
18447TIP3   OH276831   5.519   0.605  11.865  0.0140  0.2532  0.4019
18447TIP3    H176832   5.537   0.632  11.955 -0.6162  0.8779  0.3542
18447TIP3    H276833   5.514   0.688  11.816 -0.2268 -0.0464 -0.0921
18448TIP3   OH276834   5.385   0.929  16.961 -0.3694 -0.1588  0.2112
18448TIP3    H176835   5.334   0.912  17.040  1.0859 -2.1333  0.7962
18448TIP3    H276836   5.356   1.016  16.932 -1.5923  0.2300  2.3918
18449TIP3   OH276837   6.246   3.677  16.059  0.1099  0.8883  0.5201
18449TIP3    H176838   6.288   3.745  16.111  0.6662  1.9328 -1.2240
18449TIP3    H276839   6.159   3.667  16.098  0.6156  1.3880  1.8344
18450TIP3   OH276840   1.529   6.055  15.708  0.4365  0.1155 -0.5226
18450TIP3    H176841   1.495   5.972  15.672 -1.4786  0.2586  0.7992
18450TIP3    H276842   1.582   6.028  15.784 -2.3559  0.0894  1.5779
18451TIP3   OH276843   2.377   1.713  12.078  0.0355  1.0952  0.2574
18451TIP3    H176844   2.296   1.664  12.094  1.0698 -0.8227 -0.0394
18451TIP3    H276845   2.419   1.719  12.163  0.7329 -0.1323  0.0232
18452TIP3   OH276846   6.379   0.780   4.917 -0.0588  0.6962  0.2149
18452TIP3    H176847   6.317   0.756   4.987  0.8016  0.5832  0.9519
18452TIP3    H276848   6.449   0.715   4.923  0.1711  0.8593 -0.5738
18453TIP3   OH276849   6.005   4.541   0.100  0.1508 -0.1996  0.2630
18453TIP3    H176850   6.064   4.496   0.161  0.4074  3.5149  3.0794
18453TIP3    H276851   6.060   4.564   0.025  1.1344 -0.5088  0.8759
18454TIP3   OH276852   3.310   1.631   5.964  0.2421  0.0635 -0.6504
18454TIP3    H176853   3.291   1.686   6.040 -0.4508  0.4041 -1.0716
18454TIP3    H276854   3.227   1.589   5.943  0.0830  1.0199 -2.0644
18455TIP3   OH276855   3.449   5.371   1.319  0.7472 -0.0283  0.0704
18455TIP3    H176856   3.387   5.320   1.372  1.2797  0.5528  1.2854
18455TIP3    H276857   3.455   5.455   1.364  2.1489  0.0534 -0.2295
18456TIP3   OH276858   0.456   2.582  12.660  0.4674 -0.4368  0.4815
18456TIP3    H176859   0.530   2.564  12.604 -0.0089 -1.1234  0.0577
18456TIP3    H276860   0.441   2.676  12.652  0.6184 -0.4757 -0.2656
18457TIP3   OH276861   4.844   2.303   5.058  0.0948 -0.5064 -0.2078
18457TIP3    H176862   4.823   2.225   5.109 -2.0828 -1.7450 -2.7609
18457TIP3    H276863   4.924   2.280   5.011  0.6985 -0.3186  0.7087
18458TIP3   OH276864   1.699   3.302  14.397 -0.0116 -0.1785 -0.2572
18458TIP3    H176865   1.718   3.393  14.379 -1.4137  0.1846 -0.0428
18458TIP3    H276866   1.675   3.300  14.490  1.3727 -1.0193  0.1128
18459TIP3   OH276867   4.974   2.866   0.200 -0.0787 -0.2331  0.2956
18459TIP3    H176868   5.068   2.856   0.217 -0.3848 -2.1145  1.1409
18459TIP3    H276869   4.965   2.849   0.106  0.0827 -3.9196  0.7918
18460TIP3   OH276870   0.592   2.992   5.209  0.6145 -0.2859 -0.0479
18460TIP3    H176871   0.501   3.016   5.191  0.7316  1.5704  1.4567
18460TIP3    H276872   0.586   2.917   5.267 -0.0624  0.8477  1.4185
18461TIP3   OH276873   2.345   0.399   6.252 -0.0011  0.4715 -0.5092
18461TIP3    H176874   2.302   0.319   6.223  1.4694 -0.0065 -1.4828
18461TIP3    H276875   2.376   0.380   6.340 -1.7332  0.8271  0.2114
18462TIP3   OH276876   1.656   2.414  13.520  0.0367  0.1191 -0.3625
18462TIP3    H176877   1.678   2.410  13.427 -2.0896 -0.7453 -0.8913
18462TIP3    H276878   1.643   2.508  13.537  1.0138  0.3407 -0.7612
18463TIP3   OH276879   2.492   1.633  11.397  0.3380 -0.7417 -0.0456
18463TIP3    H176880   2.492   1.538  11.400 -1.4753 -0.9262 -2.6252
18463TIP3    H276881   2.421   1.659  11.456 -0.8614 -1.2036 -1.2159
18464TIP3   OH276882   2.470   4.653  10.640  0.5576 -0.2575  0.1903
18464TIP3    H176883   2.489   4.579  10.582 -0.1939  0.5957 -1.1802
18464TIP3    H276884   2.554   4.672  10.681  1.6520  0.4174 -2.1908
18465TIP3   OH276885   4.124   3.234  13.248  0.3323 -0.4877  0.4377
18465TIP3    H176886   4.141   3.142  13.272  1.9481 -0.2196  0.4059
18465TIP3    H276887   4.202   3.281  13.278 -0.3087  0.8232  0.0935
18466TIP3   OH276888   2.010   5.115   2.903  0.0184 -0.3954 -0.5710
18466TIP3    H176889   2.057   5.193   2.934  0.9419 -0.2893 -2.1074
18466TIP3    H276890   1.917   5.136   2.918  0.2658  0.8789 -0.6539
18467TIP3   OH276891   1.688   1.372   6.297  0.4207 -0.0382  0.5779
18467TIP3    H176892   1.622   1.302   6.301  0.0465  0.2334 -0.3982
18467TIP3    H276893   1.768   1.328   6.269  0.1756 -0.0812 -0.0781
18468TIP3   OH276894   5.519   0.867  10.625 -0.7314 -0.2930 -0.2944
18468TIP3    H176895   5.500   0.957  10.599  1.2928  0.5321  0.8391
18468TIP3    H276896   5.500   0.864  10.719  1.2855 -0.3431  0.1693
18469TIP3   OH276897   1.724   3.716   4.297 -0.3901 -0.4089  0.2366
18469TIP3    H176898   1.679   3.667   4.366 -2.2978  0.0617 -0.6325
18469TIP3    H276899   1.677   3.799   4.290  1.6863  0.8794  0.4485
18470TIP3   OH276900   5.192   6.387  16.624 -0.2431 -0.1836  0.2410
18470TIP3    H176901   5.143   6.469  16.620 -1.0060 -0.6277  0.3732
18470TIP3    H276902   5.172   6.351  16.710  0.9045 -0.0227  0.5918
18471TIP3   OH276903   2.393   5.533   3.882 -0.0354  0.4225 -0.4563
18471TIP3    H176904   2.482   5.509   3.905 -0.3827  1.1509  1.9294
18471TIP3    H276905   2.397   5.626   3.861  0.0684  0.0179 -2.4689
18472TIP3   OH276906   2.570   0.121   4.028  0.2973  0.2331 -0.0033
18472TIP3    H176907   2.525   0.050   4.074  1.1780 -0.2734  0.1047
18472TIP3    H276908   2.623   0.163   4.095 -1.4399  2.0673  0.3043
18473TIP3   OH276909   5.571   3.297   3.982 -0.4786  0.2957  0.0575
18473TIP3    H176910   5.532   3.380   4.011 -0.4010 -0.0756  1.3000
18473TIP3    H276911   5.585   3.248   4.063  1.3303 -0.1234 -0.4581
18474TIP3   OH276912   5.365   4.439   3.831  0.2666 -0.4528 -0.4320
18474TIP3    H176913   5.419   4.505   3.873 -1.3556  0.6432  0.0241
18474TIP3    H276914   5.283   4.439   3.881 -0.2490 -1.9171 -1.2010
18475TIP3   OH276915   1.592   1.180   5.038 -0.4774 -0.0524  0.8338
18475TIP3    H176916   1.625   1.258   4.995 -1.2005  0.7187  1.6297
18475TIP3    H276917   1.617   1.108   4.980 -2.3238  1.0034 -1.4553
18476TIP3   OH276918   3.910   4.007   4.345  0.0935 -0.6174 -0.4027
18476TIP3    H176919   3.920   3.921   4.386 -0.0782 -0.1507  0.6742
18476TIP3    H276920   3.961   4.002   4.265  0.2906 -1.6434 -0.2255
18477TIP3   OH276921   5.792   1.189   0.413  0.0828 -0.5931 -0.0802
18477TIP3    H176922   5.813   1.274   0.450 -1.2749  0.7473 -2.2106
18477TIP3    H276923   5.696   1.188   0.409  0.0861 -2.0708 -0.4460
18478TIP3   OH276924   3.598   1.953   3.117 -0.0037 -0.4565 -0.2432
18478TIP3    H176925   3.556   2.012   3.179  0.9000  0.3633 -0.3780
18478TIP3    H276926   3.553   1.969   3.034  0.0090 -0.1984 -0.2018
18479TIP3   OH276927   6.567   5.944   4.803  0.5617 -0.0222 -0.3339
18479TIP3    H176928   6.592   5.899   4.884  1.7586  0.5072 -0.3909
18479TIP3    H276929   6.548   6.034   4.830 -0.5401 -0.2127 -0.4220
18480TIP3   OH276930   3.264   4.836   6.227  0.0087  0.1976 -0.3146
18480TIP3    H176931   3.225   4.828   6.140  0.3694 -0.7646 -0.4044
18480TIP3    H276932   3.296   4.926   6.230 -1.2474  0.6787 -0.6353
18481TIP3   OH276933   1.089   6.699  11.634 -0.5260 -0.0179 -0.5073
18481TIP3    H176934   1.134   6.616  11.647  0.9076  0.9947  1.8892
18481TIP3    H276935   1.154   6.755  11.590 -0.3065  0.7127  0.6983
18482TIP3   OH276936   6.673   0.453  11.102 -0.0054  0.3834 -0.1983
18482TIP3    H176937   6.709   0.409  11.026  0.0727  1.2200 -0.6597
18482TIP3    H276938   6.749   0.473  11.156  0.3355  2.4956 -1.3548
18483TIP3   OH276939   4.924   4.156   3.921 -0.3686 -0.0503 -0.5729
18483TIP3    H176940   4.892   4.069   3.945 -1.2169  0.3841 -0.0929
18483TIP3    H276941   4.846   4.204   3.895  0.1465  0.4502 -1.2404
18484TIP3   OH276942   3.620   5.890   2.448 -0.2649 -0.1436 -0.7640
18484TIP3    H176943   3.548   5.891   2.511 -1.4612 -2.1905 -1.9562
18484TIP3    H276944   3.697   5.867   2.500 -0.2990  2.4681  0.6045
18485TIP3   OH276945   0.538   1.302   1.838  0.7159 -0.3546  0.4347
18485TIP3    H176946   0.537   1.218   1.791 -0.5231  0.4178 -1.0194
18485TIP3    H276947   0.468   1.353   1.797  1.0112  1.1675  1.7272
18486TIP3   OH276948   3.527   2.584   3.706 -0.1686  0.2299 -0.7196
18486TIP3    H176949   3.540   2.636   3.785 -0.0869 -0.7761 -0.0468
18486TIP3    H276950   3.575   2.630   3.638 -0.5285  1.2959 -0.2617
18487TIP3   OH276951   0.175   0.969  16.282 -0.2285 -0.0787  0.0439
18487TIP3    H176952   0.243   1.033  16.260  0.3778 -0.9649 -0.7627
18487TIP3    H276953   0.108   1.020  16.327  0.8155  0.8899  0.5667
18488TIP3   OH276954   0.255   0.477   5.803 -0.7790  0.0132  0.4418
18488TIP3    H176955   0.250   0.446   5.893 -1.4678 -2.1835 -0.2869
18488TIP3    H276956   0.188   0.427   5.757  1.3213 -0.9272 -1.8053
18489TIP3   OH276957   0.855   6.199  16.226  0.0521  0.4629  0.2741
18489TIP3    H176958   0.885   6.173  16.313 -0.0342 -0.2819  0.0877
18489TIP3    H276959   0.802   6.278  16.241 -0.2775  0.1212  0.9395
18490TIP3   OH276960   5.254   5.315  15.202 -0.2608  0.3457 -0.3716
18490TIP3    H176961   5.280   5.316  15.110  0.7168  2.0854 -0.1092
18490TIP3    H276962   5.335   5.333  15.250 -0.6888 -0.8562  0.8680
18491TIP3   OH276963   3.384   1.924   2.781 -0.7227  0.5282  0.2346
18491TIP3    H176964   3.398   2.006   2.829  0.5455  0.9570 -0.8040
18491TIP3    H276965   3.446   1.928   2.708 -0.7272 -1.3088  0.0815
18492TIP3   OH276966   4.084   5.078  12.823  0.2383  0.2078  0.2556
18492TIP3    H176967   4.140   5.155  12.830 -1.4183  1.3310  3.3057
18492TIP3    H276968   4.132   5.008  12.867  0.4313  0.3907  0.3324
18493TIP3   OH276969   6.160   4.163  11.095  0.5442  0.1422 -0.2353
18493TIP3    H176970   6.068   4.145  11.076  0.2173  1.9499 -0.5682
18493TIP3    H276971   6.201   4.077  11.102 -1.5502 -0.7760  1.9710
18494TIP3   OH276972   1.134   1.804   1.908 -0.1886 -0.3866  0.0318
18494TIP3    H176973   1.061   1.742   1.912 -1.8894  1.3540 -1.7877
18494TIP3    H276974   1.099   1.880   1.862  2.0215  1.6624  1.4669
18495TIP3   OH276975   5.590   0.643   2.531  0.2595 -0.0666  0.3654
18495TIP3    H176976   5.650   0.591   2.478  2.0063 -0.4283  2.5452
18495TIP3    H276977   5.635   0.727   2.542  1.1574 -0.8109  3.1774
18496TIP3   OH276978   1.722   0.361  17.101  0.2588 -0.2288  0.9976
18496TIP3    H176979   1.721   0.315  17.017  1.9381 -0.4465  1.0475
18496TIP3    H276980   1.691   0.450  17.080 -0.1950 -0.5376  0.3321
18497TIP3   OH276981   5.980   0.446  13.523  0.0041  0.0456  0.2541
18497TIP3    H176982   5.919   0.505  13.481 -0.5545 -0.4116  0.4078
18497TIP3    H276983   5.995   0.484  13.610 -1.4457 -0.7527  0.8842
18498TIP3   OH276984   6.734   4.905  12.446  0.0333 -0.4499 -0.6017
18498TIP3    H176985   6.755   4.992  12.479 -3.0441  0.1316  0.1372
18498TIP3    H276986   6.774   4.845  12.509  2.4978  0.3389 -1.3207
18499TIP3   OH276987   4.686   2.549   3.099  0.2306 -0.1824  0.3026
18499TIP3    H176988   4.642   2.556   3.184  0.8624  0.9437  0.5628
18499TIP3    H276989   4.701   2.640   3.073  3.2187 -0.4810  0.6513
18500TIP3   OH276990   3.224   4.256  13.905  0.5618  0.5738 -0.2360
18500TIP3    H176991   3.211   4.181  13.962 -1.4192  0.0248 -1.3064
18500TIP3    H276992   3.318   4.258  13.888  0.7224 -1.3483  0.2198
18501TIP3   OH276993   1.569   4.663  11.165 -0.1302  0.1792  0.2916
18501TIP3    H176994   1.558   4.586  11.110  0.3697  0.9139 -0.8708
18501TIP3    H276995   1.658   4.693  11.146 -0.8507  1.9377 -0.4699
18502TIP3   OH276996   3.572   4.774   0.261 -0.0396  0.0061 -0.2410
18502TIP3    H176997   3.511   4.741   0.196 -1.7538  2.6499 -0.1279
18502TIP3    H276998   3.655   4.784   0.214 -0.4365 -0.9198 -1.1659
18503TIP3   OH276999   0.923   1.191  16.832  0.6243 -0.0825  0.2226
18503TIP3    H177000   0.975   1.120  16.870 -0.7069 -0.5569  1.2173
18503TIP3    H277001   0.833   1.170  16.855  0.0954  1.3476 -0.4403
18504TIP3   OH277002   4.261   3.424  11.670  0.5674 -0.3476  0.1446
18504TIP3    H177003   4.224   3.455  11.587  0.4621 -0.0524  0.2969
18504TIP3    H277004   4.335   3.369  11.645  1.0269  0.3821 -0.1361
18505TIP3   OH277005   4.482   1.319  14.780 -0.2710 -0.3988  0.1314
18505TIP3    H177006   4.478   1.224  14.792  0.8227 -0.5980 -0.8919
18505TIP3    H277007   4.391   1.348  14.791 -0.4112 -1.3408  1.9743
18506TIP3   OH277008   1.132   1.236  15.902 -0.6246 -0.0915 -0.3457
18506TIP3    H177009   1.136   1.153  15.949 -0.7013 -0.6564 -1.3043
18506TIP3    H277010   1.221   1.250  15.871 -1.2410 -1.6498 -3.1895
18507TIP3   OH277011   5.370   0.784   5.346 -0.1772 -0.0115 -0.6982
18507TIP3    H177012   5.375   0.711   5.407  2.2040  1.6301  1.2353
18507TIP3    H277013   5.461   0.801   5.321 -0.8657  1.0406 -2.7409
18508TIP3   OH277014   0.007   6.052  13.345 -0.0435  0.1997 -0.5734
18508TIP3    H177015   0.101   6.069  13.346 -0.3693  2.2640  1.2464
18508TIP3    H277016  -0.033   6.135  13.319 -1.4050 -0.3676 -0.3877
18509TIP3   OH277017   0.230   6.084  12.025  0.3358  0.4947  0.3022
18509TIP3    H177018   0.159   6.096  11.962 -0.9528 -1.6246  1.2353
18509TIP3    H277019   0.219   6.155  12.087 -0.1839  0.9151 -0.2529
18510TIP3   OH277020   1.712   0.485   3.896 -0.2146  0.1884 -0.6148
18510TIP3    H177021   1.750   0.532   3.971  0.7055 -1.7635  0.2265
18510TIP3    H277022   1.627   0.455   3.927  0.8833 -2.1548  0.4101
18511TIP3   OH277023   0.706   3.138  11.425 -0.2808 -0.0851  0.4529
18511TIP3    H177024   0.747   3.160  11.341 -0.6193 -1.1000  0.0013
18511TIP3    H277025   0.682   3.222  11.463 -0.7351  0.3764 -0.7938
18512TIP3   OH277026   5.997   0.408   0.845 -0.4217  0.3654 -0.6170
18512TIP3    H177027   5.905   0.432   0.854 -0.6908 -0.7798 -0.1038
18512TIP3    H277028   6.031   0.409   0.934  0.0936  0.8700 -0.8141
18513TIP3   OH277029   5.587   3.598  15.822  0.3534 -0.2155  0.5573
18513TIP3    H177030   5.528   3.634  15.756 -0.7253 -1.6870  0.6723
18513TIP3    H277031   5.639   3.672  15.851 -2.6824  1.6271  1.8016
18514TIP3   OH277032   1.297   3.799   1.374  0.0017 -0.0032 -0.0201
18514TIP3    H177033   1.219   3.848   1.403 -0.3956 -1.6985  2.0668
18514TIP3    H277034   1.340   3.774   1.456  1.9878 -0.3171 -1.1241
18515TIP3   OH277035   5.120   5.307   4.889 -0.1717  0.2917  0.4828
18515TIP3    H177036   5.187   5.251   4.850  0.2343  1.2974 -0.2806
18515TIP3    H277037   5.097   5.262   4.971  1.6944  0.1117  0.9489
18516TIP3   OH277038   5.001   2.386  12.181 -0.2627 -0.0402 -1.1451
18516TIP3    H177039   4.997   2.339  12.264  0.0480  2.6147  0.4909
18516TIP3    H277040   5.091   2.419  12.177 -0.9091  1.8381 -1.3044
18517TIP3   OH277041   0.001   4.956  11.764 -0.0322 -0.1394  0.2203
18517TIP3    H177042  -0.084   4.919  11.739 -0.8365  1.6172  0.1920
18517TIP3    H277043   0.064   4.907  11.712 -1.1086 -0.9153 -0.4022
18518TIP3   OH277044   2.448   3.627   5.988  0.7685  0.2654 -0.3077
18518TIP3    H177045   2.522   3.608   6.046 -0.1651 -0.0274  0.8248
18518TIP3    H277046   2.448   3.555   5.925  2.3000  1.0235 -1.2545
18519TIP3   OH277047   3.098   6.809  13.418  0.1944 -0.3375  0.0738
18519TIP3    H177048   3.111   6.771  13.506  1.6615  0.3447  0.1770
18519TIP3    H277049   3.172   6.777  13.367 -0.0677  0.1561 -0.6278
18520TIP3   OH277050   3.221   0.152   6.331 -0.2725 -0.0282 -0.5887
18520TIP3    H177051   3.306   0.197   6.335  0.4036 -1.2999  0.2133
18520TIP3    H277052   3.245   0.060   6.318 -1.4687 -0.6161  1.1159
18521TIP3   OH277053   1.895   1.344   2.254  0.2320 -0.6245  0.1063
18521TIP3    H177054   1.910   1.432   2.219  0.9685 -0.6010  0.4579
18521TIP3    H277055   1.813   1.352   2.302  0.5829  0.0362  0.6254
18522TIP3   OH277056   4.066   1.949   5.273 -0.5221 -0.4342 -0.0361
18522TIP3    H177057   4.018   1.900   5.206 -2.5838  0.7044  0.5174
18522TIP3    H277058   4.033   1.913   5.356  0.2764 -0.2414  0.3683
18523TIP3   OH277059   4.782   6.201  12.858 -0.0415 -0.0319 -0.0176
18523TIP3    H177060   4.793   6.140  12.930  1.8291  1.4415  1.0440
18523TIP3    H277061   4.870   6.215  12.825 -0.6784  0.5585 -1.5667
18524TIP3   OH277062   2.540   0.715  15.163  0.4266 -0.1343  0.0340
18524TIP3    H177063   2.618   0.769  15.152  0.6823 -0.0793  1.8973
18524TIP3    H277064   2.574   0.628  15.183 -0.0052 -0.4719 -0.6431
18525TIP3   OH277065   5.845   2.616   0.474 -0.1351  0.2775 -0.3176
18525TIP3    H177066   5.792   2.689   0.443 -0.3058  1.2260  1.9843
18525TIP3    H277067   5.896   2.652   0.547 -0.0029 -1.7975  0.7065
18526TIP3   OH277068   1.432   0.929  14.279  0.6902  0.6742 -0.0755
18526TIP3    H177069   1.505   0.955  14.223  0.1718 -0.4717 -1.3363
18526TIP3    H277070   1.386   0.861  14.229 -0.4772  0.4385  1.2504
18527TIP3   OH277071   6.311   5.763  14.788  0.6110  0.2492 -0.3640
18527TIP3    H177072   6.321   5.821  14.863  0.0988  0.1712 -0.2261
18527TIP3    H277073   6.295   5.822  14.714 -1.3396  0.2767  0.0132
18528TIP3   OH277074   5.200   1.330   5.554 -0.4418 -0.2406 -0.1530
18528TIP3    H177075   5.185   1.423   5.539 -0.2492 -0.3688 -1.2500
18528TIP3    H277076   5.291   1.316   5.527 -0.4546 -0.7289  0.0546
18529TIP3   OH277077   4.802   4.838  15.469 -0.3338  0.4509  0.0655
18529TIP3    H177078   4.811   4.840  15.564  0.6549 -0.0303 -0.0015
18529TIP3    H277079   4.714   4.803  15.454 -0.5226  0.5927  0.8028
18530TIP3   OH277080   0.584   6.765  14.381  0.4823  0.3173  0.2275
18530TIP3    H177081   0.636   6.721  14.314  0.2922  0.4710 -0.0291
18530TIP3    H277082   0.630   6.750  14.463  0.9955  0.5554 -0.0125
18531TIP3   OH277083   1.966   0.558  12.771  0.2429  0.3006 -0.0814
18531TIP3    H177084   1.897   0.498  12.797  0.4842  0.5825  1.2968
18531TIP3    H277085   1.943   0.585  12.682 -1.3815  0.3300  0.3228
18532TIP3   OH277086   2.987   5.416  15.848 -0.6985  0.3261  0.1102
18532TIP3    H177087   3.029   5.487  15.897  0.3917  0.2506 -0.6862
18532TIP3    H277088   3.000   5.339  15.902  2.8153 -0.2969 -1.3569
18533TIP3   OH277089   2.442   3.414  11.866 -0.5298 -0.1479  0.0815
18533TIP3    H177090   2.505   3.481  11.840 -0.8614  0.7890  1.6006
18533TIP3    H277091   2.369   3.426  11.805  0.7007 -1.2571 -1.7063
18534TIP3   OH277092   1.934   1.129  16.631  0.3643 -0.5353 -0.1055
18534TIP3    H177093   1.862   1.073  16.659  0.3658 -0.2821  0.4036
18534TIP3    H277094   2.000   1.068  16.597  0.4638 -0.8597  0.6680
18535TIP3   OH277095   6.190   1.563   3.153 -0.1467 -1.2478 -0.6154
18535TIP3    H177096   6.125   1.629   3.129 -0.2896 -0.2788  2.0631
18535TIP3    H277097   6.268   1.586   3.102 -0.0680  1.3135  0.5006
18536TIP3   OH277098   3.473   6.130   1.548 -0.2363  0.0455 -0.8205
18536TIP3    H177099   3.387   6.100   1.518 -1.1174  1.7388 -0.0977
18536TIP3    H277100   3.533   6.062   1.518 -2.0503 -2.3031  0.4870
18537TIP3   OH277101   0.742   6.028   5.399 -0.2005  0.0315  0.6675
18537TIP3    H177102   0.656   5.987   5.407 -0.6691  1.0414  1.0361
18537TIP3    H277103   0.732   6.113   5.444  0.8556  0.3487  0.3293
18538TIP3   OH277104   3.602   1.614  16.070 -0.5329  0.0320  0.1212
18538TIP3    H177105   3.581   1.687  16.129 -1.0661 -0.2968  0.3465
18538TIP3    H277106   3.567   1.537  16.114 -0.4763 -0.2862 -0.3864
18539TIP3   OH277107   6.271   3.991   3.126 -0.1666  0.1713 -0.5641
18539TIP3    H177108   6.354   4.010   3.084 -0.2766  2.6929  0.2037
18539TIP3    H277109   6.252   4.068   3.179 -2.4964 -0.7609  0.1110
18540TIP3   OH277110   5.865   1.279  14.951  0.3492 -0.0701 -0.0117
18540TIP3    H177111   5.888   1.353  14.895 -0.1275  1.6343  1.9322
18540TIP3    H277112   5.782   1.247  14.916 -0.5015  1.6715  0.3309
18541TIP3   OH277113   3.812   5.141   6.532  0.3175 -1.5428  0.0281
18541TIP3    H177114   3.732   5.164   6.581  0.8171 -1.8168  1.0039
18541TIP3    H277115   3.807   5.046   6.522 -0.1525 -1.4126 -1.1537
18542TIP3   OH277116   1.118   1.016  11.600 -0.5423  0.1451  0.2879
18542TIP3    H177117   1.045   1.059  11.643 -0.9859  0.3366 -0.6383
18542TIP3    H277118   1.194   1.072  11.620 -1.4308  2.6725 -2.6334
18543TIP3   OH277119   1.581   1.194  13.675 -0.7761  0.7722 -0.9348
18543TIP3    H177120   1.570   1.127  13.743  1.2383  1.5172  0.2161
18543TIP3    H277121   1.492   1.222  13.653 -1.4928  0.5895  1.4988
18544TIP3   OH277122   5.822   0.122  15.832 -0.4464  0.2644  0.1792
18544TIP3    H177123   5.755   0.190  15.835 -0.4497  0.2387  0.8376
18544TIP3    H277124   5.805   0.068  15.910 -0.4289 -0.4760 -0.3210
18545TIP3   OH277125   6.387   3.987   4.336 -0.0432 -0.1942 -0.4045
18545TIP3    H177126   6.338   4.068   4.351 -0.7869 -0.7387  0.1280
18545TIP3    H277127   6.359   3.928   4.406  0.9653 -0.7048 -0.4166
18546TIP3   OH277128   3.950   2.331   0.230  0.0549  0.1784  0.2234
18546TIP3    H177129   3.888   2.373   0.170 -1.1655  0.5927  1.6904
18546TIP3    H277130   3.920   2.240   0.236 -0.0098  0.2086  0.3924
18547TIP3   OH277131   0.731   0.340   2.278 -0.3186 -0.9410  0.6719
18547TIP3    H177132   0.787   0.329   2.201 -1.2965  0.6275 -0.2995
18547TIP3    H277133   0.777   0.405   2.331 -1.6707  1.2043 -0.6594
18548TIP3   OH277134   3.587   2.291  14.709  0.2090 -0.1486 -0.2385
18548TIP3    H177135   3.622   2.234  14.641 -1.0525  1.8943 -2.7614
18548TIP3    H277136   3.658   2.300  14.773  2.0986 -0.7562 -2.1609
18549TIP3   OH277137   5.099   2.447  14.703 -0.4865  0.3868  0.0824
18549TIP3    H177138   5.032   2.504  14.664 -0.8250  0.1291  0.2873
18549TIP3    H277139   5.179   2.498  14.696 -0.8961  1.1593  0.8317
18550TIP3   OH277140   2.980   1.668   0.024  0.1616 -0.4951 -0.3246
18550TIP3    H177141   2.992   1.761   0.040 -1.3710 -0.3418  0.0735
18550TIP3    H277142   3.047   1.625   0.078  0.6657  0.3436 -0.2715
18551TIP3   OH277143   0.727   3.663  13.756  0.6312  0.7446 -0.0034
18551TIP3    H177144   0.746   3.590  13.697 -1.2959 -1.2622  1.6827
18551TIP3    H277145   0.631   3.668  13.759  0.7011  2.7051  0.7163
18552TIP3   OH277146   0.948   2.399   1.717  0.4346  0.8394 -0.8655
18552TIP3    H177147   1.043   2.401   1.705  1.1233  1.1785  3.1772
18552TIP3    H277148   0.923   2.491   1.726 -0.0331  0.6802 -0.4930
18553TIP3   OH277149   5.947   0.125   4.454  0.0620 -0.6929  0.3449
18553TIP3    H177150   5.890   0.194   4.421 -0.4070 -0.7529  1.0204
18553TIP3    H277151   6.031   0.141   4.411  0.1841  0.7586  1.0633
18554TIP3   OH277152   5.194   6.707  12.089 -0.3134 -0.2824  0.4659
18554TIP3    H177153   5.134   6.670  12.153  0.4365 -1.5937  0.4482
18554TIP3    H277154   5.248   6.769  12.139 -1.3120  0.5192  0.5786
18555TIP3   OH277155   2.668   3.022  16.732 -0.7767  0.6568 -0.2380
18555TIP3    H177156   2.686   2.953  16.796 -2.2311  1.8092  1.5284
18555TIP3    H277157   2.752   3.066  16.720 -0.6222  0.9839  1.6716
18556TIP3   OH277158   5.693   1.387  13.581  0.0359  0.3498  0.1523
18556TIP3    H177159   5.659   1.298  13.579  0.2238  0.2761  0.2153
18556TIP3    H277160   5.751   1.392  13.505 -1.2998  0.9522 -0.8707
18557TIP3   OH277161   0.614   1.032   1.499 -0.1955 -0.3330 -1.1992
18557TIP3    H177162   0.530   1.036   1.546  1.4849  1.4292  1.9382
18557TIP3    H277163   0.627   0.938   1.481 -0.7843 -1.2292  2.3693
18558TIP3   OH277164   6.664   2.114  16.646  0.7237  0.1170  0.3990
18558TIP3    H177165   6.724   2.053  16.604 -0.7726 -0.9615 -0.2695
18558TIP3    H277166   6.615   2.061  16.708  0.2717  0.9212  0.7483
18559TIP3   OH277167   2.090   1.854  10.727  0.3619 -0.4800  0.2606
18559TIP3    H177168   2.156   1.907  10.682 -0.6059  0.7071  0.1990
18559TIP3    H277169   2.020   1.843  10.663  0.0198 -0.7958  0.6862
18560TIP3   OH277170   2.286   0.777  13.109  0.0707  0.2791  0.0470
18560TIP3    H177171   2.337   0.696  13.120  2.7149  1.8661  0.3175
18560TIP3    H277172   2.223   0.776  13.181 -0.5335 -1.8723 -0.4331
18561TIP3   OH277173   6.519   4.740  15.075  0.5263  0.3711 -0.1803
18561TIP3    H177174   6.506   4.790  14.994  1.0078 -0.1296 -0.5789
18561TIP3    H277175   6.431   4.713  15.101  0.4518 -0.2304 -1.0388
18562TIP3   OH277176   6.772   6.168  14.151  0.5219  0.0339  0.8596
18562TIP3    H177177   6.819   6.217  14.084 -1.3309  0.2592 -0.3714
18562TIP3    H277178   6.785   6.076  14.127  1.0592  0.0619  1.0477
18563TIP3   OH277179   2.238   6.648   0.870  0.0071 -0.3749  0.0559
18563TIP3    H177180   2.156   6.696   0.863 -1.0675 -2.1012  0.0551
18563TIP3    H277181   2.213   6.556   0.858  1.7794 -1.0644  1.1821
18564TIP3   OH277182   5.437   1.975  15.106  0.1488 -0.2224 -0.4064
18564TIP3    H177183   5.494   1.988  15.182 -1.5610  0.6900  0.7992
18564TIP3    H277184   5.398   1.889  15.121 -0.8931  0.3461  0.2907
18565TIP3   OH277185   6.040   6.564  13.733  0.0394  0.4659 -0.0595
18565TIP3    H177186   6.101   6.533  13.799  1.3739  0.4869 -1.2426
18565TIP3    H277187   6.093   6.574  13.654 -1.6885 -0.5319 -1.4149
18566TIP3   OH277188   1.407   4.993   0.084 -0.2537 -0.2465  0.0445
18566TIP3    H177189   1.334   4.996   0.023  1.1518  1.4933 -1.7048
18566TIP3    H277190   1.468   4.930   0.045  0.1125 -0.0590  0.3098
18567TIP3   OH277191   6.250   0.308  16.600 -0.0733  0.1557  0.1689
18567TIP3    H177192   6.341   0.321  16.625  0.1834 -0.0061 -0.6628
18567TIP3    H277193   6.205   0.388  16.631  0.0985 -0.2832  1.6544
18568TIP3   OH277194   6.020   5.432   3.400 -0.5352  0.3357  0.5428
18568TIP3    H177195   5.928   5.456   3.387 -0.6633 -1.1532 -1.9353
18568TIP3    H277196   6.020   5.337   3.404  0.6918  0.3301  3.3195
18569TIP3   OH277197   5.219   4.447  11.121  0.9337  0.3384  0.4158
18569TIP3    H177198   5.232   4.473  11.030 -1.4436 -2.3137 -0.8131
18569TIP3    H277199   5.281   4.376  11.135  1.7286  1.1439  1.1262
18570TIP3   OH277200   2.182   3.672   0.903  0.6614  0.1119  0.1337
18570TIP3    H177201   2.244   3.624   0.848  0.3771  0.2558 -0.3204
18570TIP3    H277202   2.200   3.642   0.992  1.0475 -0.2125 -0.0507
18571TIP3   OH277203   6.663   2.168   5.240 -0.4678 -0.1555 -0.0277
18571TIP3    H177204   6.734   2.229   5.262 -0.1436 -1.0779  1.5963
18571TIP3    H277205   6.698   2.116   5.167 -0.8945  1.7800 -1.7272
18572TIP3   OH277206   0.122   0.024   1.424 -0.0215  0.3500  0.1323
18572TIP3    H177207   0.082  -0.051   1.382 -0.7726  1.5086 -1.3174
18572TIP3    H277208   0.201   0.042   1.373 -0.3065  1.0472 -0.0834
18573TIP3   OH277209   4.162   6.252  11.093  0.2470 -0.9893 -0.4306
18573TIP3    H177210   4.193   6.332  11.051 -1.0221 -0.7523 -0.9410
18573TIP3    H277211   4.233   6.189  11.079  1.1915 -0.0268 -0.1632
18574TIP3   OH277212   2.086   5.964  17.154 -0.0025  0.4175 -0.3312
18574TIP3    H177213   2.180   5.978  17.146  0.3411 -1.5290 -0.1799
18574TIP3    H277214   2.072   5.875  17.122 -1.8337  0.7447 -0.5668
18575TIP3   OH277215   2.301   1.934  16.107  0.1875 -0.0694 -0.3678
18575TIP3    H177216   2.350   1.910  16.028  0.5954  1.6313 -0.6652
18575TIP3    H277217   2.319   2.027  16.119  0.0022 -0.2510  1.6536
18576TIP3   OH277218   1.003   6.440  16.234  0.7253 -0.2819  0.3203
18576TIP3    H177219   0.989   6.510  16.170  0.0355 -1.0610 -0.4128
18576TIP3    H277220   0.989   6.359  16.184  1.1263 -0.9377  1.2391
18577TIP3   OH277221   6.587   1.319  12.023 -0.3908 -0.3252  0.2483
18577TIP3    H177222   6.540   1.236  12.013  1.6203 -1.2966 -2.3713
18577TIP3    H277223   6.675   1.301  11.989  0.0056  2.9871 -0.8320
18578TIP3   OH277224   2.097   1.417  14.239  0.7424  0.0655  0.0206
18578TIP3    H177225   2.065   1.331  14.211 -1.4280  0.7167  0.3815
18578TIP3    H277226   2.191   1.415  14.218  0.9756 -2.7184  0.8557
18579TIP3   OH277227   1.162   6.430  16.455  0.0742  0.4555 -0.0053
18579TIP3    H177228   1.126   6.421  16.367 -0.1088  0.2648  0.0904
18579TIP3    H277229   1.165   6.525  16.469 -0.2920  0.4765 -0.0521
18580TIP3   OH277230   5.289   5.926   3.734  0.2949  0.1066  0.8167
18580TIP3    H177231   5.234   5.887   3.666  2.6087 -0.1048 -1.0709
18580TIP3    H277232   5.245   5.904   3.816 -1.4073 -1.6366 -0.4735
18581TIP3   OH277233   6.118   3.104   0.207  0.3658  0.1611 -0.3250
18581TIP3    H177234   6.166   3.065   0.135  2.3549 -1.6890  1.8282
18581TIP3    H277235   6.161   3.188   0.223  2.2291 -0.9170  0.7569
18582TIP3   OH277236   3.240   3.486   4.281 -0.5082  0.7476  0.3270
18582TIP3    H177237   3.286   3.405   4.256  0.4637  0.1275  3.6788
18582TIP3    H277238   3.300   3.555   4.254  0.1440  0.1911  0.3119
18583TIP3   OH277239   4.509   1.961   5.315 -0.6999  0.6147  0.8466
18583TIP3    H177240   4.435   2.014   5.285 -1.1945 -0.3110  0.3903
18583TIP3    H277241   4.475   1.871   5.317  0.5440  0.0948  0.1287
18584TIP3   OH277242   1.814   4.600  12.605 -0.3019  0.8164  0.1818
18584TIP3    H177243   1.777   4.582  12.691  0.0012  0.0649  0.1625
18584TIP3    H277244   1.826   4.695  12.603  1.1019  0.7088  1.5517
18585TIP3   OH277245   5.518   6.635   5.045 -0.1197 -0.2186  0.9037
18585TIP3    H177246   5.486   6.644   4.955 -3.1394  1.5587  2.0336
18585TIP3    H277247   5.511   6.541   5.063 -0.3708 -0.4763 -0.3844
18586TIP3   OH277248   2.941   2.238   4.127 -0.1136  0.5298  0.0903
18586TIP3    H177249   2.921   2.169   4.190 -2.0573 -2.5910 -3.4733
18586TIP3    H277250   2.856   2.278   4.108 -0.4621 -1.2769 -3.0376
18587TIP3   OH277251   1.475   3.522   3.821  0.0705  0.0799  0.4975
18587TIP3    H177252   1.447   3.478   3.741  0.8089  0.9558 -0.2583
18587TIP3    H277253   1.419   3.599   3.828  1.0015  0.8172 -0.0028
18588TIP3   OH277254   6.013   6.434  16.434  0.1127  0.0759 -0.9171
18588TIP3    H177255   6.017   6.514  16.486  0.2460  0.7990 -1.9966
18588TIP3    H277256   6.054   6.367  16.489 -1.3394  0.3875  0.5936
18589TIP3   OH277257   4.559   1.978   0.101 -0.3178  0.4986  0.5872
18589TIP3    H177258   4.471   2.004   0.126 -0.6122 -0.2289  0.3388
18589TIP3    H277259   4.593   1.931   0.177 -0.5054 -0.0539  0.3343
18590TIP3   OH277260   5.358   0.691  11.070 -0.3996 -0.1654 -0.7203
18590TIP3    H177261   5.271   0.697  11.109 -0.1367  1.5732 -0.2830
18590TIP3    H277262   5.384   0.599  11.081 -1.4566 -0.3166  0.7566
18591TIP3   OH277263   4.062   0.419  11.920 -0.4614  0.6449 -0.0956
18591TIP3    H177264   4.058   0.512  11.946 -0.2128  0.3986  0.8720
18591TIP3    H277265   4.155   0.402  11.907 -0.3823  0.2291  0.9300
18592TIP3   OH277266   4.630   3.052  16.486 -0.0161  0.4810  0.1211
18592TIP3    H177267   4.690   3.077  16.556  1.1976  0.4563 -0.8603
18592TIP3    H277268   4.549   3.100  16.504 -0.2997 -0.7359  2.3850
18593TIP3   OH277269   2.897   3.167  16.677 -0.0136  0.5988  0.0742
18593TIP3    H177270   2.894   3.227  16.603  1.7724 -0.1549 -0.6713
18593TIP3    H277271   2.989   3.166  16.703 -0.5582  0.7087  2.2346
18594TIP3   OH277272   2.280   0.928   0.086  0.5135  0.0955 -0.0302
18594TIP3    H177273   2.268   0.872   0.163 -2.4487  1.0517  0.3056
18594TIP3    H277274   2.267   1.017   0.118  3.2772  0.9278 -0.9285
18595TIP3   OH277275   6.292   4.005  11.811 -0.2894 -0.9071 -0.1570
18595TIP3    H177276   6.346   3.964  11.744 -0.5560  0.5973 -1.3459
18595TIP3    H277277   6.221   3.942  11.827  1.1474 -2.3968  0.6060
18596TIP3   OH277278   2.171   2.563   6.814 -0.1201  0.2488  0.6602
18596TIP3    H177279   2.151   2.599   6.728 -0.4539 -1.2245  0.0969
18596TIP3    H277280   2.111   2.608   6.874 -2.0404 -0.8615 -0.3368
18597TIP3   OH277281   1.245   1.277  12.704  0.1345 -0.6051 -0.1577
18597TIP3    H177282   1.254   1.357  12.652  0.0340 -0.8607 -0.5675
18597TIP3    H277283   1.307   1.289  12.777 -0.7826  0.4093  0.4974
18598TIP3   OH277284   5.546   4.834  14.629 -0.0558  0.1332 -0.1932
18598TIP3    H177285   5.453   4.821  14.647 -0.5902  2.5077 -0.8981
18598TIP3    H277286   5.580   4.876  14.707  0.7547 -1.8161  0.5528
18599TIP3   OH277287   1.702   3.932   3.622 -1.0592  0.4937 -0.2208
18599TIP3    H177288   1.659   3.956   3.703 -0.7679  0.9272 -0.1952
18599TIP3    H277289   1.791   3.964   3.631 -0.3640 -1.4462  0.2210
18600TIP3   OH277290   0.433   2.445  15.772  0.5203 -0.4636  0.3052
18600TIP3    H177291   0.402   2.443  15.681 -1.4159  0.8285  0.8616
18600TIP3    H277292   0.389   2.371  15.813 -1.7765  1.1761  1.0175
18601TIP3   OH277293   1.762   3.582   3.844  0.3366  1.0829 -0.2866
18601TIP3    H177294   1.784   3.605   3.754 -0.6838 -1.1718 -1.2063
18601TIP3    H277295   1.670   3.554   3.839  0.4765  0.2349  1.3182
18602TIP3   OH277296   2.736   2.558  11.307  0.0176 -0.3996 -0.1027
18602TIP3    H177297   2.651   2.574  11.266 -0.5997  1.4476  1.6973
18602TIP3    H277298   2.715   2.500  11.381  0.3624 -0.2071  0.1467
18603TIP3   OH277299   0.388   6.367   0.082  0.2634 -0.4638  0.7655
18603TIP3    H177300   0.305   6.336   0.045 -0.5935  0.1963  2.0846
18603TIP3    H277301   0.436   6.287   0.103  0.3275 -0.8554 -0.7393
18604TIP3   OH277302   0.326   4.006  17.287  0.3236 -0.6044  0.2877
18604TIP3    H177303   0.279   3.942  17.234  0.7652  0.3312 -1.2753
18604TIP3    H277304   0.398   4.035  17.231  0.0880  1.3164  0.9288
18605TIP3   OH277305   0.902   1.634   5.429 -0.6528  0.1455  0.1495
18605TIP3    H177306   0.963   1.641   5.355  0.1096 -1.5482  0.5777
18605TIP3    H277307   0.905   1.542   5.455 -1.6423  0.5008  1.6874
18606TIP3   OH277308   3.211   5.468   4.950  0.0706  0.0409  0.5976
18606TIP3    H177309   3.216   5.543   4.891 -1.1093  1.3671  2.0848
18606TIP3    H277310   3.290   5.474   5.004 -0.0389  0.2282  0.7363
18607TIP3   OH277311   6.276   0.519   1.784 -0.6671 -0.2038  0.0541
18607TIP3    H177312   6.196   0.470   1.768  0.8745 -2.7250 -0.5641
18607TIP3    H277313   6.339   0.482   1.722  1.1952  1.0481  1.1126
18608TIP3   OH277314   0.047   3.805   1.127  0.3990 -0.0600  0.1953
18608TIP3    H177315   0.114   3.825   1.193  0.6845 -0.6448  0.0955
18608TIP3    H277316   0.021   3.715   1.148 -1.1138  0.5061  0.8856
18609TIP3   OH277317   5.404   2.967  11.585 -0.1210 -0.2969 -0.4302
18609TIP3    H177318   5.351   2.920  11.650 -0.2990 -3.2741 -2.5055
18609TIP3    H277319   5.474   2.905  11.563  0.4106  0.9299 -2.4689
18610TIP3   OH277320   5.332   5.910   1.436 -0.0830  0.4406 -0.2454
18610TIP3    H177321   5.413   5.899   1.386  1.2554  0.4637  1.8228
18610TIP3    H277322   5.336   5.999   1.469  0.5469 -0.4451  2.2734
18611TIP3   OH277323   1.157   1.725   5.638 -0.0408  0.0831 -0.2202
18611TIP3    H177324   1.165   1.798   5.577 -0.2980 -0.3613 -0.7918
18611TIP3    H277325   1.082   1.747   5.693 -0.3136  0.1015 -0.6006
18612TIP3   OH277326   2.904   5.465   3.327  0.2343 -0.4399 -0.4558
18612TIP3    H177327   2.914   5.543   3.272 -0.2230 -0.7326 -0.9677
18612TIP3    H277328   2.955   5.485   3.406  1.7535 -0.4062 -1.3947
18613TIP3   OH277329   5.122   2.016   3.479  0.2059 -0.0205 -0.4461
18613TIP3    H177330   5.101   1.937   3.529  1.6406 -1.5878 -2.2032
18613TIP3    H277331   5.057   2.018   3.409  1.1753 -0.6393 -1.3991
18614TIP3   OH277332   4.676   5.019   3.640 -0.1129 -0.4505 -0.0190
18614TIP3    H177333   4.763   4.985   3.622 -0.3663 -1.1685  0.0741
18614TIP3    H277334   4.620   4.981   3.572 -0.2755  0.3673 -0.3543
18615TIP3   OH277335   2.314   4.873  13.909 -0.4124  0.1802 -0.5539
18615TIP3    H177336   2.361   4.861  13.991 -0.3487 -0.2961 -0.6519
18615TIP3    H277337   2.373   4.838  13.842 -1.2864 -1.3528 -0.5729
18616TIP3   OH277338   5.304   5.187   3.705 -0.5279  0.2020 -0.2902
18616TIP3    H177339   5.261   5.266   3.671 -1.1466 -0.5371 -1.2859
18616TIP3    H277340   5.345   5.147   3.628  0.8041  0.1571  0.4051
18617TIP3   OH277341   2.223   5.353  12.704 -0.5513 -0.7210  0.4662
18617TIP3    H177342   2.235   5.361  12.609  0.0450  0.7420  0.6393
18617TIP3    H277343   2.243   5.261  12.723  0.0656 -0.8505 -0.7287
18618TIP3   OH277344   1.373   0.282   4.373 -0.0340 -0.0197  0.0322
18618TIP3    H177345   1.284   0.288   4.339 -0.0897  0.0824  0.1940
18618TIP3    H277346   1.428   0.269   4.296 -0.3790 -2.0041  0.0629
18619TIP3   OH277347   1.944   4.817   1.612  0.4683 -0.9272 -0.6945
18619TIP3    H177348   1.955   4.820   1.707  0.4149 -0.4402 -0.6965
18619TIP3    H277349   2.030   4.838   1.576 -0.0172  1.3355 -0.7197
18620TIP3   OH277350   5.094   0.210   4.374 -0.3134 -0.3258  0.8331
18620TIP3    H177351   5.182   0.238   4.352 -0.3035 -1.2714 -0.4472
18620TIP3    H277352   5.106   0.135   4.433 -0.1425 -1.9879 -1.1932
18621TIP3   OH277353   5.799   1.952   5.675 -0.1244 -0.1527 -0.7410
18621TIP3    H177354   5.889   1.951   5.643  0.1548 -1.7579 -0.0029
18621TIP3    H277355   5.754   2.015   5.618  1.9123  2.3895  0.2259
18622TIP3   OH277356   1.538   3.690  13.725 -0.2637 -0.9519 -0.2350
18622TIP3    H177357   1.555   3.729  13.639 -0.9849 -0.0512  0.0143
18622TIP3    H277358   1.547   3.596  13.711 -0.2419 -0.8044 -1.2661
18623TIP3   OH277359   2.525   0.386   3.261 -0.1389 -0.2447  0.1259
18623TIP3    H177360   2.484   0.462   3.220 -0.8987 -0.3339  0.6943
18623TIP3    H277361   2.453   0.341   3.305  0.3448 -1.1631  0.0031
18624TIP3   OH277362   4.891   6.298   0.930  0.1606 -0.0456 -0.1045
18624TIP3    H177363   4.855   6.375   0.886 -3.1988 -0.3572  1.7608
18624TIP3    H277364   4.944   6.334   1.002  0.4445  0.4700 -0.5611
18625TIP3   OH277365   2.409   5.032  14.884  0.2549 -0.3692  0.5565
18625TIP3    H177366   2.398   5.028  14.789 -1.6049  0.0082  0.7201
18625TIP3    H277367   2.492   4.987  14.901  0.2613 -1.0678 -1.1704
18626TIP3   OH277368   0.615   2.922  13.292 -0.5020 -0.3043 -0.0078
18626TIP3    H177369   0.575   3.006  13.314  0.2074 -0.2805  1.2897
18626TIP3    H277370   0.564   2.890  13.217 -0.4467  1.5119 -0.8659
18627TIP3   OH277371   0.802   2.873  12.382 -0.3384 -0.0091 -0.4666
18627TIP3    H177372   0.859   2.832  12.317 -1.0881 -1.2693 -0.3522
18627TIP3    H277373   0.726   2.816  12.387 -0.2841  0.0267  1.5572
18628TIP3   OH277374   6.609   3.593  13.435  0.0071 -0.2045  0.4292
18628TIP3    H177375   6.560   3.675  13.444  1.0424  0.6975 -1.3611
18628TIP3    H277376   6.699   3.621  13.417 -0.0125 -1.5958 -2.5261
18629TIP3   OH277377   1.700   3.911  14.786  0.6364  0.3029 -0.3179
18629TIP3    H177378   1.763   3.839  14.789 -1.6582 -1.8260  1.1781
18629TIP3    H277379   1.703   3.942  14.695  2.4811 -0.9349 -0.7337
18630TIP3   OH277380   4.633   3.477  12.710  0.1773 -0.2786 -0.1875
18630TIP3    H177381   4.614   3.394  12.753 -1.3697  0.7879  1.3851
18630TIP3    H277382   4.634   3.457  12.617  1.1235 -2.2556  0.1996
18631TIP3   OH277383   3.593   2.539  12.810  0.4659 -0.0136  0.1546
18631TIP3    H177384   3.657   2.476  12.845 -0.8700 -0.7803  1.3176
18631TIP3    H277385   3.571   2.595  12.884  0.0695  0.4933 -0.3401
18632TIP3   OH277386   4.149   2.691  15.852 -0.1958  0.5240  0.4913
18632TIP3    H177387   4.173   2.633  15.780 -0.9570 -1.1822  1.5538
18632TIP3    H277388   4.185   2.649  15.930 -1.9631  0.6998  1.4654
18633TIP3   OH277389   1.338   0.314  13.297  0.2102 -0.3595  0.1106
18633TIP3    H177390   1.308   0.362  13.220 -0.0930  0.0261  0.4582
18633TIP3    H277391   1.350   0.382  13.364 -1.2865 -0.8772  0.9437
18634TIP3   OH277392   1.253   0.354   0.266 -0.0822 -0.3678 -1.0475
18634TIP3    H177393   1.332   0.300   0.265 -1.2103 -2.0931 -1.2847
18634TIP3    H277394   1.218   0.345   0.355  0.6333  1.4554 -0.5306
18635TIP3   OH277395   0.934   4.511  11.573 -0.2672  0.0214 -0.0564
18635TIP3    H177396   0.921   4.563  11.652  1.6370  0.8897 -0.2406
18635TIP3    H277397   0.897   4.565  11.503 -2.4961 -1.0132  0.2494
18636TIP3   OH277398   6.782   5.325  15.514  0.6542 -0.2938  0.0046
18636TIP3    H177399   6.788   5.236  15.480 -0.2007 -1.0763  1.7556
18636TIP3    H277400   6.870   5.344  15.546  1.2598  0.1549 -1.8403
18637TIP3   OH277401   0.283   4.553   2.974 -0.1787  0.2068  0.0791
18637TIP3    H177402   0.258   4.560   3.066  1.1301 -1.6850  0.6571
18637TIP3    H277403   0.278   4.459   2.955  3.1401  0.0412 -0.6310
18638TIP3   OH277404   6.484   5.816   1.331  0.1370 -0.0024 -0.1681
18638TIP3    H177405   6.450   5.763   1.259 -0.2062 -0.1185  0.0746
18638TIP3    H277406   6.406   5.842   1.381  0.0373  2.6037 -1.5199
18639TIP3   OH277407   6.581   2.443   3.949 -0.2729 -0.1566  1.0447
18639TIP3    H177408   6.596   2.350   3.931  0.0861 -0.1127  1.0989
18639TIP3    H277409   6.669   2.479   3.960 -0.2239  0.7152 -1.5312
18640TIP3   OH277410   1.656   1.835  16.741 -0.5526  0.7607 -0.2017
18640TIP3    H177411   1.630   1.750  16.777 -1.4037  0.8118 -0.6782
18640TIP3    H277412   1.702   1.878  16.813  0.4409 -0.3478 -0.1428
18641TIP3   OH277413   0.427   0.327  12.597 -0.0211 -0.0710  0.3917
18641TIP3    H177414   0.449   0.259  12.660  0.3887 -0.2224  0.0892
18641TIP3    H277415   0.488   0.313  12.525  0.0362  0.5888  0.3078
18642TIP3   OH277416   1.911   4.287  12.958 -0.0283 -0.0907  0.2025
18642TIP3    H177417   1.937   4.259  12.871  2.4386 -1.5163  1.3087
18642TIP3    H277418   1.829   4.240  12.975  0.8792 -1.9316 -0.3223
18643TIP3   OH277419   5.826   6.048  16.570  0.1231  0.2114 -0.7784
18643TIP3    H177420   5.736   6.021  16.550  0.6956 -0.8305 -2.1018
18643TIP3    H277421   5.858   5.982  16.631 -0.5155  1.5192  1.0578
18644TIP3   OH277422   6.382   3.172  13.085 -0.3640 -0.4664  0.1276
18644TIP3    H177423   6.389   3.083  13.120  1.8394  0.0190  1.0586
18644TIP3    H277424   6.428   3.227  13.148 -0.6445  1.1931 -1.0323
18645TIP3   OH277425   6.064   5.358  15.178 -0.1412  0.6678 -0.0642
18645TIP3    H177426   6.034   5.435  15.226 -0.0429  0.6504  0.0249
18645TIP3    H277427   6.093   5.297  15.246 -0.1183  0.5946 -0.1394
18646TIP3   OH277428   1.200   1.965  13.474 -0.1085 -0.3771  0.1940
18646TIP3    H177429   1.278   1.970  13.419 -0.2791  0.1878 -0.0019
18646TIP3    H277430   1.234   1.952  13.562  0.2582  0.9155  0.2599
18647TIP3   OH277431   1.308   1.175  14.726  0.2543 -0.1008  0.2548
18647TIP3    H177432   1.336   1.266  14.737 -0.8025  0.2139  0.4583
18647TIP3    H277433   1.245   1.178  14.654 -0.1312 -0.5932  0.5672
18648TIP3   OH277434   5.409   0.219  14.345 -0.2172  0.2920  0.6842
18648TIP3    H177435   5.459   0.295  14.315  0.3628 -0.4015 -0.1638
18648TIP3    H277436   5.471   0.169  14.398 -0.5868  0.3844  1.2129
18649TIP3   OH277437   2.528   2.085  15.001 -0.5754 -0.5099  0.0351
18649TIP3    H177438   2.578   2.076  15.082 -0.9866 -0.2933  0.3232
18649TIP3    H277439   2.536   2.001  14.957 -0.8295 -0.8277  0.5887
18650TIP3   OH277440   3.723   3.719   2.855  0.2840  0.2554 -0.1439
18650TIP3    H177441   3.726   3.814   2.865  3.5015  0.4318 -1.5436
18650TIP3    H277442   3.765   3.702   2.771 -0.7145 -2.4069 -0.2094
18651TIP3   OH277443   0.843   3.114   2.506  0.1884  0.1182  0.5695
18651TIP3    H177444   0.927   3.115   2.459  0.2757 -2.2517  0.5175
18651TIP3    H277445   0.867   3.110   2.598  0.0668  1.5064  0.6787
18652TIP3   OH277446   3.319   6.358  16.921  0.0501 -0.5838  0.5108
18652TIP3    H177447   3.385   6.426  16.936  0.6994 -1.1245  0.1958
18652TIP3    H277448   3.330   6.297  16.994  0.6481 -1.2345 -0.0965
18653TIP3   OH277449   1.438   1.281  15.032  0.3546  0.0089 -0.1496
18653TIP3    H177450   1.435   1.288  15.127 -0.8946  1.2488 -0.2538
18653TIP3    H277451   1.518   1.231  15.015  1.0618  0.4750  1.5061
18654TIP3   OH277452   4.625   4.685  14.979  0.1212 -0.1022  1.0299
18654TIP3    H177453   4.576   4.697  15.061 -1.5960  2.0741 -0.2044
18654TIP3    H277454   4.616   4.769  14.934  0.4727 -1.4384 -1.6800
18655TIP3   OH277455   0.035   5.436  12.183 -0.1928 -0.1907  0.7494
18655TIP3    H177456   0.083   5.375  12.239 -0.2297 -0.4656  0.4820
18655TIP3    H277457  -0.029   5.477  12.241 -0.2521 -0.4988  0.8990
18656TIP3   OH277458   4.919   2.043   3.279  0.2625 -0.2434  0.2191
18656TIP3    H177459   4.842   2.015   3.329 -0.7262  0.0897 -1.0631
18656TIP3    H277460   4.894   2.129   3.244  0.1878 -1.1996 -2.2740
18657TIP3   OH277461   3.865   5.890  16.415 -0.8815 -0.2802 -0.0309
18657TIP3    H177462   3.889   5.890  16.322  0.1065 -1.9712  0.1741
18657TIP3    H277463   3.821   5.806  16.429 -0.8082 -0.1555  1.0625
18658TIP3   OH277464   6.666   3.061   0.557  0.3532 -0.1463  0.4027
18658TIP3    H177465   6.759   3.051   0.575  0.1795 -0.7756  1.0190
18658TIP3    H277466   6.662   3.098   0.469  1.2123  1.0741  0.8413
18659TIP3   OH277467   5.979   0.026  13.846  0.5627 -0.4555  0.1024
18659TIP3    H177468   6.020   0.027  13.759  0.3114  0.0769 -0.0081
18659TIP3    H277469   5.970  -0.067  13.866 -0.2670 -0.6047 -0.8621
18660TIP3   OH277470   1.220   6.284   5.994  0.0144 -0.1124 -0.0883
18660TIP3    H177471   1.306   6.312   5.965  0.3494 -1.1961 -0.1856
18660TIP3    H277472   1.217   6.308   6.087  0.3447  0.0827 -0.1276
18661TIP3   OH277473   1.753   1.107   5.282 -0.3492  0.1138  0.3976
18661TIP3    H177474   1.691   1.112   5.210  1.0096  1.9724 -0.7476
18661TIP3    H277475   1.838   1.094   5.240  0.6297  2.3356  1.4887
18662TIP3   OH277476   2.220   5.902  15.171 -0.3146 -0.2292 -0.1130
18662TIP3    H177477   2.138   5.937  15.205  1.0654  3.0722  0.1975
18662TIP3    H277478   2.218   5.922  15.077  0.0344 -0.3037 -0.1398
18663TIP3   OH277479   3.621   0.043   1.718  0.0071 -0.5834 -0.0041
18663TIP3    H177480   3.630  -0.052   1.724 -0.1984 -0.6993 -1.2815
18663TIP3    H277481   3.527   0.059   1.710  0.0807 -0.3134 -0.3738
18664TIP3   OH277482   3.541   3.789  12.071 -0.3153 -0.0126 -0.6029
18664TIP3    H177483   3.514   3.716  12.126  0.3693  0.3991  0.3067
18664TIP3    H277484   3.524   3.867  12.125  0.2557  0.4096 -1.0145
18665TIP3   OH277485   5.607   1.181   0.888  0.0039  0.0145 -0.1423
18665TIP3    H177486   5.596   1.214   0.978 -0.8770 -1.1278  0.1835
18665TIP3    H277487   5.521   1.149   0.863  0.2686  0.1936 -1.3699
18666TIP3   OH277488   4.384   0.271  16.459  0.5245  0.4023 -0.2839
18666TIP3    H177489   4.417   0.294  16.371 -0.9183 -0.0773 -0.9713
18666TIP3    H277490   4.325   0.343  16.482 -0.0586 -0.0872 -0.2420
18667TIP3   OH277491   3.952   4.428  15.814  0.3914 -0.1007 -0.2663
18667TIP3    H177492   4.041   4.457  15.794  0.6136 -0.5456  0.0573
18667TIP3    H277493   3.939   4.350  15.760  0.6802 -0.7993  0.6375
18668TIP3   OH277494   3.474   2.745   2.552 -0.8159  0.6832 -0.5134
18668TIP3    H177495   3.387   2.740   2.592 -0.5212 -0.0950  0.0505
18668TIP3    H277496   3.466   2.813   2.485 -1.7434  0.9071 -0.1837
18669TIP3   OH277497   2.617   0.447  16.624 -0.1600 -0.3540 -0.2829
18669TIP3    H177498   2.585   0.521  16.676  0.8013  1.2241 -1.8325
18669TIP3    H277499   2.615   0.373  16.684 -2.1455  0.6738  1.0403
18670TIP3   OH277500   5.270   1.923   6.410  0.1291 -0.1248 -0.1031
18670TIP3    H177501   5.363   1.927   6.433  0.3529 -1.7627 -0.5446
18670TIP3    H277502   5.248   2.012   6.384  1.1339  0.6691  1.5902
18671TIP3   OH277503   2.701   4.095   4.684  0.0507 -0.4080 -0.1648
18671TIP3    H177504   2.772   4.113   4.623  0.0055 -0.4995 -0.2435
18671TIP3    H277505   2.630   4.060   4.630  0.6785 -2.3511  0.1666
18672TIP3   OH277506   2.524   5.821   2.786  0.4317 -0.4641  0.6114
18672TIP3    H177507   2.494   5.731   2.800 -0.2144 -0.6552 -1.5426
18672TIP3    H277508   2.616   5.812   2.762  0.2232 -0.6201 -0.1499
18673TIP3   OH277509   5.265   3.571  14.905  0.4353 -0.5105  0.4198
18673TIP3    H177510   5.270   3.493  14.850  0.2025 -0.9722  1.0374
18673TIP3    H277511   5.253   3.644  14.843 -0.7835 -1.1217 -0.1059
18674TIP3   OH277512   5.816   3.028  15.344  1.1292  0.2950  0.1115
18674TIP3    H177513   5.839   3.027  15.252  0.2043 -1.9802 -0.1684
18674TIP3    H277514   5.900   3.032  15.390  1.6905 -0.2122 -0.8435
18675TIP3   OH277515   1.661   2.510   1.765 -0.3424 -0.4810  0.0874
18675TIP3    H177516   1.577   2.509   1.718 -0.8298  0.0027  0.9331
18675TIP3    H277517   1.684   2.418   1.774 -0.2615 -0.5899 -1.0479
18676TIP3   OH277518   5.428   2.557   4.892 -0.3631  0.2652 -0.2334
18676TIP3    H177519   5.403   2.567   4.800  0.0685  0.8251 -0.2944
18676TIP3    H277520   5.466   2.469   4.896  0.1345  0.4543 -0.7117
18677TIP3   OH277521   0.604   0.785  13.133 -0.5779 -0.1176 -0.1422
18677TIP3    H177522   0.599   0.858  13.194  0.5797 -0.6444  0.6320
18677TIP3    H277523   0.655   0.719  13.179 -2.1677 -1.7051 -0.5523
18678TIP3   OH277524   3.177   5.885  14.803 -0.1920 -0.5051 -0.2971
18678TIP3    H177525   3.256   5.831  14.796 -0.9328 -1.4662 -1.8497
18678TIP3    H277526   3.173   5.909  14.895  0.3320 -2.9310  0.4424
18679TIP3   OH277527   3.072   4.144   2.067 -0.2130  0.1641 -0.9713
18679TIP3    H177528   3.128   4.222   2.063 -0.4904  0.3843 -0.6543
18679TIP3    H277529   3.087   4.110   2.155 -0.2650 -0.0130 -1.0318
18680TIP3   OH277530   0.698   5.012   5.271 -0.3711 -0.1491 -0.3414
18680TIP3    H177531   0.737   5.083   5.323 -0.9220 -0.7835  0.9880
18680TIP3    H277532   0.612   5.045   5.246 -1.0257 -0.6728  1.1012
18681TIP3   OH277533   1.603   5.996   3.889 -0.1169  0.2670 -0.1107
18681TIP3    H177534   1.624   5.946   3.810  0.0631 -1.4180  0.9554
18681TIP3    H277535   1.541   6.063   3.860  1.0457  0.6117 -1.9240
18682TIP3   OH277536   3.567   5.398   0.015  0.3857 -0.4424 -0.3223
18682TIP3    H177537   3.488   5.385  -0.038 -0.9007  2.2711  0.7735
18682TIP3    H277538   3.546   5.360   0.100  0.8192 -0.9293 -0.4232
18683TIP3   OH277539   3.483   4.705   3.783  0.0439  0.0470  0.5124
18683TIP3    H177540   3.415   4.657   3.831  0.3040  0.0530  0.8854
18683TIP3    H277541   3.524   4.761   3.848  0.3728  0.0889  0.2728
18684TIP3   OH277542   3.518   5.496   3.548  0.1143 -0.2821 -0.3537
18684TIP3    H177543   3.469   5.414   3.545  0.3080 -0.3691 -1.8635
18684TIP3    H277544   3.451   5.564   3.549 -0.0399 -0.4325  0.3041
18685TIP3   OH277545   1.923   1.627  12.832  0.4926 -0.0164  0.4654
18685TIP3    H177546   1.923   1.545  12.881 -1.5627 -0.0132  0.5484
18685TIP3    H277547   1.964   1.691  12.891 -1.1289 -0.2121  1.8758
18686TIP3   OH277548   6.190   6.162  11.694 -0.3725 -0.1221 -0.2127
18686TIP3    H177549   6.117   6.217  11.724 -0.6440 -0.6039  0.0120
18686TIP3    H277550   6.222   6.119  11.774  2.1102  2.3364  0.2800
18687TIP3   OH277551   5.096   3.646  15.774 -0.4394  0.3050 -0.3811
18687TIP3    H177552   5.108   3.660  15.680  2.8145 -2.7300 -0.6694
18687TIP3    H277553   5.043   3.567  15.780 -0.0452  0.0827  0.2849
18688TIP3   OH277554   6.345   5.087  16.991 -0.6872 -0.6858 -0.7692
18688TIP3    H177555   6.428   5.134  16.988 -0.2701 -1.2969  0.5077
18688TIP3    H277556   6.313   5.099  17.081 -0.2776 -3.2287 -0.1893
18689TIP3   OH277557   6.524   5.412   5.244 -0.6410 -0.3976  0.5051
18689TIP3    H177558   6.615   5.395   5.220 -0.2956  2.1715 -0.2138
18689TIP3    H277559   6.525   5.414   5.340  0.5565  1.8085  0.4971
18690TIP3   OH277560   4.799   0.918   3.387 -0.6598  0.2087 -0.4254
18690TIP3    H177561   4.771   0.975   3.315  0.7127 -0.1948 -1.3215
18690TIP3    H277562   4.825   0.978   3.457 -1.1175  0.6220 -0.5994
18691TIP3   OH277563   4.659   5.213  15.369 -0.4272  0.1216 -0.3285
18691TIP3    H177564   4.703   5.297  15.384  1.4471 -0.8402 -0.1021
18691TIP3    H277565   4.724   5.161  15.322 -1.1844 -1.5450  0.4092
18692TIP3   OH277566   0.777   3.409   3.677  0.2301 -0.1303  0.0583
18692TIP3    H177567   0.722   3.398   3.755 -1.3586  0.2054 -0.9658
18692TIP3    H277568   0.818   3.324   3.664 -1.0160 -0.7658  0.1758
18693TIP3   OH277569   4.217   3.958  13.964 -0.3204  0.4441 -0.6885
18693TIP3    H177570   4.305   3.934  13.992 -1.2831 -2.9809 -0.2499
18693TIP3    H277571   4.197   3.897  13.893 -1.6829  2.4089 -2.0978
18694TIP3   OH277572   0.843   5.340  16.609 -0.5885  1.0439  0.3340
18694TIP3    H177573   0.806   5.367  16.693  1.2567  2.1025  0.8449
18694TIP3    H277574   0.877   5.252  16.624 -1.5078  0.6564  0.2617
18695TIP3   OH277575   4.319   4.100  12.593 -0.7149  0.3547 -0.1978
18695TIP3    H177576   4.369   4.135  12.667  0.8014 -1.4796 -0.2913
18695TIP3    H277577   4.237   4.070  12.632 -0.8677  1.4119  0.3377
18696TIP3   OH277578   5.118   3.725   3.982 -0.0864 -0.5227  0.4239
18696TIP3    H177579   5.076   3.734   3.897 -2.2125 -1.4891  1.3027
18696TIP3    H277580   5.122   3.814   4.017 -0.1398 -0.2517 -0.2552
18697TIP3   OH277581   2.055   5.600  15.460  0.9163  0.3958 -0.2270
18697TIP3    H177582   2.002   5.560  15.528 -0.3384 -1.1432 -2.0021
18697TIP3    H277583   2.078   5.686  15.495 -1.5010  0.5413  1.2494
18698TIP3   OH277584   3.712   4.336   3.451  0.0901 -0.2668  0.0259
18698TIP3    H177585   3.713   4.399   3.523  2.0019  0.0963 -0.2604
18698TIP3    H277586   3.779   4.272   3.474  0.7499 -0.1360 -1.4132
18699TIP3   OH277587   2.430   4.055  16.990  0.4729 -0.2558  0.2966
18699TIP3    H177588   2.526   4.065  16.989  0.3262  1.3335  0.0332
18699TIP3    H277589   2.397   4.141  17.015 -0.8744 -1.0772  1.4938
18700TIP3   OH277590   2.111   1.884  13.258 -0.1407  0.0470 -0.6494
18700TIP3    H177591   2.170   1.955  13.284  0.9988 -1.3915  0.9363
18700TIP3    H277592   2.054   1.870  13.334  0.6630 -1.6844 -0.3107
18701TIP3   OH277593   2.060   4.371   6.544  0.7483  0.0235 -0.4115
18701TIP3    H177594   2.153   4.348   6.549  0.7130 -0.8167 -2.5855
18701TIP3    H277595   2.017   4.313   6.607  1.5260 -0.5893 -0.4408
18702TIP3   OH277596   3.816   6.206  16.831 -0.4902  0.0127 -0.6390
18702TIP3    H177597   3.722   6.220  16.819 -0.7230 -1.6868 -1.0239
18702TIP3    H277598   3.834   6.122  16.789  0.6442 -1.1465  1.9240
18703TIP3   OH277599   1.711   2.770   3.476 -0.0626 -0.3547 -0.0786
18703TIP3    H177600   1.706   2.712   3.552  1.2506  0.4340  0.6470
18703TIP3    H277601   1.805   2.775   3.455 -0.2394  0.7980 -0.6769
18704TIP3   OH277602   2.446   0.480   0.724  0.3805  0.2396  0.1017
18704TIP3    H177603   2.519   0.419   0.728  2.0173  1.8312 -2.3612
18704TIP3    H277604   2.402   0.459   0.642 -0.8813  0.4611  0.6996
18705TIP3   OH277605   0.693   3.917   2.086 -0.3743  0.1012 -0.1790
18705TIP3    H177606   0.738   3.970   2.021  0.1595 -0.5386 -0.3459
18705TIP3    H277607   0.670   3.837   2.040  1.6147 -1.1438  0.8418
18706TIP3   OH277608   6.818   3.540   0.205 -0.3927 -0.6192  0.3222
18706TIP3    H177609   6.726   3.564   0.197 -0.7675 -1.2327  2.2970
18706TIP3    H277610   6.833   3.535   0.300  2.3006  1.8550  0.1777
18707TIP3   OH277611   3.010   6.667   4.186  0.4498 -0.1212 -0.1853
18707TIP3    H177612   2.983   6.670   4.278 -1.3248 -0.5502 -0.6530
18707TIP3    H277613   3.101   6.636   4.189  0.3154 -0.4569  1.4002
18708TIP3   OH277614   1.640   5.687   4.767 -0.3839  0.4020  0.1135
18708TIP3    H177615   1.666   5.674   4.858 -0.8936  0.8285  0.3251
18708TIP3    H277616   1.631   5.599   4.732  1.7825  0.2225 -0.1096
18709TIP3   OH277617   2.742   2.511   0.798  0.9154  0.2938 -0.6451
18709TIP3    H177618   2.765   2.444   0.734 -0.6815 -0.0041 -0.9500
18709TIP3    H277619   2.678   2.469   0.855  1.5654  0.8811  0.5325
18710TIP3   OH277620   1.791   1.327   0.929 -0.9429 -0.1310  0.2236
18710TIP3    H177621   1.765   1.412   0.965  0.6532  0.6634 -0.3754
18710TIP3    H277622   1.845   1.350   0.853 -1.0155 -1.7052 -0.3281
18711TIP3   OH277623   3.647   3.970  13.033  0.1202 -0.0766  0.0758
18711TIP3    H177624   3.665   4.035  12.965  3.0663 -1.5335 -0.6968
18711TIP3    H277625   3.652   4.019  13.115 -0.0205  1.0614 -0.5755
18712TIP3   OH277626   5.913   2.052  13.374  0.3294 -0.1926 -0.2206
18712TIP3    H177627   5.902   2.136  13.330  0.7920  0.4626  0.8726
18712TIP3    H277628   5.885   1.987  13.310  2.4230  0.6119 -2.0691
18713TIP3   OH277629   3.142   3.648  14.474  0.2268  0.1747 -0.0364
18713TIP3    H177630   3.219   3.643  14.417 -1.1552 -0.8297 -1.9599
18713TIP3    H277631   3.092   3.722  14.439 -1.1116 -1.0567 -0.8331
18714TIP3   OH277632   6.532   6.345  15.330 -0.2700 -0.1737  0.1428
18714TIP3    H177633   6.448   6.345  15.376  0.7094 -1.0619  2.0478
18714TIP3    H277634   6.556   6.437  15.325 -0.1634 -0.0616  1.9680
18715TIP3   OH277635   4.366   4.253  15.635  0.0665 -0.0407 -0.0543
18715TIP3    H177636   4.332   4.236  15.723  0.4335 -1.6627 -0.1933
18715TIP3    H277637   4.321   4.189  15.579  0.4795  0.3890 -0.8889
18716TIP3   OH277638   2.472   2.387  13.326  0.3648 -0.8713  0.1301
18716TIP3    H177639   2.450   2.477  13.348 -0.7050 -1.1124  0.0787
18716TIP3    H277640   2.568   2.387  13.318  0.2594  0.6761 -1.7786
18717TIP3   OH277641   4.420   4.685   6.395  0.2742  0.2075 -0.1477
18717TIP3    H177642   4.506   4.644   6.398  0.6826  1.0666  2.4449
18717TIP3    H277643   4.389   4.684   6.486 -1.6751  1.5210 -0.7129
18718TIP3   OH277644   5.265   5.791  14.901 -0.2684  0.6542 -0.1246
18718TIP3    H177645   5.322   5.865  14.880 -2.1912  2.1427 -0.4918
18718TIP3    H277646   5.293   5.722  14.841 -0.1554  2.0199 -1.7311
18719TIP3   OH277647   1.277   3.852  13.711 -0.6151 -0.3401 -0.2134
18719TIP3    H177648   1.350   3.826  13.766  0.1046 -0.0351 -1.0076
18719TIP3    H277649   1.231   3.771  13.692  0.3200 -0.7375 -0.8377
18720TIP3   OH277650   5.146   6.716  16.380  0.1842  0.0944  0.1940
18720TIP3    H177651   5.079   6.750  16.321  1.4579 -0.6913 -1.7965
18720TIP3    H277652   5.176   6.635  16.340  2.1405  0.2793  1.1234
18721TIP3   OH277653   2.725   5.889   0.311 -0.0415  0.1826  0.2172
18721TIP3    H177654   2.791   5.882   0.380  1.9839 -0.2192 -1.6514
18721TIP3    H277655   2.684   5.802   0.309  0.8448 -0.2370  0.0064
18722TIP3   OH277656   3.717   6.724   5.881 -0.0782  0.3140 -0.2618
18722TIP3    H177657   3.769   6.688   5.953 -0.8780  0.1141  0.2385
18722TIP3    H277658   3.745   6.677   5.804  2.4588  2.1110 -0.5448
18723TIP3   OH277659   5.851   0.854   2.918  0.9116 -0.3768 -0.3745
18723TIP3    H177660   5.765   0.815   2.933  0.3785  0.4359 -1.2310
18723TIP3    H277661   5.875   0.892   3.002  0.5721 -0.8892 -0.0445
18724TIP3   OH277662   5.916   3.216  12.572 -0.1723  0.4400  0.0766
18724TIP3    H177663   5.889   3.193  12.483 -2.5305  0.2550  0.7686
18724TIP3    H277664   5.978   3.287  12.561 -0.1859  0.2181 -1.7212
18725TIP3   OH277665   4.649   2.979  11.368  0.9331 -0.0688 -0.0704
18725TIP3    H177666   4.674   3.070  11.348  0.3814  0.1721  0.3392
18725TIP3    H277667   4.663   2.970  11.462 -1.3310  0.3446  0.3590
18726TIP3   OH277668   6.786   0.064  15.287  0.2648 -0.2444  0.3489
18726TIP3    H177669   6.862   0.021  15.327  0.2478 -0.7209 -0.1320
18726TIP3    H277670   6.758   0.127  15.353  0.4322 -0.8070  0.9711
18727TIP3   OH277671   1.052   5.541  16.888 -0.2287 -0.1806 -0.2253
18727TIP3    H177672   1.135   5.574  16.853 -0.5226  0.0812 -0.6928
18727TIP3    H277673   1.056   5.446  16.874 -0.3541 -0.0760 -1.0166
18728TIP3   OH277674   1.760   0.972  14.304  0.6148  0.0152 -0.6461
18728TIP3    H177675   1.804   1.056  14.318 -2.7511  1.6133  1.7992
18728TIP3    H277676   1.745   0.938  14.392  1.1030 -2.8179 -1.5551
18729TIP3   OH277677   0.714   6.351   4.475  0.0988  0.1575  0.4349
18729TIP3    H177678   0.697   6.261   4.447  0.6687  0.2322 -0.1793
18729TIP3    H277679   0.806   6.352   4.499  0.1980  0.6681  0.0577
18730TIP3   OH277680   4.870   5.518   1.853 -0.1875 -0.0155  0.6407
18730TIP3    H177681   4.941   5.581   1.837 -0.0350 -0.0564  1.1155
18730TIP3    H277682   4.897   5.438   1.809  0.0647 -0.0293  0.8171
18731TIP3   OH277683   5.776   0.780  15.095  0.3887  0.0847 -0.1184
18731TIP3    H177684   5.711   0.710  15.100  0.4021  0.0307 -0.6920
18731TIP3    H277685   5.822   0.776  15.179 -0.9892  0.7546  0.7038
18732TIP3   OH277686   5.197   4.652   4.533 -0.2507 -0.1395  0.4111
18732TIP3    H177687   5.210   4.619   4.445 -0.8455  0.7440 -0.0281
18732TIP3    H277688   5.262   4.722   4.543 -1.7705  1.4629 -0.2791
18733TIP3   OH277689   0.047   1.099  14.800  0.0597 -0.1894  0.5485
18733TIP3    H177690   0.132   1.128  14.833  0.3442  0.8484 -0.9400
18733TIP3    H277691   0.028   1.019  14.847  2.1584 -0.7690  0.4972
18734TIP3   OH277692   6.567   5.493   2.839 -0.3235 -0.1982 -0.2870
18734TIP3    H177693   6.628   5.543   2.785 -1.0062 -0.6257 -1.4845
18734TIP3    H277694   6.492   5.551   2.851 -0.6849 -0.5470 -0.8255
18735TIP3   OH277695   2.514   2.597   0.258 -0.4324 -0.3699  0.0793
18735TIP3    H177696   2.494   2.545   0.180 -0.1273 -0.5577  0.1227
18735TIP3    H277697   2.441   2.580   0.318  0.3999 -1.9814  0.7010
18736TIP3   OH277698   1.827   4.943   0.028  0.2635  0.7942 -0.1638
18736TIP3    H177699   1.920   4.965   0.021  0.2350  0.5292 -1.5474
18736TIP3    H277700   1.824   4.877   0.097  1.2157  0.2222 -0.6441
18737TIP3   OH277701   2.157   4.585  11.963 -0.2676 -0.7690  0.2463
18737TIP3    H177702   2.247   4.569  11.992 -0.1320 -0.4862 -0.0206
18737TIP3    H277703   2.119   4.497  11.957  0.0074 -0.8952  0.3062
18738TIP3   OH277704   1.280   4.978   2.791  0.2377  0.3246 -0.0689
18738TIP3    H177705   1.201   4.936   2.826 -0.5782  2.1235  0.3776
18738TIP3    H277706   1.348   4.960   2.855  0.0788 -0.8247 -0.2103
18739TIP3   OH277707   5.777   1.302   5.445 -0.1575  0.5519  0.0263
18739TIP3    H177708   5.723   1.319   5.521 -0.5930  0.3503 -0.2346
18739TIP3    H277709   5.837   1.232   5.473 -0.7580  0.0120 -0.0226
18740TIP3   OH277710   3.501   0.192  13.943 -0.2065  0.6595 -0.4172
18740TIP3    H177711   3.565   0.241  13.993  0.0571 -0.3029  0.2143
18740TIP3    H277712   3.534   0.192  13.853  0.4496  0.5399 -0.1762
18741TIP3   OH277713   1.061   5.756  13.565 -0.0893 -0.0660 -0.2426
18741TIP3    H177714   1.004   5.760  13.642 -0.1457  1.7954 -0.3465
18741TIP3    H277715   1.133   5.816  13.584 -0.1820  0.5582 -1.6831
18742TIP3   OH277716   4.315   4.420   4.595  0.0399 -0.1455 -0.7070
18742TIP3    H177717   4.376   4.372   4.539  0.7067  1.1249 -1.1170
18742TIP3    H277718   4.367   4.491   4.632 -1.3528  1.5002 -1.7454
18743TIP3   OH277719   4.442   2.288   4.901  0.3126 -0.3471  0.2462
18743TIP3    H177720   4.490   2.212   4.935  1.1322  0.3465  0.6758
18743TIP3    H277721   4.428   2.344   4.977 -0.4890 -0.1674 -0.0266
18744TIP3   OH277722   1.722   2.321  15.036 -0.2271 -0.2592 -0.2012
18744TIP3    H177723   1.770   2.346  15.115 -1.6918  0.0240  0.6557
18744TIP3    H277724   1.691   2.405  15.001 -1.1718 -0.5093  0.0089
18745TIP3   OH277725   2.820   3.895  11.690  0.1681 -0.9550 -0.0242
18745TIP3    H177726   2.778   3.884  11.775  0.6074 -0.3934  0.2772
18745TIP3    H277727   2.833   3.990  11.682  0.3094 -1.0200 -0.6271
18746TIP3   OH277728   3.327   5.065  13.635 -0.4729  0.0209  0.3054
18746TIP3    H177729   3.273   5.032  13.563 -0.3816 -1.5663  0.9173
18746TIP3    H277730   3.299   5.156  13.647 -0.8229  0.1629 -1.3987
18747TIP3   OH277731   6.467   5.641  16.027  0.5179  0.5777 -0.5598
18747TIP3    H177732   6.435   5.574  15.966  2.3736  0.2264 -1.1929
18747TIP3    H277733   6.507   5.593  16.099  2.7242  0.9285 -1.4780
18748TIP3   OH277734   5.914   0.110   0.511  0.0322 -0.2997 -0.5408
18748TIP3    H177735   5.911   0.093   0.605  2.2222  0.0979 -0.3333
18748TIP3    H277736   5.914   0.206   0.504 -1.0723 -0.3281 -1.0110
18749TIP3   OH277737   1.580   4.581   0.969 -0.0936 -0.4105 -0.3907
18749TIP3    H177738   1.587   4.658   1.025  0.2360 -1.6345  1.3318
18749TIP3    H277739   1.539   4.514   1.024  1.0322 -1.9290 -1.3141
18750TIP3   OH277740   2.378   5.712  13.928  0.6456 -0.4443  0.4228
18750TIP3    H177741   2.317   5.656  13.977  0.0990 -1.0559 -0.9022
18750TIP3    H277742   2.451   5.727  13.988  0.0849 -1.3215  1.3515
18751TIP3   OH277743   3.374   2.958   0.666 -0.3522 -0.0989 -0.6253
18751TIP3    H177744   3.469   2.959   0.662 -0.3474  0.2895 -0.4602
18751TIP3    H277745   3.350   3.047   0.692 -0.6937 -0.5395  0.6521
18752TIP3   OH277746   0.441   4.861  16.705  0.7133 -0.6671  0.2803
18752TIP3    H177747   0.440   4.948  16.665  1.3242 -1.4004 -1.4606
18752TIP3    H277748   0.361   4.819  16.673  0.9068 -1.0705  0.3241
18753TIP3   OH277749   1.175   1.986   5.487 -0.3140 -0.1338  0.1597
18753TIP3    H177750   1.257   1.998   5.440 -1.2236  0.7562 -1.2572
18753TIP3    H277751   1.191   2.027   5.573 -0.0742  2.4405 -1.0114
18754TIP3   OH277752   4.878   6.777   3.484 -0.3214  0.0971 -0.0761
18754TIP3    H177753   4.908   6.845   3.544 -2.2329  0.4094  0.5921
18754TIP3    H277754   4.787   6.761   3.510  0.1865 -3.0564  0.1222
18755TIP3   OH277755   2.344   2.540  11.016 -0.0662  0.2046  0.5619
18755TIP3    H177756   2.303   2.472  11.069 -0.3996  0.6611  0.9005
18755TIP3    H277757   2.281   2.612  11.018  0.1624  0.4215 -0.0152
18756TIP3   OH277758   3.957   1.839   2.092 -0.0759  0.9051 -0.3028
18756TIP3    H177759   4.039   1.803   2.126 -0.6661 -0.3897 -0.1934
18756TIP3    H277760   3.982   1.877   2.007  1.0361  2.5143  0.6876
18757TIP3   OH277761   2.353   2.975  14.831  0.0775  0.0479  0.2109
18757TIP3    H177762   2.301   2.895  14.837  2.1712 -1.7033 -2.4195
18757TIP3    H277763   2.423   2.963  14.895  0.2108 -0.1146  0.0378
18758TIP3   OH277764   1.188   3.808   0.130  0.1702 -1.0007 -0.6685
18758TIP3    H177765   1.278   3.840   0.122  0.1865 -0.9098 -0.1084
18758TIP3    H277766   1.174   3.758   0.049  0.8574 -1.3554 -0.5788
18759TIP3   OH277767   0.995   5.958  14.325  0.4573 -0.2430  0.0202
18759TIP3    H177768   0.982   6.051  14.307  0.8790 -0.0300  0.7488
18759TIP3    H277769   0.937   5.940  14.398 -0.2468 -0.7636 -0.6584
18760TIP3   OH277770   1.384   5.328  12.265 -0.0431 -0.6286  0.6537
18760TIP3    H177771   1.338   5.262  12.316  0.8136 -1.5562  0.2587
18760TIP3    H277772   1.461   5.283  12.231  1.6577  1.0825  2.0200
18761TIP3   OH277773   6.737   6.135   5.938  0.7538  0.8080  0.4971
18761TIP3    H177774   6.719   6.140   5.844  1.9424 -1.7150  0.0747
18761TIP3    H277775   6.817   6.187   5.950  2.1624 -1.0226 -0.4292
18762TIP3   OH277776   4.502   6.710   1.774  0.0277 -0.0632  0.4441
18762TIP3    H177777   4.431   6.662   1.816 -0.0685 -0.6190 -0.3376
18762TIP3    H277778   4.484   6.704   1.681  2.5770 -2.6928 -0.0118
18763TIP3   OH277779   0.365   6.269  15.161  0.1016 -0.3135 -0.0100
18763TIP3    H177780   0.418   6.293  15.085  1.7649  0.1268  1.2279
18763TIP3    H277781   0.402   6.185  15.190 -1.2924 -1.0712 -0.3593
18764TIP3   OH277782   0.444   3.328   5.438 -0.3015  1.2114  0.3323
18764TIP3    H177783   0.453   3.416   5.475  1.5829  1.2717 -0.1684
18764TIP3    H277784   0.475   3.337   5.348  1.0660 -0.1999  0.6302
18765TIP3   OH277785   5.124   5.235  16.403 -0.1219 -0.4099 -1.0237
18765TIP3    H177786   5.216   5.210  16.413  0.1785  0.3958 -1.6965
18765TIP3    H277787   5.082   5.204  16.484  1.2338  1.3963  0.4532
18766TIP3   OH277788   3.306   5.689  12.936 -0.0733  0.1323  0.0787
18766TIP3    H177789   3.246   5.763  12.949  0.4815  0.3413  1.6749
18766TIP3    H277790   3.324   5.657  13.025  2.7184  0.5191 -0.2505
18767TIP3   OH277791   5.705   5.621  15.572 -0.9159 -0.4867 -0.5630
18767TIP3    H177792   5.720   5.563  15.497 -1.0157 -0.2274 -0.7832
18767TIP3    H277793   5.610   5.623  15.582 -0.9793  0.5753 -1.2942
18768TIP3   OH277794   6.780   2.482  12.605  0.2151  0.1306 -0.3727
18768TIP3    H177795   6.826   2.415  12.654  1.3728  1.9859  1.2293
18768TIP3    H277796   6.843   2.511  12.539  1.0730  1.9414  1.1471
18769TIP3   OH277797   2.390   6.458  17.288 -0.7192  0.6605 -0.3597
18769TIP3    H177798   2.418   6.428  17.374 -1.0863 -1.9490 -1.0331
18769TIP3    H277799   2.305   6.414  17.274  0.7380 -1.6562 -3.1967
18770TIP3   OH277800   4.359   3.137   0.816  0.2288  0.4966 -0.3296
18770TIP3    H177801   4.385   3.229   0.825 -0.9616  0.8674 -0.5074
18770TIP3    H277802   4.402   3.108   0.736  3.3133 -0.1098  1.3839
18771TIP3   OH277803   2.164   4.129   2.681  0.7629  0.1960  0.0427
18771TIP3    H177804   2.256   4.121   2.706  0.6495  0.4518  0.5390
18771TIP3    H277805   2.150   4.056   2.620  1.5091  0.6504 -0.6876
18772TIP3   OH277806   5.733   5.227  10.489  0.4432 -0.3561  0.1950
18772TIP3    H177807   5.672   5.253  10.421  1.1759 -0.7598 -0.6266
18772TIP3    H277808   5.694   5.260  10.570 -0.0288  0.8323 -0.5033
18773TIP3   OH277809   4.397   0.726  11.946 -0.2009  0.0478 -0.9153
18773TIP3    H177810   4.440   0.810  11.927  0.6808 -0.5223 -1.5204
18773TIP3    H277811   4.332   0.747  12.012  0.8835  0.9851 -0.1083
18774TIP3   OH277812   3.485   0.789  13.352 -0.0405  0.2624  0.2323
18774TIP3    H177813   3.534   0.780  13.270  0.9718  2.7272  0.4608
18774TIP3    H277814   3.416   0.724  13.346  1.1264 -0.9004 -1.7376
18775TIP3   OH277815   4.341   5.916  14.003  0.0711 -0.3531 -0.3760
18775TIP3    H177816   4.368   5.930  14.094  1.2264 -3.3717 -0.1640
18775TIP3    H277817   4.412   5.953  13.951  0.1730 -0.0581 -0.0329
18776TIP3   OH277818   3.033   5.914   0.196 -0.0162 -0.5390  0.2635
18776TIP3    H177819   3.048   5.820   0.193 -0.1046 -0.5357 -0.4512
18776TIP3    H277820   3.086   5.944   0.270  2.4863 -0.7336 -1.3052
18777TIP3   OH277821   2.343   4.731   4.665 -0.1952 -0.2570  0.2591
18777TIP3    H177822   2.411   4.779   4.617 -2.2769  1.3191 -1.2472
18777TIP3    H277823   2.327   4.784   4.743 -0.2678 -0.2246  0.2212
18778TIP3   OH277824   3.668   4.234  15.018  1.1690 -0.4536 -0.5747
18778TIP3    H177825   3.679   4.294  15.092  0.2877 -0.5484 -0.3504
18778TIP3    H277826   3.627   4.156  15.057 -1.0453  0.1982 -1.4358
18779TIP3   OH277827   0.563   2.583  16.505  0.0365 -0.1284  0.6908
18779TIP3    H177828   0.586   2.666  16.463  0.6879  0.4121  2.0478
18779TIP3    H277829   0.617   2.518  16.460  1.7971  0.6465  1.5841
18780TIP3   OH277830   4.006   5.771  13.810 -0.0810 -0.5067  0.0586
18780TIP3    H177831   4.089   5.760  13.764  0.8468  1.5697  1.1261
18780TIP3    H277832   4.021   5.731  13.896 -0.9456 -2.0389 -0.4627
18781TIP3   OH277833   5.892   5.326  11.978 -0.1733  0.4292 -0.4507
18781TIP3    H177834   5.798   5.312  11.980  0.0965 -1.6621  0.4713
18781TIP3    H277835   5.907   5.379  11.900 -1.9509 -0.5728 -1.5343
18782TIP3   OH277836   3.453   5.330   0.408 -0.2672 -0.2384 -0.4000
18782TIP3    H177837   3.507   5.387   0.462  0.9391  0.0505 -1.8204
18782TIP3    H277838   3.472   5.242   0.440  1.3213 -0.1683 -1.0142
18783TIP3   OH277839   4.747   5.544  14.758 -0.4292  0.9574 -1.2030
18783TIP3    H177840   4.778   5.635  14.757 -1.1776  1.2323 -3.1349
18783TIP3    H277841   4.798   5.500  14.691 -1.1340  0.3296 -1.3351
18784TIP3   OH277842   0.711   1.025  14.404  0.2538 -0.5091 -0.6062
18784TIP3    H177843   0.782   0.991  14.348 -0.2780 -4.3921  0.7422
18784TIP3    H277844   0.744   1.013  14.493 -1.9375 -2.2906  0.0508
18785TIP3   OH277845   6.700   3.261  11.212  0.5797  0.6461 -0.3071
18785TIP3    H177846   6.651   3.260  11.130  0.2649  0.7848 -0.1278
18785TIP3    H277847   6.780   3.310  11.192  0.7743  0.1846 -0.6722
18786TIP3   OH277848   2.411   5.870  17.180  0.5655  0.2976 -0.0943
18786TIP3    H177849   2.458   5.877  17.262 -2.2209  0.5093  1.6205
18786TIP3    H277850   2.374   5.782  17.181  1.5494 -0.1930 -1.8191
18787TIP3   OH277851   3.561   5.643   2.982  0.1511  0.0342 -0.7959
18787TIP3    H177852   3.472   5.616   3.006 -0.0381  0.4627 -0.9979
18787TIP3    H277853   3.601   5.564   2.945 -0.2383 -0.0928 -0.9561
18788TIP3   OH277854   5.830   0.003  14.342  0.2434  0.0858 -0.3958
18788TIP3    H177855   5.780  -0.074  14.316  2.4511 -1.2573 -0.9560
18788TIP3    H277856   5.870   0.035  14.261 -0.1743  1.5040 -0.0768
18789TIP3   OH277857   5.189   5.853  13.762 -0.1344 -0.7004  0.0826
18789TIP3    H177858   5.167   5.916  13.831 -0.4608  0.9793 -1.4733
18789TIP3    H277859   5.202   5.770  13.808 -1.2547  0.1477  2.0473
18790TIP3   OH277860   4.564   6.419  13.793  0.0947 -0.0360 -0.3711
18790TIP3    H177861   4.502   6.491  13.790 -0.1795 -0.2645 -0.3285
18790TIP3    H277862   4.560   6.379  13.706 -1.5138 -1.4318  0.2692
18791TIP3   OH277863   1.768   6.537  14.148 -0.4654 -0.1064  0.3564
18791TIP3    H177864   1.716   6.574  14.220 -1.0563  1.1165 -0.6622
18791TIP3    H277865   1.841   6.597  14.138  0.7512 -1.3859  1.2490
18792TIP3   OH277866   2.092   1.402   0.166  0.7425  0.0307  0.2219
18792TIP3    H177867   2.053   1.350   0.096  3.0109  0.2220 -1.2628
18792TIP3    H277868   2.018   1.421   0.225 -1.3058  0.0623 -2.1869
18793TIP3   OH277869   6.159   6.521  16.696 -0.3133 -0.0172  0.5481
18793TIP3    H177870   6.183   6.596  16.750  0.1980 -0.8310  1.4804
18793TIP3    H277871   6.064   6.529  16.687 -0.2026  1.0380  0.1693
18794TIP3   OH277872   2.814   2.981  13.714  0.8404  0.2378 -0.3352
18794TIP3    H177873   2.878   2.970  13.644  0.0843  0.3590 -1.0627
18794TIP3    H277874   2.847   3.056  13.765  0.9743  0.6812 -1.0575
18795TIP3   OH277875   2.749   3.003  11.684 -0.3749 -0.0633  0.3693
18795TIP3    H177876   2.755   2.931  11.622 -0.3159  0.1863  0.0811
18795TIP3    H277877   2.656   3.006  11.708 -0.7933  1.0846 -1.2304
18796TIP3   OH277878   3.935   0.920   2.993  0.1899 -0.2193 -0.3039
18796TIP3    H177879   3.966   1.001   2.953  0.7711 -0.0421  0.4779
18796TIP3    H277880   3.856   0.897   2.943  0.7377  0.1340 -1.3548
18797TIP3   OH277881   5.588   0.766   6.087  0.3963 -0.3328  0.0296
18797TIP3    H177882   5.670   0.747   6.041 -0.1390 -0.4420 -0.9030
18797TIP3    H277883   5.580   0.861   6.082  1.2162 -0.1534  1.4688
18798TIP3   OH277884   6.643   4.255  15.852 -0.1359  0.6398 -0.1493
18798TIP3    H177885   6.709   4.216  15.909 -2.1204  0.4619  2.1798
18798TIP3    H277886   6.654   4.349  15.863 -0.4935  0.6076  0.5640
18799TIP3   OH277887   1.640   0.665   5.716  0.7505 -0.1922  0.7865
18799TIP3    H177888   1.696   0.621   5.780 -2.2290 -3.3376  1.5662
18799TIP3    H277889   1.578   0.715   5.769 -0.4501 -1.1409  0.3161
18800TIP3   OH277890   1.333   6.203  13.391 -0.1253 -0.5307 -0.1463
18800TIP3    H177891   1.370   6.278  13.438 -0.2635 -0.6675  0.1805
18800TIP3    H277892   1.290   6.241  13.315  0.5961 -0.3559 -0.4734
18801TIP3   OH277893   2.798   0.321  12.240 -0.7638  0.2470  0.4466
18801TIP3    H177894   2.764   0.232  12.226  1.4133 -0.8891  1.7739
18801TIP3    H277895   2.882   0.307  12.284  0.5673  2.9077 -1.0187
18802TIP3   OH277896   1.891   4.805   0.498 -0.1005  0.4165 -0.1924
18802TIP3    H177897   1.805   4.763   0.506 -1.0169  2.2927  0.4360
18802TIP3    H277898   1.906   4.847   0.583  2.2765 -1.2659  0.3236
18803TIP3   OH277899   2.469   0.631  17.114 -0.1393 -0.0152  0.2881
18803TIP3    H177900   2.379   0.603  17.129 -0.2693 -0.3966 -1.0332
18803TIP3    H277901   2.479   0.712  17.165 -1.4315  0.3740 -0.0472
18804TIP3   OH277902   6.786   4.476  14.232  0.3641  0.0098 -0.3959
18804TIP3    H177903   6.725   4.436  14.293 -0.2037 -0.0062 -0.9692
18804TIP3    H277904   6.870   4.477  14.278 -0.1189  0.2499  0.4858
18805TIP3   OH277905   2.409   0.015  13.826 -0.2749 -0.4465  0.1072
18805TIP3    H177906   2.426  -0.076  13.802  0.4007 -0.5821  1.0500
18805TIP3    H277907   2.334   0.040  13.773 -0.4743 -1.5578 -0.1596
18806TIP3   OH277908   1.377   2.557  12.273 -0.2256  0.0337 -0.9134
18806TIP3    H177909   1.385   2.621  12.343  1.0245 -1.4468  0.3805
18806TIP3    H277910   1.346   2.478  12.316  1.2176 -1.1107 -1.8739
18807TIP3   OH277911   4.562   4.114  12.105 -0.4800  0.4407  0.9244
18807TIP3    H177912   4.482   4.103  12.157 -0.2680 -1.0826  0.9628
18807TIP3    H277913   4.612   4.035  12.121 -0.0465  0.2819 -0.9981
18808TIP3   OH277914   3.982   3.439   5.262  0.0490 -0.1076 -0.0748
18808TIP3    H177915   3.993   3.389   5.181  0.2932 -0.8297  0.3905
18808TIP3    H277916   3.908   3.396   5.306  0.7989 -0.6136  0.7234
18809TIP3   OH277917   6.333   6.440  14.746  0.4638  0.9365  0.2553
18809TIP3    H177918   6.286   6.413  14.667 -1.2452  1.9358  0.8708
18809TIP3    H277919   6.314   6.371  14.810 -1.6937  2.1207  1.0153
18810TIP3   OH277920   3.366   1.071   1.599 -0.7748 -0.5200  0.1956
18810TIP3    H177921   3.296   1.029   1.550 -0.2120  0.4636 -1.5187
18810TIP3    H277922   3.440   1.011   1.593 -0.5719 -0.2053 -0.5713
18811TIP3   OH277923   6.193   5.234   3.959 -0.1141  0.2344 -0.2026
18811TIP3    H177924   6.119   5.218   4.017  0.8833  0.4582  1.1715
18811TIP3    H277925   6.243   5.152   3.961 -0.2157  0.1444 -0.9883
18812TIP3   OH277926   2.730   0.951  12.159 -0.1589 -0.1705  0.3568
18812TIP3    H177927   2.701   0.922  12.072 -0.8631 -0.1741  0.5846
18812TIP3    H277928   2.666   0.913  12.219  0.6399 -0.6304  0.9353
18813TIP3   OH277929   3.392   1.490   0.670  0.7785 -0.8975  0.0632
18813TIP3    H177930   3.301   1.516   0.663  0.0930 -3.0597  0.4081
18813TIP3    H277931   3.425   1.495   0.581  0.1257 -0.8136 -0.1775
18814TIP3   OH277932   4.450   5.659   4.050 -0.1381  0.0352 -0.0842
18814TIP3    H177933   4.482   5.620   4.132 -0.0765 -1.0665 -0.6045
18814TIP3    H277934   4.367   5.699   4.072  0.3091  0.5502  0.7101
18815TIP3   OH277935   3.634   0.788   5.676 -0.8886 -0.1291  0.8469
18815TIP3    H177936   3.603   0.700   5.658  2.4783 -1.4360  0.7551
18815TIP3    H277937   3.659   0.787   5.769  0.2630  0.3153  0.5617
18816TIP3   OH277938   1.278   4.864  13.287  0.2605  0.0098  0.2184
18816TIP3    H177939   1.232   4.940  13.252  0.0121 -0.0073  0.5040
18816TIP3    H277940   1.352   4.900  13.335 -0.0755  0.0987  0.6840
18817TIP3   OH277941   1.461   2.422   4.233 -0.1337 -0.3563  0.0081
18817TIP3    H177942   1.385   2.464   4.273 -0.3492  0.6128 -1.3647
18817TIP3    H277943   1.432   2.400   4.144  1.3114  0.4017 -0.6758
18818TIP3   OH277944   6.030   0.200   4.728  0.4145  0.5813 -0.6704
18818TIP3    H177945   5.951   0.174   4.776  1.2531  1.0931  1.0774
18818TIP3    H277946   6.018   0.163   4.641 -0.9317 -0.9084  0.0778
18819TIP3   OH277947   1.291   1.334  10.309 -0.0401  0.5154  0.2832
18819TIP3    H177948   1.284   1.293  10.395 -0.6037  0.0022  0.0058
18819TIP3    H277949   1.350   1.277  10.260 -2.4114 -1.1912 -0.7577
18820TIP3   OH277950   2.633   5.620  14.995 -0.0308  0.2669  0.8804
18820TIP3    H177951   2.627   5.561  15.070 -0.1389  1.6307  1.9851
18820TIP3    H277952   2.671   5.700  15.030 -0.0431  0.9352 -0.5433
18821TIP3   OH277953   1.792   4.566  14.220  0.5474 -0.3699 -0.1846
18821TIP3    H177954   1.839   4.486  14.243  1.4487  0.3262  0.4562
18821TIP3    H277955   1.773   4.556  14.126  1.6390 -0.8461 -0.3732
18822TIP3   OH277956   2.340   4.028   1.118  0.1245  0.4504  0.3653
18822TIP3    H177957   2.379   4.088   1.054  0.0059 -1.1576 -1.2998
18822TIP3    H277958   2.252   4.062   1.133 -0.5512 -0.1401 -1.8344
18823TIP3   OH277959   6.673   5.566   1.227 -0.2894  0.0506  0.0987
18823TIP3    H177960   6.660   5.624   1.152  1.7810 -1.2924 -1.3832
18823TIP3    H277961   6.700   5.624   1.298  0.4721  1.0607 -0.9867
18824TIP3   OH277962   6.237   6.780   3.013  0.0602  0.4103 -0.0734
18824TIP3    H177963   6.295   6.762   3.088  0.3682 -1.0619 -0.6374
18824TIP3    H277964   6.296   6.784   2.938 -0.4569 -0.0756 -0.5113
18825TIP3   OH277965   5.441   4.405   1.396  0.0340  0.4001 -0.0360
18825TIP3    H177966   5.404   4.450   1.320 -0.0331  1.0691  0.3843
18825TIP3    H277967   5.482   4.474   1.447  1.6342 -0.2913 -0.3490
18826TIP3   OH277968   0.126   0.554   1.396  0.1390  0.0297 -0.3616
18826TIP3    H177969   0.047   0.582   1.442 -0.1376 -0.2017 -0.6897
18826TIP3    H277970   0.137   0.462   1.421  1.0909  0.4230  0.7817
18827TIP3   OH277971   6.528   4.134   5.658  0.4162  0.1643 -0.6018
18827TIP3    H177972   6.479   4.200   5.707  1.5752  1.2291 -0.8166
18827TIP3    H277973   6.479   4.122   5.577  0.5294  1.2793 -0.8484
18828TIP3   OH277974   1.044   6.705  11.982 -0.7786  0.7264 -0.4016
18828TIP3    H177975   1.095   6.753  12.047 -1.1476  0.7222 -0.1008
18828TIP3    H277976   1.006   6.772  11.926 -0.8803  0.7595 -0.2939
18829TIP3   OH277977   0.846   6.347   2.387  0.5854 -0.3452  0.3738
18829TIP3    H177978   0.920   6.340   2.326  0.7077  0.2134  0.4490
18829TIP3    H277979   0.847   6.265   2.435  0.5861 -0.7222 -0.2689
18830TIP3   OH277980   5.384   3.357   5.386  0.3876  0.1733 -0.5264
18830TIP3    H177981   5.428   3.272   5.392  1.3228  0.6467 -0.4588
18830TIP3    H277982   5.374   3.386   5.477 -0.2455 -0.0065 -0.5295
18831TIP3   OH277983   3.867   2.850  17.275 -0.6837  0.2935 -0.6485
18831TIP3    H177984   3.801   2.835  17.206 -0.1079 -1.1583 -0.9252
18831TIP3    H277985   3.817   2.845  17.356 -0.7633 -2.4425 -0.7521
18832TIP3   OH277986   1.591   3.528  14.685  0.3279  0.1878 -0.2981
18832TIP3    H177987   1.566   3.577  14.763  0.1025 -0.2890 -0.0652
18832TIP3    H277988   1.548   3.573  14.612 -0.1918  0.1109 -0.0424
18833TIP3   OH277989   2.999   5.382   2.337 -0.0657 -0.6308  0.6095
18833TIP3    H177990   2.926   5.346   2.387  0.2297  1.5119  2.7525
18833TIP3    H277991   2.963   5.396   2.249 -2.2021  0.1808  1.5380
18834TIP3   OH277992   5.980   6.658  14.066 -0.3686 -0.0192 -0.3077
18834TIP3    H177993   6.034   6.579  14.068 -0.3881 -0.0368  1.4540
18834TIP3    H277994   6.041   6.729  14.083 -0.6916  0.0891  0.4409
18835TIP3   OH277995   6.673   5.838  14.806 -0.4809 -0.0591 -0.2631
18835TIP3    H177996   6.639   5.925  14.824 -0.7710 -0.1947 -0.1461
18835TIP3    H277997   6.644   5.784  14.880 -0.2708 -0.2449 -0.3140
18836TIP3   OH277998   1.967   0.840   6.084 -0.5849  0.0477  0.0495
18836TIP3    H177999   1.878   0.871   6.067 -0.5149  0.1675 -0.0973
18836TIP3    H278000   1.963   0.805   6.173 -1.3238 -1.8505 -0.6567
18837TIP3   OH278001   2.235   3.546   3.891  0.2497 -0.1245 -0.6152
18837TIP3    H178002   2.226   3.581   3.980  0.1154  0.9444 -1.0363
18837TIP3    H278003   2.317   3.497   3.892  0.2297 -0.1471  0.1038
18838TIP3   OH278004   0.313   5.166   3.039  0.4015 -0.2562 -0.4489
18838TIP3    H178005   0.230   5.202   3.009 -0.8854 -2.4405  0.2317
18838TIP3    H278006   0.368   5.164   2.961 -0.0507  1.4721 -0.8594
18839TIP3   OH278007   3.620   4.436  12.974  0.2277 -0.0468  0.4977
18839TIP3    H178008   3.641   4.493  13.047  1.4623  1.7637 -1.1544
18839TIP3    H278009   3.654   4.482  12.897 -1.6271 -1.5080 -1.3185
18840TIP3   OH278010   6.461   6.307  11.760  0.2951 -0.2983  0.0850
18840TIP3    H178011   6.447   6.237  11.824 -0.5681  0.1004  0.3467
18840TIP3    H278012   6.452   6.387  11.811  0.7833  0.0151 -0.3114
18841TIP3   OH278013   5.885   3.632   1.451 -0.3808 -0.3142 -0.5993
18841TIP3    H178014   5.792   3.648   1.435 -0.8711 -0.3407  1.8309
18841TIP3    H278015   5.890   3.540   1.476  0.0310  0.0695  0.8071
18842TIP3   OH278016   4.167   4.491  13.963  0.2187 -0.4915  0.3428
18842TIP3    H178017   4.199   4.580  13.982 -1.3510  0.2295 -0.2527
18842TIP3    H278018   4.207   4.469  13.879 -1.0455  0.5499 -0.5787
18843TIP3   OH278019   2.437   4.349  16.259 -0.0226  0.5127 -0.5391
18843TIP3    H178020   2.399   4.437  16.268  0.3245  0.7734 -1.5198
18843TIP3    H278021   2.365   4.289  16.276 -0.3672  0.9899 -0.3080
18844TIP3   OH278022   0.477   1.733  11.048  0.5024 -0.3234 -0.1659
18844TIP3    H178023   0.424   1.760  10.973  1.5009 -1.9896 -1.5435
18844TIP3    H278024   0.562   1.775  11.034  0.7860 -0.8743 -0.1599
18845TIP3   OH278025   5.638   5.577  11.553  0.4718 -0.5782  0.3639
18845TIP3    H178026   5.731   5.599  11.548  0.6848 -1.4816  0.2378
18845TIP3    H278027   5.594   5.650  11.509  1.0097  0.4834  1.5332
18846TIP3   OH278028   5.439   4.107   1.003  0.1868  0.0723 -0.2887
18846TIP3    H178029   5.344   4.114   1.009  0.0776 -0.4200 -1.3053
18846TIP3    H278030   5.455   4.013   0.990  0.8207  0.1372 -0.0278
18847TIP3   OH278031   1.890   5.601  13.933  0.0322 -0.5207 -0.7532
18847TIP3    H178032   1.931   5.627  13.850  0.2351 -0.5988 -0.6794
18847TIP3    H278033   1.797   5.616  13.920 -0.3724 -3.5633 -2.1594
18848TIP3   OH278034   0.090   6.495  13.510  0.0556 -0.3813 -0.6478
18848TIP3    H178035   0.054   6.408  13.528  0.1058 -0.4421 -0.8381
18848TIP3    H278036   0.034   6.554  13.561 -0.7512 -0.4101 -1.4724
18849TIP3   OH278037   1.201   0.886   3.663  0.6704 -0.8110 -0.5326
18849TIP3    H178038   1.199   0.969   3.615 -1.4258 -0.9068 -0.7172
18849TIP3    H278039   1.287   0.884   3.704  1.3269  0.7582 -1.7185
18850TIP3   OH278040   2.606   3.989   3.599  0.3867  0.1670  0.0271
18850TIP3    H178041   2.567   3.933   3.667 -0.4792 -1.8109 -1.9622
18850TIP3    H278042   2.635   3.928   3.532  5.4132  1.6639  0.4877
18851TIP3   OH278043   5.148   1.379   2.675 -0.1897  0.3031  0.5217
18851TIP3    H178044   5.210   1.385   2.748 -0.9432  1.2918  1.1017
18851TIP3    H278045   5.066   1.416   2.709 -0.8745 -0.2205 -0.4852
18852TIP3   OH278046   0.791   3.316  15.127  0.5204 -0.4638 -0.1660
18852TIP3    H178047   0.777   3.409  15.110  1.0393 -0.2411  0.6090
18852TIP3    H278048   0.871   3.295  15.080 -0.9610 -1.1655 -2.5500
18853TIP3   OH278049   0.307   4.736  16.983  0.3012 -0.3135 -0.1834
18853TIP3    H178050   0.325   4.828  17.001 -0.7238 -0.3629  1.2188
18853TIP3    H278051   0.235   4.713  17.041 -0.7155 -1.5313 -1.8268
18854TIP3   OH278052   5.686   1.565   2.860  0.6053 -0.5173 -0.1288
18854TIP3    H178053   5.721   1.489   2.813  2.1932  0.8170 -1.1998
18854TIP3    H278054   5.762   1.621   2.875 -0.7456  1.5168 -0.6068
18855TIP3   OH278055   5.003   0.043  13.279 -0.4376  0.6457  0.8406
18855TIP3    H178056   5.050  -0.018  13.335  1.7864  1.2704 -0.2357
18855TIP3    H278057   4.939   0.085  13.337  0.0262 -0.5478  2.2618
18856TIP3   OH278058   3.686   1.604  12.970  0.1030 -0.4610 -0.1165
18856TIP3    H178059   3.755   1.668  12.987  2.1418 -2.7211  0.6862
18856TIP3    H278060   3.654   1.627  12.882  0.1854  2.0408  0.4209
18857TIP3   OH278061   0.406   0.509  14.016  0.0800  0.3559  0.3741
18857TIP3    H178062   0.331   0.461  13.981  1.2920 -0.2245 -1.5893
18857TIP3    H278063   0.403   0.594  13.973 -0.5646  1.1266  1.8564
18858TIP3   OH278064   3.929   1.805   1.182 -0.0458 -0.0450 -0.2133
18858TIP3    H178065   3.879   1.881   1.210  1.5870  1.3277 -0.8659
18858TIP3    H278066   3.880   1.771   1.107 -0.2914  0.9735 -0.5337
18859TIP3   OH278067   4.197   2.873  12.721  0.3785  0.1352  0.1110
18859TIP3    H178068   4.275   2.826  12.691  0.3870 -0.0850  0.4837
18859TIP3    H278069   4.227   2.927  12.794 -0.2097 -1.4351  1.5563
18860TIP3   OH278070   1.851   2.538   4.799  0.2255 -0.3376  0.0478
18860TIP3    H178071   1.917   2.528   4.868  0.4892 -1.4263 -0.3485
18860TIP3    H278072   1.902   2.542   4.718 -0.0752  1.0587 -0.1011
18861TIP3   OH278073   4.233   2.383   0.748  0.0128  0.3017 -0.0251
18861TIP3    H178074   4.270   2.331   0.820 -1.6125  0.3660  0.9082
18861TIP3    H278075   4.229   2.472   0.783  1.9132  0.9457 -1.2828
18862TIP3   OH278076   4.902   3.588  14.364 -0.1870 -0.1640  0.5060
18862TIP3    H178077   4.925   3.681  14.369 -0.9697  0.1014 -0.4736
18862TIP3    H278078   4.824   3.580  14.420  0.2511 -0.3683  1.0965
18863TIP3   OH278079   0.060   3.390  16.178  0.3396  0.6087 -0.3260
18863TIP3    H178080   0.051   3.472  16.226 -0.0551  0.2171  0.2934
18863TIP3    H278081   0.003   3.399  16.102 -0.0665  0.7311 -0.0110
18864TIP3   OH278082   3.112   3.182  15.430  0.2087 -0.5184 -0.4039
18864TIP3    H178083   3.205   3.204  15.438 -0.3121  2.2058 -0.8434
18864TIP3    H278084   3.066   3.261  15.456 -2.0117 -1.6718 -0.5740
18865TIP3   OH278085   4.338   1.630  16.431  0.3377  0.0269  0.1222
18865TIP3    H178086   4.328   1.619  16.336  1.0831  1.6796 -0.1815
18865TIP3    H278087   4.250   1.618  16.466 -0.0016 -0.3150 -0.8118
18866TIP3   OH278088   1.257   6.269   2.758 -0.3380 -0.6065 -0.0684
18866TIP3    H178089   1.301   6.348   2.789  0.3470 -1.1250  0.2925
18866TIP3    H278090   1.325   6.202   2.757 -0.9354 -1.2186 -0.2735
18867TIP3   OH278091   1.587   5.244   1.824 -0.7943  0.1171 -0.3392
18867TIP3    H178092   1.622   5.331   1.805  1.1942 -0.5628  0.0473
18867TIP3    H278093   1.648   5.206   1.887 -0.5231 -2.2713 -1.9126
18868TIP3   OH278094   5.204   4.274  11.882 -0.7313 -0.2214  0.6167
18868TIP3    H178095   5.131   4.322  11.923 -1.7418 -2.2929  1.3835
18868TIP3    H278096   5.167   4.188  11.861  0.8753 -0.5439 -1.1332
18869TIP3   OH278097   6.454   5.956  12.949 -0.3897  0.4714  0.4545
18869TIP3    H178098   6.379   5.989  12.900 -1.3119  0.2709  1.6924
18869TIP3    H278099   6.498   6.034  12.982 -0.3430  0.5715  0.1625
18870TIP3   OH278100   3.551   3.800   4.779  0.1882  0.3522 -0.7639
18870TIP3    H178101   3.521   3.756   4.699 -1.4334  1.2267 -0.6752
18870TIP3    H278102   3.637   3.762   4.796 -0.1840 -1.1153 -1.9456
18871TIP3   OH278103   3.919   5.791   3.226  0.5247  0.3133 -0.0747
18871TIP3    H178104   3.954   5.734   3.295 -0.0452 -0.6992 -0.6121
18871TIP3    H278105   3.824   5.787   3.237  0.4649  3.0853  1.4050
18872TIP3   OH278106   2.389   3.162   1.544  0.3736 -0.0664  0.3270
18872TIP3    H178107   2.338   3.141   1.623 -0.8288  0.1200 -0.3665
18872TIP3    H278108   2.418   3.252   1.558 -1.6858  0.7670 -0.3287
18873TIP3   OH278109   4.723   4.974  14.305  0.3553 -0.1012  0.5534
18873TIP3    H178110   4.711   4.880  14.318  1.2649 -0.3757 -0.4173
18873TIP3    H278111   4.796   4.996  14.362  0.0698  0.0433  0.8650
18874TIP3   OH278112   0.118   4.739  12.965  0.0224  0.9079  0.3028
18874TIP3    H178113   0.060   4.677  12.921  1.4265 -0.9586  0.9037
18874TIP3    H278114   0.194   4.747  12.907  0.3765  1.1258  0.7876
18875TIP3   OH278115   5.873   5.529  15.768  0.1492  0.5946 -0.0889
18875TIP3    H178116   5.921   5.470  15.709  0.5712 -0.2426  1.0624
18875TIP3    H278117   5.827   5.588  15.709  0.5894 -0.1926 -1.2712
18876TIP3   OH278118   2.919   5.513   5.024  1.0278 -0.0550 -0.1337
18876TIP3    H178119   2.863   5.464   4.964  0.6927  1.0664 -0.7624
18876TIP3    H278120   3.007   5.502   4.989  0.8654  0.3801 -0.6922
18877TIP3   OH278121   3.419   0.233   4.825  0.5431  0.3648  0.0107
18877TIP3    H178122   3.385   0.178   4.896 -1.0616  1.9697  0.5683
18877TIP3    H278123   3.414   0.322   4.860 -2.0062  1.4263 -2.6472
18878TIP3   OH278124   3.132   3.915   3.994  0.6038  0.0961 -0.3331
18878TIP3    H178125   3.142   3.921   4.089 -0.4002  0.8835 -0.2482
18878TIP3    H278126   3.061   3.852   3.981  1.3834 -0.7357 -0.6113
18879TIP3   OH278127   2.473   5.575  12.328 -0.1267 -0.1443 -0.4904
18879TIP3    H178128   2.540   5.576  12.396  0.0450 -0.6057 -0.6507
18879TIP3    H278129   2.520   5.547  12.249 -0.4625 -0.2487 -0.6529
18880TIP3   OH278130   1.035   1.971   3.492 -0.3267  0.1154 -0.2573
18880TIP3    H178131   1.129   1.985   3.506 -0.1720  0.4909 -1.5138
18880TIP3    H278132   0.993   2.017   3.565  0.4648 -0.3651  0.5224
18881TIP3   OH278133   0.928   0.847   1.487 -0.2565 -0.2983  0.7469
18881TIP3    H178134   0.861   0.812   1.428 -0.5039 -1.2820  1.5652
18881TIP3    H278135   0.920   0.792   1.566  1.3652 -0.2970  0.9395
18882TIP3   OH278136   2.181   2.034  15.236  0.0340  0.2166  0.2430
18882TIP3    H178137   2.134   1.958  15.202 -0.6110  0.9439 -0.5568
18882TIP3    H278138   2.229   2.001  15.311 -0.7112 -0.8496  0.2766
18883TIP3   OH278139   1.196   4.511  15.977  0.1268 -0.0471 -0.5429
18883TIP3    H178140   1.132   4.553  16.035  2.1822  2.1418  0.3303
18883TIP3    H278141   1.281   4.529  16.018  1.5419 -0.0542 -3.2341
18884TIP3   OH278142   3.120   1.679  14.279 -0.4850  0.2042 -0.2047
18884TIP3    H178143   3.158   1.728  14.206  0.8447 -0.9510 -0.3259
18884TIP3    H278144   3.110   1.590  14.245  0.8600 -0.5334  1.2114
18885TIP3   OH278145   0.114   6.213  10.880 -0.2030 -0.3549  0.2467
18885TIP3    H178146   0.191   6.158  10.865  0.1247  0.3482 -0.7525
18885TIP3    H278147   0.145   6.303  10.866 -1.2425 -0.0761 -0.3827
18886TIP3   OH278148   3.475   5.208   3.620 -0.1902 -1.2140 -0.5007
18886TIP3    H178149   3.478   5.204   3.715  0.5283 -1.9928 -0.5454
18886TIP3    H278150   3.425   5.131   3.593 -4.8480  1.4504 -0.6288
18887TIP3   OH278151   4.684   0.751   3.571 -0.1742 -0.4547 -0.3892
18887TIP3    H178152   4.721   0.821   3.517  0.7827 -1.5833 -1.2298
18887TIP3    H278153   4.626   0.703   3.512 -0.9122 -0.3133  0.2130
18888TIP3   OH278154   5.657   0.878   0.886 -0.3354 -0.3671 -0.3557
18888TIP3    H178155   5.658   0.923   0.971  1.9623 -0.4946 -0.2374
18888TIP3    H278156   5.628   0.945   0.824 -0.8702  0.0776  0.3567
18889TIP3   OH278157   1.445   1.036   2.940  0.0236  0.3328 -0.1633
18889TIP3    H178158   1.428   1.128   2.921 -1.7590 -0.2236 -1.5316
18889TIP3    H278159   1.379   1.013   3.005 -1.6858 -0.7319 -2.1785
18890TIP3   OH278160   0.082   5.544  10.976  0.4330 -0.7837  0.6248
18890TIP3    H178161   0.035   5.470  10.939 -0.8492  0.0759  0.4756
18890TIP3    H278162   0.111   5.594  10.899 -0.2902 -0.1829  0.7325
18891TIP3   OH278163   5.636   1.367   4.371 -0.0914 -0.1877 -0.9374
18891TIP3    H178164   5.571   1.437   4.372 -0.1172 -0.2129  0.4505
18891TIP3    H278165   5.584   1.286   4.368 -0.2451 -0.2696  1.6515
18892TIP3   OH278166   1.281   0.269  15.763  0.2997 -0.2263 -0.1013
18892TIP3    H178167   1.372   0.298  15.751  1.2722 -2.8286  0.1833
18892TIP3    H278168   1.233   0.311  15.693  1.7892  0.9877 -0.4584
18893TIP3   OH278169   3.886   3.294   2.878 -0.1281  0.2804  0.2752
18893TIP3    H178170   3.945   3.331   2.812 -1.2273  1.8789  0.1187
18893TIP3    H278171   3.878   3.202   2.854  0.6660  0.4948 -0.9185
18894TIP3   OH278172   5.058   6.420   1.910  0.2460 -0.5848  0.5066
18894TIP3    H178173   5.076   6.335   1.948 -0.3801 -0.5383  0.9282
18894TIP3    H278174   5.042   6.478   1.985 -2.3058 -0.7899  0.2183
18895TIP3   OH278175   3.659   1.569  14.851 -0.6045  0.2184 -0.0275
18895TIP3    H178176   3.631   1.538  14.937  0.1522  0.4264  0.3020
18895TIP3    H278177   3.740   1.617  14.868 -0.8523  0.9142 -0.7589
18896TIP3   OH278178   0.751   2.248   2.772 -0.3705  0.0437  0.2116
18896TIP3    H178179   0.773   2.239   2.864 -1.0232 -0.7064  0.3070
18896TIP3    H278180   0.756   2.342   2.755 -0.0895  0.1718  0.9703
18897TIP3   OH278181   5.268   2.092  16.858  0.0890  0.2880 -0.0350
18897TIP3    H178182   5.257   2.070  16.766 -0.1662 -0.6644  0.2130
18897TIP3    H278183   5.342   2.038  16.887  0.7929  1.2806  0.0967
18898TIP3   OH278184   5.710   0.915   2.361  0.3138  0.1087  0.1918
18898TIP3    H178185   5.776   0.850   2.336  0.9717  0.1203  1.7610
18898TIP3    H278186   5.723   0.987   2.300  0.4826 -0.6572 -0.7056
18899TIP3   OH278187   1.294   6.039   1.037 -0.6757  0.6372 -0.1443
18899TIP3    H178188   1.234   6.043   0.962 -1.6874  0.3864  0.6281
18899TIP3    H278189   1.239   6.007   1.109  0.8017 -1.4075  0.1528
18900TIP3   OH278190   3.130   1.947   4.832 -0.4131  0.4172  0.4298
18900TIP3    H178191   3.137   2.032   4.875  1.0733  0.6522 -0.2203
18900TIP3    H278192   3.218   1.909   4.838 -0.4953 -0.1355 -1.1622
18901TIP3   OH278193   2.119   3.996   1.499  0.0953  0.9088  0.4043
18901TIP3    H178194   2.095   3.926   1.438  0.0441 -0.8440  2.2892
18901TIP3    H278195   2.073   4.073   1.467  0.4707  0.2047 -2.0036
18902TIP3   OH278196   1.240   3.090  12.987  0.3764 -0.4564  0.0079
18902TIP3    H178197   1.291   3.017  13.022 -0.1469 -0.1973  1.3889
18902TIP3    H278198   1.166   3.098  13.047  1.9228  3.0926  1.8001
18903TIP3   OH278199   3.230   3.942   2.762  0.0918 -0.3114  0.1180
18903TIP3    H178200   3.290   3.980   2.698 -1.6143 -0.2466 -1.5082
18903TIP3    H278201   3.169   4.013   2.784 -0.9896 -1.0959 -0.2784
18904TIP3   OH278202   5.348   6.138  16.912 -0.3753 -0.3844  0.1570
18904TIP3    H178203   5.261   6.143  16.873  0.4478 -0.3687 -1.8373
18904TIP3    H278204   5.408   6.147  16.837  1.3376 -1.9442  1.2385
18905TIP3   OH278205   1.939   2.508  15.698  0.2022  0.0058 -0.7966
18905TIP3    H178206   2.011   2.571  15.698  1.0072 -0.8932 -1.0467
18905TIP3    H278207   1.894   2.525  15.615  1.2278 -0.6324 -1.5051
18906TIP3   OH278208   4.345   2.938   3.885  0.7754 -0.2633 -0.3354
18906TIP3    H178209   4.414   2.948   3.951 -0.5222 -0.2407  1.0722
18906TIP3    H278210   4.335   2.843   3.875 -0.0794 -0.2972  0.6846
18907TIP3   OH278211   1.818   2.440   1.419 -0.4034 -0.0685 -0.3602
18907TIP3    H178212   1.742   2.399   1.461 -1.3636  2.2601  0.3486
18907TIP3    H278213   1.829   2.392   1.337 -4.8941  1.6099 -2.2451
18908TIP3   OH278214   3.633   0.179   5.809  0.4427  0.3388 -0.0212
18908TIP3    H178215   3.647   0.096   5.854 -3.2914 -0.2618  0.3420
18908TIP3    H278216   3.649   0.160   5.717  0.4827 -0.5439  0.1638
18909TIP3   OH278217   4.181   1.674   2.173 -0.4017  0.1925 -0.2844
18909TIP3    H178218   4.260   1.656   2.225 -1.0533 -1.1443  0.2944
18909TIP3    H278219   4.208   1.657   2.082  0.1356  0.3415 -0.1573
18910TIP3   OH278220   5.654   0.009   1.383 -0.3835  0.0934  0.0906
18910TIP3    H178221   5.589   0.053   1.438 -1.5919  0.1823 -1.3285
18910TIP3    H278222   5.605  -0.018   1.305  0.0461 -4.3415  1.0561
18911TIP3   OH278223   4.990   4.815   4.201  0.0357 -0.2408 -0.1046
18911TIP3    H178224   5.008   4.830   4.294  1.9342 -1.1584 -0.2898
18911TIP3    H278225   4.945   4.895   4.173  0.2590  0.4488  1.3810
18912TIP3   OH278226   5.480   1.099   4.328 -0.1940 -0.3107  0.1978
18912TIP3    H178227   5.537   1.029   4.297 -0.6287 -0.6941  0.2497
18912TIP3    H278228   5.396   1.055   4.345 -1.4907  0.7227 -2.7756
18913TIP3   OH278229   1.266   4.896   0.562 -0.0990  0.0186  0.0256
18913TIP3    H178230   1.262   4.885   0.657  0.2705  0.6954  0.1231
18913TIP3    H278231   1.265   4.991   0.548  0.6576 -0.0571 -0.6034
18914TIP3   OH278232   1.280   4.636  12.087  0.3387  0.0603  0.2000
18914TIP3    H178233   1.311   4.661  12.000 -0.5560  0.3101 -0.0559
18914TIP3    H278234   1.255   4.544  12.079  0.0164  0.1522  0.1167
18915TIP3   OH278235   5.602   5.733  12.721 -0.1675 -0.3181 -0.0308
18915TIP3    H178236   5.520   5.690  12.696  0.2790 -1.2818  0.1120
18915TIP3    H278237   5.670   5.674  12.689  0.4583 -0.0613  0.7961
18916TIP3   OH278238   2.810   3.447   4.722  0.2576 -0.9051 -0.6279
18916TIP3    H178239   2.893   3.481   4.754 -0.2961 -1.5648  1.7388
18916TIP3    H278240   2.814   3.353   4.740 -1.1630 -0.8700 -0.0066
18917TIP3   OH278241   4.228   4.313   0.181  0.3981 -0.5048  0.5274
18917TIP3    H178242   4.260   4.379   0.119 -2.9716  1.9733  1.1403
18917TIP3    H278243   4.167   4.260   0.130  0.8376 -1.2536  0.7631
18918TIP3   OH278244   4.963   1.692   4.497 -0.0469  1.0182  0.2390
18918TIP3    H178245   5.040   1.638   4.519 -1.8090 -1.6450  0.3378
18918TIP3    H278246   4.966   1.700   4.402  0.2350  0.7732  0.2246
18919TIP3   OH278247   6.807   0.744   3.233  0.1577 -0.4012  0.0214
18919TIP3    H178248   6.881   0.746   3.294  0.8558 -1.3570 -0.7575
18919TIP3    H278249   6.730   0.736   3.290  0.5929  0.9973  0.8616
18920TIP3   OH278250   3.372   0.897  16.196  0.5609 -0.1134 -0.3565
18920TIP3    H178251   3.466   0.912  16.184 -0.0149  2.6115 -2.4879
18920TIP3    H278252   3.351   0.939  16.279  1.1945 -0.8390  0.1882
18921TIP3   OH278253   6.404   0.033  15.620  0.5919 -0.1202 -0.0574
18921TIP3    H178254   6.428   0.063  15.532 -1.7223  1.3599 -0.2616
18921TIP3    H278255   6.422  -0.061  15.619 -1.7071 -0.6503 -3.0247
18922TIP3   OH278256   6.206   2.543  12.258 -0.1418  0.0063  0.3235
18922TIP3    H178257   6.140   2.610  12.279 -1.1813 -1.3637  1.6932
18922TIP3    H278258   6.255   2.532  12.340  3.5724  2.7250 -1.2600
18923TIP3   OH278259   6.417   1.623   2.978 -0.2338 -0.0515 -0.1564
18923TIP3    H178260   6.454   1.536   2.964 -1.9595 -0.8415 -0.1731
18923TIP3    H278261   6.430   1.669   2.895  1.2143 -0.0677  0.0461
18924TIP3   OH278262   4.414   0.694   0.061 -0.2148 -0.1929  0.0644
18924TIP3    H178263   4.373   0.674   0.145 -0.0066 -2.2216 -0.2630
18924TIP3    H278264   4.430   0.608   0.021  1.3432  0.6554 -1.2599
18925TIP3   OH278265   0.237   2.502  16.510 -0.0697  0.1776  0.5858
18925TIP3    H178266   0.226   2.458  16.426 -0.6802  0.6814  0.3946
18925TIP3    H278267   0.257   2.593  16.488  1.3506 -0.0247  0.9810
18926TIP3   OH278268   5.906   6.446   6.143  0.2966 -0.4087  0.3714
18926TIP3    H178269   5.927   6.495   6.064 -3.6216  0.3389 -0.3993
18926TIP3    H278270   5.919   6.355   6.119 -0.1097 -0.1505 -0.9022
18927TIP3   OH278271   6.343   4.855  14.558  0.2810 -0.0048  0.1821
18927TIP3    H178272   6.374   4.861  14.648  0.3151  0.9243  0.1121
18927TIP3    H278273   6.357   4.942  14.521  2.1119 -0.8575 -1.3382
18928TIP3   OH278274   3.797   0.604   6.240  0.3492  0.2705  0.6687
18928TIP3    H178275   3.805   0.698   6.254  2.4677  0.4604 -1.3462
18928TIP3    H278276   3.877   0.567   6.277 -0.1851 -0.7057  0.9073
18929TIP3   OH278277   4.778   0.054   5.953  0.0134  0.3335  0.0647
18929TIP3    H178278   4.758   0.063   6.046  0.7723 -1.4246  0.4333
18929TIP3    H278279   4.861   0.101   5.942 -0.2865  0.9006  0.1699
18930TIP3   OH278280   3.907   5.179   1.165  0.4237  0.0159 -0.1038
18930TIP3    H178281   3.979   5.241   1.175  0.2353  0.5531 -1.6852
18930TIP3    H278282   3.868   5.172   1.252  0.7944  1.7129  0.2372
18931TIP3   OH278283   2.732   6.472  12.659  0.1551  0.9011 -0.0062
18931TIP3    H178284   2.690   6.537  12.715 -0.7994  0.3860 -0.0937
18931TIP3    H278285   2.724   6.507  12.570 -1.3311  0.2022 -0.1808
18932TIP3   OH278286   5.189   4.691   3.577 -0.1898 -0.2040 -0.5873
18932TIP3    H178287   5.239   4.611   3.563  0.8866  0.6859 -2.2592
18932TIP3    H278288   5.255   4.758   3.593 -1.0213  0.5129 -0.0395
18933TIP3   OH278289   1.730   0.564   4.699 -0.0935  0.2760  0.0431
18933TIP3    H178290   1.743   0.514   4.779 -1.2500 -0.9462 -0.4932
18933TIP3    H278291   1.640   0.543   4.672 -0.8101  2.9541  0.0024
18934TIP3   OH278292   3.938   0.421  14.514  0.0329  0.1634 -0.4001
18934TIP3    H178293   3.906   0.392  14.599  0.8150  0.8534  0.1560
18934TIP3    H278294   3.865   0.407  14.454 -0.2245 -1.1817  0.1996
18935TIP3   OH278295   6.036   3.982   4.414  0.0696 -0.4698 -0.4537
18935TIP3    H178296   6.006   3.907   4.364  1.9768 -1.8122  0.2721
18935TIP3    H278297   5.957   4.019   4.453 -1.0944 -1.1380 -2.0903
18936TIP3   OH278298   5.252   5.717  16.805  0.0475 -0.2060 -0.1705
18936TIP3    H178299   5.209   5.802  16.798  0.4547  0.2811  2.4784
18936TIP3    H278300   5.314   5.716  16.732 -1.4503  0.8247 -1.5325
18937TIP3   OH278301   2.829   2.038  13.688 -0.6017  0.0391 -0.0622
18937TIP3    H178302   2.915   2.057  13.726  0.1457 -2.2125 -0.4813
18937TIP3    H278303   2.775   2.113  13.713  1.5508  1.6913 -0.0754
18938TIP3   OH278304   4.180   6.445  11.639 -0.3718  0.1790 -0.3166
18938TIP3    H178305   4.172   6.539  11.622  3.8704  1.0456  1.1909
18938TIP3    H278306   4.185   6.405  11.552 -1.1342  1.4633 -0.9775
18939TIP3   OH278307   2.724   5.567   4.549  0.5140  0.6053  0.5314
18939TIP3    H178308   2.780   5.492   4.529  0.9575  0.4982  2.0187
18939TIP3    H278309   2.635   5.535   4.533  0.7948  0.4117 -0.7499
18940TIP3   OH278310   0.550   0.296  13.642 -0.0906 -0.1288  0.3690
18940TIP3    H178311   0.583   0.206  13.642 -1.9969 -0.8646  0.6193
18940TIP3    H278312   0.455   0.288  13.649 -0.2692  1.9338  1.2129
18941TIP3   OH278313   3.195   0.767  15.898  0.1084 -0.2516 -0.0881
18941TIP3    H178314   3.125   0.710  15.929  1.7794 -2.2127  0.2844
18941TIP3    H278315   3.264   0.758  15.963  1.1059  0.8330 -0.9519
18942TIP3   OH278316   4.963   4.768   4.481 -0.2345  0.2995 -0.3356
18942TIP3    H178317   5.046   4.738   4.518 -1.3623 -2.5202  0.1858
18942TIP3    H278318   4.924   4.690   4.443 -3.1141  1.2749  0.3417
18943TIP3   OH278319   5.147   2.630  16.937  0.1362 -0.1452  0.5337
18943TIP3    H178320   5.189   2.544  16.944 -0.0546 -0.2714  0.1742
18943TIP3    H278321   5.171   2.660  16.849  0.1691  0.1526  0.6439
18944TIP3   OH278322   0.976   3.034  14.462  0.1942 -0.0175 -0.1322
18944TIP3    H178323   0.950   3.124  14.440  0.3761  0.0967  0.1034
18944TIP3    H278324   1.070   3.032  14.444  0.1496 -0.2223 -0.3361
18945TIP3   OH278325   2.776   0.831  11.555 -0.4233  0.3502  0.7289
18945TIP3    H178326   2.850   0.892  11.545 -0.4207  0.3904  0.9883
18945TIP3    H278327   2.703   0.876  11.513 -0.3278  0.3573  0.5658
18946TIP3   OH278328   2.090   5.202  16.980  0.2653 -0.1355 -0.2111
18946TIP3    H178329   1.997   5.187  16.966 -0.1958  1.1054  1.2199
18946TIP3    H278330   2.094   5.272  17.045  2.2099  0.5190 -0.9493
18947TIP3   OH278331   5.742   5.244   5.132 -0.1725 -0.4081 -0.4678
18947TIP3    H178332   5.787   5.323   5.099 -0.8021  0.4323  0.6266
18947TIP3    H278333   5.746   5.183   5.059  1.3842  0.2012 -0.9473
18948TIP3   OH278334   0.611   3.059   4.104  0.3549  0.8152 -0.5218
18948TIP3    H178335   0.571   3.092   4.023  0.6747 -0.2240 -1.1280
18948TIP3    H278336   0.599   3.129   4.167 -1.0907  1.1300 -1.1075
18949TIP3   OH278337   6.811   5.159  16.255  0.1720  0.5089  0.8476
18949TIP3    H178338   6.791   5.111  16.174  0.1070  1.0455  0.5414
18949TIP3    H278339   6.726   5.166  16.299  0.0939  0.7671  0.6582
18950TIP3   OH278340   0.024   6.604   3.531  0.3624 -0.5879  0.2344
18950TIP3    H178341   0.055   6.574   3.445  1.7816 -2.2135  1.2313
18950TIP3    H278342  -0.025   6.684   3.512  0.2223 -1.1395 -2.1291
18951TIP3   OH278343   6.379   2.750  15.016 -0.2095 -0.1077  0.2017
18951TIP3    H178344   6.359   2.789  14.931 -1.2939 -1.9066 -0.4085
18951TIP3    H278345   6.328   2.802  15.078  0.3527  1.0269 -0.2411
18952TIP3   OH278346   3.666   4.279   1.719  0.1112  0.1120  0.1187
18952TIP3    H178347   3.653   4.315   1.631 -0.6166 -1.4678 -0.4484
18952TIP3    H278348   3.759   4.295   1.738  0.8569 -1.4832 -1.8785
18953TIP3   OH278349   1.772   0.199  16.299  0.6441  0.4303 -0.2013
18953TIP3    H178350   1.844   0.263  16.297  0.5568  0.5029 -1.1180
18953TIP3    H278351   1.816   0.114  16.304  0.7707  0.5172  0.2432
18954TIP3   OH278352   0.179   4.750  16.720  0.0363 -0.1260 -0.6165
18954TIP3    H178353   0.157   4.761  16.813  1.7868 -0.0713 -0.1728
18954TIP3    H278354   0.205   4.658  16.712  1.0855  0.1743 -0.7687
18955TIP3   OH278355   2.676   5.341  15.146  0.4712 -0.1454  0.1403
18955TIP3    H178356   2.677   5.254  15.187 -1.6289  0.8210  2.5505
18955TIP3    H278357   2.639   5.326  15.059  0.1233 -1.6526  0.5102
18956TIP3   OH278358   1.741   2.870  13.176 -0.2029 -0.2750  0.5926
18956TIP3    H178359   1.670   2.913  13.223 -0.3132 -0.9974  1.0908
18956TIP3    H278360   1.717   2.778  13.173  0.3508 -0.4148  0.1021
18957TIP3   OH278361   0.441   1.562  11.250  0.0095  0.1958  0.4951
18957TIP3    H178362   0.437   1.636  11.189 -2.3788  0.4532  0.8687
18957TIP3    H278363   0.387   1.494  11.209  1.8792 -1.2818  0.3261
18958TIP3   OH278364   2.729   3.914  15.566 -0.3425 -0.2997 -0.3705
18958TIP3    H178365   2.753   3.946  15.479  2.0164  2.2257  1.0528
18958TIP3    H278366   2.657   3.970  15.594  2.1783  2.5065  1.1313
18959TIP3   OH278367   3.187   3.088   0.114 -0.5395 -0.2973  0.6147
18959TIP3    H178368   3.162   3.136   0.193 -0.5477  0.3176  0.2494
18959TIP3    H278369   3.120   3.020   0.105 -1.1289  0.2760  0.5687
18960TIP3   OH278370   6.344   1.508   4.559  0.2614  0.2531 -0.2801
18960TIP3    H178371   6.280   1.561   4.510 -0.3966 -0.8089 -0.5875
18960TIP3    H278372   6.377   1.568   4.626 -2.2433  0.3934  0.9365
18961TIP3   OH278373   4.423   0.760   4.035  0.1896 -0.5672 -0.2169
18961TIP3    H178374   4.443   0.849   4.063 -0.6238 -0.1344 -0.9523
18961TIP3    H278375   4.465   0.751   3.950 -2.6672  0.4312 -1.8918
18962TIP3   OH278376   2.687   2.013   2.451  0.0056 -0.7489 -0.4660
18962TIP3    H178377   2.734   1.932   2.435  0.3156 -0.7427  0.3925
18962TIP3    H278378   2.741   2.061   2.514  0.7975  0.9722 -2.3263
18963TIP3   OH278379   4.731   3.779   3.673 -0.4755  0.5275  0.4146
18963TIP3    H178380   4.797   3.844   3.646  0.4614  0.0174  1.3785
18963TIP3    H278381   4.736   3.711   3.606 -1.1989  1.2579 -0.4011
18964TIP3   OH278382   3.799   3.206   1.982  0.1694  0.0921 -0.2439
18964TIP3    H178383   3.834   3.208   1.893  0.1153 -0.3250 -0.2729
18964TIP3    H278384   3.817   3.294   2.016  2.3170 -0.4605  0.1741
18965TIP3   OH278385   2.689   6.454  15.612  0.0341 -0.2481  0.6805
18965TIP3    H178386   2.772   6.500  15.619  0.7181 -1.2646 -0.4033
18965TIP3    H278387   2.708   6.377  15.559 -1.5757 -0.5632  0.4958
18966TIP3   OH278388   3.497   3.149  14.300  0.0791  0.5142  0.4594
18966TIP3    H178389   3.513   3.198  14.220  0.5564 -0.3546  0.0081
18966TIP3    H278390   3.436   3.203  14.350  0.0013  1.1958 -0.3613
18967TIP3   OH278391   2.500   3.547   2.638  0.0837  0.2458 -0.1553
18967TIP3    H178392   2.595   3.541   2.651 -0.0506  0.1333  0.8276
18967TIP3    H278393   2.488   3.628   2.589  0.7604 -0.2336 -1.1634
18968TIP3   OH278394   6.207   1.572   3.831 -0.0866 -0.4016 -0.2670
18968TIP3    H178395   6.300   1.548   3.825  0.1153 -0.2604  1.6624
18968TIP3    H278396   6.163   1.490   3.855 -0.2442 -0.1754  0.2372
18969TIP3   OH278397   0.089   3.284   3.645  0.3987 -0.1398  0.0176
18969TIP3    H178398   0.084   3.380   3.646 -2.2166 -0.1843 -0.6414
18969TIP3    H278399   0.173   3.264   3.605  0.3777  1.8980 -1.1784
18970TIP3   OH278400   6.136   4.661  14.593  0.2116  0.3367 -0.6385
18970TIP3    H178401   6.081   4.704  14.658 -0.1441  0.8354 -1.2590
18970TIP3    H278402   6.222   4.702  14.602  0.2364  0.2190 -0.3137
18971TIP3   OH278403   6.614   4.880  13.961  0.1052 -0.3339  0.1879
18971TIP3    H178404   6.530   4.846  13.992 -1.9555  1.4461 -3.0093
18971TIP3    H278405   6.649   4.810  13.906 -0.5007 -0.1575 -0.4311
18972TIP3   OH278406   4.255   5.028  12.129  0.4265  0.3925 -0.1810
18972TIP3    H178407   4.259   4.979  12.211 -2.9178 -1.1855 -0.7573
18972TIP3    H278408   4.330   4.997  12.078 -0.5971 -3.0236  0.1562
18973TIP3   OH278409   0.586   0.959  13.358 -0.6524  0.0676 -0.1790
18973TIP3    H178410   0.579   1.053  13.371  2.4254  0.3194  0.5283
18973TIP3    H278411   0.567   0.921  13.444 -2.4106 -0.0437 -0.5892
18974TIP3   OH278412   4.155   2.510   5.422  0.0578  0.0993  0.4820
18974TIP3    H178413   4.064   2.539   5.415  0.7002  2.1211 -0.4520
18974TIP3    H278414   4.161   2.471   5.509 -2.0482 -1.5582 -0.0227
18975TIP3   OH278415   2.315   2.650  12.984 -0.1712  0.4559  0.1526
18975TIP3    H178416   2.359   2.694  13.057 -1.2385  1.3908  0.2614
18975TIP3    H278417   2.243   2.708  12.962 -0.8483 -0.6350 -0.5731
18976TIP3   OH278418   2.315   2.872   1.462 -0.5354  0.2711  0.4345
18976TIP3    H178419   2.300   2.964   1.442 -0.4456  0.7322  2.2442
18976TIP3    H278420   2.394   2.872   1.517 -0.1835 -0.9492 -0.0285
18977TIP3   OH278421   3.034   0.447  15.261 -0.0018  0.2169 -0.3925
18977TIP3    H178422   3.075   0.365  15.234  2.4614  0.8698  1.1144
18977TIP3    H278423   2.994   0.426  15.345 -0.0334  0.3780 -0.3684
18978TIP3   OH278424   3.161   4.544  16.947 -0.3218  0.1324 -0.1366
18978TIP3    H178425   3.171   4.449  16.940  0.5688  0.0528  1.7499
18978TIP3    H278426   3.074   4.556  16.986 -0.3062  0.0737 -0.0831
18979TIP3   OH278427   0.476   5.705   0.534  0.2714 -0.4446 -0.6009
18979TIP3    H178428   0.461   5.774   0.470  0.6770 -1.5570 -1.9358
18979TIP3    H278429   0.542   5.741   0.593  0.7647  0.1564 -1.4996
18980TIP3   OH278430   1.307   5.686  11.676  0.5802 -0.0015  0.4847
18980TIP3    H178431   1.368   5.613  11.666 -0.1424 -0.3710 -2.1715
18980TIP3    H278432   1.357   5.762  11.646  0.1799 -0.0974 -0.4741
18981TIP3   OH278433   6.120   3.388   2.826  0.1659 -0.1961 -0.2693
18981TIP3    H178434   6.091   3.464   2.876  0.4669 -0.0573 -0.2980
18981TIP3    H278435   6.205   3.414   2.790  0.4754 -0.6980  0.0726
18982TIP3   OH278436   5.794   4.766  14.107 -0.2596 -0.2146  0.0194
18982TIP3    H178437   5.804   4.815  14.026  0.5623  0.9459  0.7989
18982TIP3    H278438   5.841   4.684  14.091  0.6803  0.3799 -0.3756
18983TIP3   OH278439   3.659   3.818   5.131 -0.0274  0.1588 -0.3431
18983TIP3    H178440   3.580   3.804   5.078  0.6522 -2.3465 -0.8099
18983TIP3    H278441   3.690   3.730   5.152  2.8259  1.0458 -0.4162
18984TIP3   OH278442   0.692   0.686  12.300  0.7422  0.2753 -0.3482
18984TIP3    H178443   0.744   0.640  12.233 -0.1439 -1.3323  0.0188
18984TIP3    H278444   0.748   0.683  12.378 -0.2902 -2.6315  0.4235
18985TIP3   OH278445   5.618   6.141   5.683  0.2581 -0.0284  0.4275
18985TIP3    H178446   5.616   6.236   5.689 -0.4086  0.0200 -0.3237
18985TIP3    H278447   5.668   6.113   5.759  0.8893  0.9457  0.3910
18986TIP3   OH278448   6.237   5.702  15.622 -0.0552  0.1732  0.0831
18986TIP3    H178449   6.291   5.645  15.567 -1.1358  0.1858 -1.0349
18986TIP3    H278450   6.148   5.687  15.591 -0.9076 -0.8737  2.7796
18987TIP3   OH278451   1.802   3.830  16.017 -0.6057  0.3467 -0.6576
18987TIP3    H178452   1.744   3.836  15.941 -0.6746  2.6729 -0.4832
18987TIP3    H278453   1.766   3.893  16.079  2.2620  2.1260 -0.6708
18988TIP3   OH278454   0.267   1.671   0.643 -0.4182 -0.2656  0.0866
18988TIP3    H178455   0.191   1.728   0.634  0.6767  1.0477 -1.3080
18988TIP3    H278456   0.330   1.722   0.693  0.1063 -0.7392 -0.0825
18989TIP3   OH278457   1.700   2.169  16.981 -0.8358  0.0634 -0.5972
18989TIP3    H178458   1.754   2.195  17.055 -3.7877  0.0979  1.7328
18989TIP3    H278459   1.673   2.079  17.002 -2.5557  0.4371 -1.0609
18990TIP3   OH278460   5.786   6.192  15.378  0.2155 -0.3310  0.3669
18990TIP3    H178461   5.782   6.136  15.456  1.0259 -1.3812 -0.3059
18990TIP3    H278462   5.801   6.131  15.306 -0.2422  0.6473 -0.5856
18991TIP3   OH278463   6.638   3.358  11.470  0.2745  0.4058  0.4168
18991TIP3    H178464   6.550   3.395  11.467 -0.0704 -0.4309 -0.1795
18991TIP3    H278465   6.654   3.326  11.381  1.9657  2.2911 -0.0376
18992TIP3   OH278466   0.788   4.610  10.844  0.0601  0.0301 -0.5939
18992TIP3    H178467   0.861   4.667  10.822 -0.3180  1.1472  0.9233
18992TIP3    H278468   0.797   4.535  10.785  2.3672  0.1833 -0.5072
18993TIP3   OH278469   4.932   2.450  13.626 -0.0591 -0.4476 -0.8884
18993TIP3    H178470   5.024   2.424  13.622 -0.6478 -2.5850 -2.0082
18993TIP3    H278471   4.927   2.531  13.576  1.8676  2.1970  2.7453
18994TIP3   OH278472   6.595   5.705   5.417 -0.3614 -0.3441  0.3157
18994TIP3    H178473   6.667   5.767   5.425 -1.1407  0.4145  2.1199
18994TIP3    H278474   6.519   5.759   5.394 -0.9798 -0.6299  1.5894
18995TIP3   OH278475   1.442   6.069  12.368 -0.4607 -0.0656  0.2925
18995TIP3    H178476   1.439   6.051  12.274 -2.0470  2.4630 -0.2509
18995TIP3    H278477   1.366   6.024  12.404  0.3903 -1.3969  0.4866
18996TIP3   OH278478   2.943   4.694   0.662 -0.0820 -0.5380 -0.3943
18996TIP3    H178479   2.915   4.716   0.574 -1.1757 -1.1516 -0.2205
18996TIP3    H278480   3.036   4.672   0.654  0.7652  2.7153 -0.7882
18997TIP3   OH278481   3.733   3.846  16.905  0.4148 -0.0190 -0.1288
18997TIP3    H178482   3.690   3.783  16.962  2.3734 -1.5794 -0.2706
18997TIP3    H278483   3.764   3.915  16.964 -1.7468  0.9147  0.0230
18998TIP3   OH278484   5.619   0.316  12.035  0.0451 -0.5748 -0.0319
18998TIP3    H178485   5.633   0.407  12.007 -3.4100 -0.1166 -0.6721
18998TIP3    H278486   5.668   0.264  11.972  2.2750  0.7438  0.4586
18999TIP3   OH278487   2.986   5.694  15.341 -0.3822  0.1308 -0.0099
18999TIP3    H178488   2.984   5.640  15.262  0.7047  0.2499 -0.1439
18999TIP3    H278489   2.988   5.631  15.414  1.0381 -0.0507 -0.1687
19000TIP3   OH278490   6.691   2.687  13.455  0.5791  0.5326  0.2166
19000TIP3    H178491   6.663   2.644  13.535  1.4328  1.7450  1.2064
19000TIP3    H278492   6.768   2.738  13.480 -0.8212  3.3003 -0.6242
19001TIP3   OH278493   0.930   3.340  15.848  0.5435  0.1904  0.6726
19001TIP3    H178494   0.849   3.320  15.894  1.4611  0.1191  2.3531
19001TIP3    H278495   0.958   3.424  15.886  0.8325  0.6511 -0.5098
19002TIP3   OH278496   0.094   4.833   2.339 -0.1934 -0.3847 -0.2829
19002TIP3    H178497   0.125   4.893   2.407 -1.0177 -0.0483 -0.2013
19002TIP3    H278498   0.033   4.885   2.287  1.3356 -0.2597 -2.0444
19003TIP3   OH278499   1.499   0.713  13.218  0.2183  0.6455 -0.4748
19003TIP3    H178500   1.498   0.665  13.136 -2.0042  0.0918 -0.1932
19003TIP3    H278501   1.530   0.800  13.195  1.4069 -0.0197 -1.5292
19004TIP3   OH278502   0.587   0.842  13.997 -0.2173  0.0363 -0.0391
19004TIP3    H178503   0.635   0.836  13.914  0.8984  0.1708  0.5861
19004TIP3    H278504   0.498   0.812  13.975  0.8190 -2.8486 -0.6140
19005TIP3   OH278505   1.996   0.510   5.662 -0.3122 -0.2089  0.2190
19005TIP3    H178506   1.904   0.527   5.682 -0.0393 -1.1109  2.5545
19005TIP3    H278507   2.043   0.589   5.689 -0.3675  0.3343 -1.1629
19006TIP3   OH278508   3.042   0.963   1.842 -0.2117 -0.2390 -0.2590
19006TIP3    H178509   3.102   1.036   1.828  0.0403 -0.0755  1.3880
19006TIP3    H278510   2.956   1.005   1.855 -0.2041 -0.2757 -0.0791
19007TIP3   OH278511   6.604   4.975   4.055  0.5380  0.2333  0.2412
19007TIP3    H178512   6.641   5.021   3.979  1.3861  1.3811  1.3048
19007TIP3    H278513   6.565   5.044   4.108  1.9384 -0.2022  1.9358
19008TIP3   OH278514   0.430   2.174   0.787  0.0320  0.4508  0.4831
19008TIP3    H178515   0.466   2.242   0.844 -2.3721  1.8358  0.4770
19008TIP3    H278516   0.492   2.168   0.715  1.0842  1.5542  1.2602
19009TIP3   OH278517   2.319   2.419  13.627  0.1290  0.0863  0.3263
19009TIP3    H178518   2.232   2.379  13.621 -0.7435  2.0150 -0.9715
19009TIP3    H278519   2.305   2.501  13.675  1.0469  0.8335 -0.6251
19010TIP3   OH278520   6.205   4.793   2.326 -0.2260 -0.3686 -0.3917
19010TIP3    H178521   6.262   4.739   2.271  0.6213  1.2008 -1.1341
19010TIP3    H278522   6.184   4.869   2.271 -1.9779 -0.2707  0.3454
19011TIP3   OH278523   1.792   4.109   4.951  0.2530  0.0797 -0.2481
19011TIP3    H178524   1.842   4.162   5.013 -0.0133  0.7498 -0.5921
19011TIP3    H278525   1.700   4.120   4.978  0.1881 -0.1276 -0.3822
19012TIP3   OH278526   0.936   6.362  12.192 -0.6702 -0.2274 -0.1119
19012TIP3    H178527   0.885   6.420  12.250  0.6115  2.7306 -1.7198
19012TIP3    H278528   0.872   6.331  12.128 -0.8764  2.2815 -1.2580
19013TIP3   OH278529   5.503   3.783  13.109 -0.0827 -0.4166  0.4150
19013TIP3    H178530   5.452   3.814  13.034 -0.7702  0.4057  1.1878
19013TIP3    H278531   5.594   3.795  13.083 -0.2248 -2.2506 -1.1322
19014TIP3   OH278532   0.638   3.727  12.193  0.0804 -0.4794 -0.3751
19014TIP3    H178533   0.599   3.814  12.196 -0.5796 -0.7703 -0.4410
19014TIP3    H278534   0.664   3.709  12.283  1.8192  0.4906 -0.6292
19015TIP3   OH278535   5.230   0.811  15.468 -0.3042 -0.0386  0.3217
19015TIP3    H178536   5.227   0.884  15.530 -0.7774  0.5343 -0.3594
19015TIP3    H278537   5.305   0.829  15.412 -0.6711  0.1545 -0.1160
19016TIP3   OH278538   5.265   3.798  14.685 -0.3741 -0.2756 -0.8340
19016TIP3    H178539   5.266   3.864  14.616 -0.4875 -1.3427 -1.8864
19016TIP3    H278540   5.174   3.795  14.715 -0.4062 -0.0891 -0.9143
19017TIP3   OH278541   2.351   4.504  10.907 -0.6023  0.2809  0.0745
19017TIP3    H178542   2.385   4.559  10.978  0.3951 -0.3316  0.0866
19017TIP3    H278543   2.424   4.495  10.847  0.2029 -3.2221  1.3725
19018TIP3   OH278544   6.771   2.768  12.419  0.6427 -0.4487  0.8316
19018TIP3    H178545   6.810   2.715  12.488  0.2800 -0.4194  1.0568
19018TIP3    H278546   6.768   2.710  12.343  1.1353 -0.4498  0.8089
19019TIP3   OH278547   4.051   5.287  11.221  0.0966  0.0689 -0.0556
19019TIP3    H178548   3.998   5.267  11.297  1.5400 -0.8224  0.7637
19019TIP3    H278549   4.031   5.217  11.158  1.6111 -1.3995  0.9822
19020TIP3   OH278550   1.430   1.350  16.924 -0.1152 -0.1787  0.7741
19020TIP3    H178551   1.444   1.299  17.004  0.3317  0.2807  0.9955
19020TIP3    H278552   1.464   1.294  16.854  0.3924 -0.1777  1.0191
19021TIP3   OH278553   3.460   5.122   5.966 -0.2283 -0.5706  0.7788
19021TIP3    H178554   3.407   5.144   6.043 -0.0793  1.5460  0.3242
19021TIP3    H278555   3.396   5.103   5.897 -0.3548 -1.4445  1.1173
19022TIP3   OH278556   1.627   0.755  15.020  0.4873  0.5115 -0.4342
19022TIP3    H178557   1.613   0.794  14.934 -3.8618  0.6003  0.0772
19022TIP3    H278558   1.544   0.767  15.065  1.8523 -1.5170  3.0116
19023TIP3   OH278559   0.064   1.918  14.864  0.3710 -0.0826  0.0735
19023TIP3    H178560   0.013   1.859  14.809 -2.0120  0.9148  1.0721
19023TIP3    H278561   0.105   1.861  14.929  0.6242 -0.9358 -0.8123
19024TIP3   OH278562   1.397   3.694   1.137 -0.0145  0.1987 -0.0178
19024TIP3    H178563   1.445   3.617   1.168 -0.3492  0.3771  0.9609
19024TIP3    H278564   1.351   3.727   1.214  1.0360  2.0608 -0.1270
19025TIP3   OH278565   3.069   5.538  16.544 -0.0553  0.2919  0.7093
19025TIP3    H178566   3.153   5.494  16.556  0.1820 -0.0920 -1.8697
19025TIP3    H278567   3.017   5.511  16.620  1.7421 -0.4108  1.7469
19026TIP3   OH278568   1.420   2.910   3.277 -0.2891  0.2784 -0.0413
19026TIP3    H178569   1.495   2.969   3.281  1.4425 -1.6987 -1.1111
19026TIP3    H278570   1.403   2.900   3.183 -1.4229  0.1051  0.1723
19027TIP3   OH278571   2.782   0.410  13.079  0.2798 -0.0225 -0.3779
19027TIP3    H178572   2.845   0.343  13.053 -0.2233 -0.8216  0.3998
19027TIP3    H278573   2.768   0.395  13.172 -0.1896  0.8812 -0.2937
19028TIP3   OH278574   4.343   1.783  10.584 -1.0527  0.3005 -0.2963
19028TIP3    H178575   4.436   1.759  10.587 -0.5428  2.1878  2.0802
19028TIP3    H278576   4.340   1.860  10.527 -1.7012 -1.3917 -2.7115
19029TIP3   OH278577   5.385   2.466   1.159 -0.3938 -0.2492  0.3559
19029TIP3    H178578   5.350   2.535   1.102  0.8548  0.6474  0.6479
19029TIP3    H278579   5.343   2.481   1.244  1.0742  1.1840  0.8661
19030TIP3   OH278580   0.436   5.703   0.888 -0.3765  0.4842  0.0555
19030TIP3    H178581   0.375   5.773   0.909 -1.6543 -0.6267  0.1435
19030TIP3    H278582   0.494   5.741   0.821 -0.8022  1.7293  0.3711
19031TIP3   OH278583   4.787   0.910  10.311 -0.0720  0.3921  0.6213
19031TIP3    H178584   4.762   0.871  10.395 -1.5635  0.4450  0.2348
19031TIP3    H278585   4.854   0.850  10.276 -0.1044 -0.1344  1.4197
19032TIP3   OH278586   0.226   2.800   0.543  0.9687 -0.1434 -0.1348
19032TIP3    H178587   0.263   2.807   0.631  2.1223 -1.2285 -0.5024
19032TIP3    H278588   0.144   2.849   0.547 -0.5335 -2.5613  2.3744
19033TIP3   OH278589   6.577   4.524  16.102  0.0151 -0.0017 -0.0603
19033TIP3    H178590   6.554   4.435  16.130 -0.3279 -0.3655 -1.4504
19033TIP3    H278591   6.621   4.513  16.018  3.0929  0.9042  1.2959
19034TIP3   OH278592   2.806   2.244   6.130  0.0354  0.6425 -0.4496
19034TIP3    H178593   2.869   2.289   6.186  0.0419  1.5504 -1.1588
19034TIP3    H278594   2.725   2.294   6.140  0.0810  0.9224 -1.3559
19035TIP3   OH278595   3.891   4.836  11.076 -0.8880 -0.3679 -0.0327
19035TIP3    H178596   3.944   4.783  11.018 -0.8018 -0.9381  0.5486
19035TIP3    H278597   3.944   4.913  11.096  0.0238 -1.2493  1.0770
19036TIP3   OH278598   4.147   2.639   5.899 -0.4592  0.2475 -0.1572
19036TIP3    H178599   4.119   2.572   5.962  0.2873 -0.0279 -0.1064
19036TIP3    H278600   4.166   2.716   5.952 -0.2031  0.1366 -0.0877
19037TIP3   OH278601   4.938   1.844  12.797  0.1862 -0.2442  0.0911
19037TIP3    H178602   5.033   1.837  12.805  0.2928 -0.5983 -1.2173
19037TIP3    H278603   4.921   1.938  12.788  0.5016 -0.2457 -0.5580
19038TIP3   OH278604   2.479   0.068   4.483 -0.0353 -0.2490  0.0282
19038TIP3    H178605   2.471  -0.027   4.478 -0.4951 -0.2359  0.4875
19038TIP3    H278606   2.416   0.101   4.419 -0.1965 -0.2395  0.1944
19039TIP3   OH278607   4.853   1.623   0.184 -0.1902 -0.0557  0.4481
19039TIP3    H178608   4.768   1.587   0.208 -0.5473  1.0560  0.9389
19039TIP3    H278609   4.893   1.648   0.268  0.4231 -0.1271  0.1876
19040TIP3   OH278610   0.216   1.042  11.698  0.0488  0.0581  0.4604
19040TIP3    H178611   0.257   1.109  11.642  1.3546 -1.5000 -0.5285
19040TIP3    H278612   0.128   1.032  11.663  0.7045 -0.5782 -1.0897
19041TIP3   OH278613   0.752   6.716   6.151 -0.2414 -0.4516  0.7474
19041TIP3    H178614   0.843   6.687   6.144 -0.7747 -2.2079  0.5443
19041TIP3    H278615   0.744   6.749   6.240  1.2240  2.1873 -0.0032
19042TIP3   OH278616   2.143   6.412  16.361 -0.1820  0.5525  0.2522
19042TIP3    H178617   2.119   6.322  16.386  0.6969  0.7535  1.9816
19042TIP3    H278618   2.239   6.412  16.362 -0.1363  1.1761 -1.1332
19043TIP3   OH278619   4.968   0.975  12.483 -0.0508 -0.0935 -0.3036
19043TIP3    H178620   4.899   1.005  12.541  0.7723  0.4112  0.4394
19043TIP3    H278621   5.030   1.048  12.479 -0.5924  0.3327 -2.6881
19044TIP3   OH278622   3.063   1.923   2.972  0.5055 -0.2517  0.1597
19044TIP3    H178623   2.996   1.989   2.990  1.0458  0.8689 -1.6572
19044TIP3    H278624   3.127   1.933   3.043 -1.1885 -1.3961  1.9683
19045TIP3   OH278625   3.633   0.686  11.861 -0.3891 -0.0664 -0.0855
19045TIP3    H178626   3.699   0.713  11.797  1.1592 -1.6097  0.7686
19045TIP3    H278627   3.667   0.717  11.945 -1.1330 -0.2482  0.2910
19046TIP3   OH278628   3.956   4.717   2.599 -0.2111 -0.1201  0.3420
19046TIP3    H178629   4.045   4.695   2.571 -0.0016  0.6578  0.3848
19046TIP3    H278630   3.900   4.682   2.529  0.2858  1.4603 -0.9100
19047TIP3   OH278631   5.219   2.541  17.255  0.3355 -0.3471 -0.3337
19047TIP3    H178632   5.208   2.530  17.350 -0.0095 -3.4773 -0.6442
19047TIP3    H278633   5.164   2.473  17.216 -0.1404  1.3382 -2.8635
19048TIP3   OH278634   2.111   3.521   5.894 -0.1412 -0.3813 -0.1770
19048TIP3    H178635   2.162   3.551   5.818 -0.5815  1.8735  0.3689
19048TIP3    H278636   2.086   3.431   5.871  0.6130 -0.1278 -2.2373
19049TIP3   OH278637   6.621   1.171  12.629 -0.2372 -0.3794 -0.0712
19049TIP3    H178638   6.685   1.178  12.558  2.1958 -1.0211  1.8646
19049TIP3    H278639   6.577   1.087  12.613  2.2038 -1.8883  0.4973
19050TIP3   OH278640   2.895   6.041  12.343  0.3721  0.5138  0.0013
19050TIP3    H178641   2.905   6.092  12.423 -0.6118  1.1390 -0.2481
19050TIP3    H278642   2.960   5.971  12.350  0.1133  0.3927  1.4716
19051TIP3   OH278643   5.961   5.182   1.879 -0.5850  0.1652 -0.6139
19051TIP3    H178644   5.927   5.142   1.959 -1.0676 -2.0267 -1.8360
19051TIP3    H278645   6.056   5.183   1.892 -0.5986 -0.9878 -0.3609
19052TIP3   OH278646   3.257   4.194  13.451 -0.3237 -0.0816 -0.1180
19052TIP3    H178647   3.298   4.139  13.383 -1.5302 -0.3932 -0.6308
19052TIP3    H278648   3.179   4.145  13.476  0.3527 -0.2139  1.9011
19053TIP3   OH278649   3.299   4.580   4.625 -0.3942  0.1945  0.8583
19053TIP3    H178650   3.281   4.662   4.579  0.8075 -0.8693 -1.7138
19053TIP3    H278651   3.394   4.581   4.639 -0.0567 -1.4901 -0.9040
19054TIP3   OH278652   5.159   3.897   3.351  0.0910 -0.0798 -0.0405
19054TIP3    H178653   5.131   3.927   3.264  0.7726 -2.8468 -1.3243
19054TIP3    H278654   5.254   3.903   3.349  0.3636 -3.2229 -0.8285
19055TIP3   OH278655   4.154   6.546  10.621  0.3885  0.1670 -0.6641
19055TIP3    H178656   4.084   6.594  10.578  3.0918  1.5463 -4.0612
19055TIP3    H278657   4.231   6.604  10.613  2.9310 -2.9976 -1.4284
19056TIP3   OH278658   0.516   1.236   4.471  0.3570  0.2882  0.2719
19056TIP3    H178659   0.456   1.235   4.545 -0.5141 -0.6730 -0.4150
19056TIP3    H278660   0.603   1.230   4.510 -0.0630  0.1586  1.2152
19057TIP3   OH278661   0.720   5.835   3.700  0.1098 -0.0047 -0.2387
19057TIP3    H178662   0.806   5.826   3.742 -0.6946 -1.6156  1.1952
19057TIP3    H278663   0.658   5.816   3.770 -1.4101  0.2437 -1.4741
19058TIP3   OH278664   0.400   4.437  12.930  0.1047  0.0964 -0.3230
19058TIP3    H178665   0.333   4.422  12.863  1.5337 -0.1617 -1.7448
19058TIP3    H278666   0.389   4.363  12.990 -1.2851  0.4005 -0.1578
19059TIP3   OH278667   2.287   0.505  12.643 -0.2850  0.0622 -0.2050
19059TIP3    H178668   2.318   0.417  12.663 -0.6324 -0.0952 -0.3469
19059TIP3    H278669   2.222   0.523  12.712  0.3117  0.4981  0.2554
19060TIP3   OH278670   2.436   3.106  14.604 -0.4684  0.6214  0.5363
19060TIP3    H178671   2.526   3.130  14.626  0.1675 -0.0054 -1.2601
19060TIP3    H278672   2.409   3.048  14.676  1.4664 -1.2220 -0.1250
19061TIP3   OH278673   3.857   4.166   2.933  0.1217  0.5527 -0.3596
19061TIP3    H178674   3.820   4.200   3.015 -0.3401 -0.6320 -0.0485
19061TIP3    H278675   3.918   4.098   2.961  1.3948  1.4241 -0.9439
19062TIP3   OH278676   5.963   6.244   4.700 -0.0760  0.3971  0.1206
19062TIP3    H178677   5.998   6.323   4.744 -0.5258  0.7685 -0.1796
19062TIP3    H278678   5.896   6.212   4.760  0.1648  0.1955  0.2813
19063TIP3   OH278679   0.647   2.460  14.961 -0.7052  0.0483 -0.0995
19063TIP3    H178680   0.627   2.546  14.926 -1.2465 -0.8848 -2.2942
19063TIP3    H278681   0.586   2.448  15.034 -0.9109  1.3347 -0.0466
19064TIP3   OH278682   1.177   6.460   4.371  0.5241  0.0725 -0.5058
19064TIP3    H178683   1.104   6.459   4.433  1.9857  3.0412  1.5356
19064TIP3    H278684   1.157   6.532   4.311  0.9601 -0.2257 -1.0211
19065TIP3   OH278685   1.984   1.195   2.472  0.4578  0.1422 -0.5952
19065TIP3    H178686   2.006   1.245   2.550 -0.4544  0.7849 -0.7307
19065TIP3    H278687   1.978   1.261   2.403  0.5527 -0.3272 -1.0587
19066TIP3   OH278688   1.688   0.314  14.053 -0.1762  0.0591  0.8110
19066TIP3    H178689   1.730   0.252  13.994 -0.1957  0.8884 -0.0933
19066TIP3    H278690   1.745   0.316  14.130 -2.2260 -4.2102  2.8266
19067TIP3   OH278691   4.307   4.313  13.475  0.9316 -0.1422 -0.1479
19067TIP3    H178692   4.226   4.322  13.426  0.6536 -0.6112  0.2220
19067TIP3    H278693   4.345   4.401  13.475  0.0263  0.2634  0.3508
19068TIP3   OH278694   5.452   4.791  15.068 -0.2021  0.4014 -0.5298
19068TIP3    H178695   5.402   4.792  15.150  0.1776 -1.9548 -0.2280
19068TIP3    H278696   5.386   4.775  15.000 -0.1388 -0.8238 -0.3242
19069TIP3   OH278697   6.553   5.656  13.289 -0.2306  0.4556 -0.4686
19069TIP3    H178698   6.633   5.701  13.261 -0.2225  0.1343 -0.9716
19069TIP3    H278699   6.484   5.694  13.235 -0.3066  0.2363 -0.5265
19070TIP3   OH278700   2.820   2.382   3.622 -0.0067 -0.3558  0.3352
19070TIP3    H178701   2.837   2.312   3.685 -0.7326 -0.8504 -0.0055
19070TIP3    H278702   2.730   2.409   3.640 -0.9479 -1.8317 -1.7218
19071TIP3   OH278703   2.696   4.658  14.148 -0.0980 -0.1804 -0.2000
19071TIP3    H178704   2.697   4.602  14.225  2.4625 -0.3206 -0.2474
19071TIP3    H278705   2.778   4.707  14.153  0.4424 -0.5934 -3.1077
19072TIP3   OH278706   6.565   0.884   1.209 -0.0637  0.0186 -0.2412
19072TIP3    H178707   6.475   0.915   1.207 -0.0671 -0.0232 -0.8557
19072TIP3    H278708   6.590   0.889   1.301  0.3327  3.0030 -0.4037
19073TIP3   OH278709   4.285   5.955  14.777  0.8472 -0.2459 -0.0483
19073TIP3    H178710   4.328   5.925  14.696 -0.5483  0.5423 -1.1214
19073TIP3    H278711   4.281   5.877  14.832  0.6762 -1.1349 -1.2627
19074TIP3   OH278712   6.568   3.130   6.038 -0.6772 -0.3787  0.3400
19074TIP3    H178713   6.637   3.068   6.061  0.0602 -1.0140 -3.0348
19074TIP3    H278714   6.510   3.130   6.114  0.4686 -3.4999  1.3974
19075TIP3   OH278715   2.412   5.422   5.772 -0.1941 -0.8466  0.2023
19075TIP3    H178716   2.466   5.492   5.810 -0.9044 -1.2898  2.1439
19075TIP3    H278717   2.475   5.354   5.748  0.4013  0.0140 -0.7507
19076TIP3   OH278718   5.280   4.265  12.237  0.4484  0.1756 -1.2406
19076TIP3    H178719   5.240   4.346  12.206 -1.4629 -0.0547  0.3857
19076TIP3    H278720   5.294   4.213  12.158 -1.4576  0.7845 -2.0423
19077TIP3   OH278721   2.142   2.676  11.670 -0.0369  0.1283  0.3372
19077TIP3    H178722   2.139   2.580  11.668 -1.6377  0.1575 -1.5390
19077TIP3    H278723   2.185   2.700  11.588  0.7736  1.0457  1.0101
19078TIP3   OH278724   0.071   1.321  11.966 -0.2494  0.2528 -0.5027
19078TIP3    H178725   0.056   1.383  12.037 -2.2599  0.2477 -0.8787
19078TIP3    H278726   0.122   1.370  11.901 -0.5036  1.0155 -0.1371
19079TIP3   OH278727   5.016   3.075   0.420 -0.5007 -0.6718 -0.3230
19079TIP3    H178728   5.068   3.147   0.383 -0.6858 -0.6189 -0.4797
19079TIP3    H278729   4.999   3.017   0.346 -0.7884 -0.6179 -0.3002
19080TIP3   OH278730   0.306   4.255   2.911 -0.3440 -0.0189  0.3140
19080TIP3    H178731   0.229   4.226   2.863 -0.9978  1.9372  0.0889
19080TIP3    H278732   0.377   4.251   2.848 -1.2079  2.6114 -0.9654
19081TIP3   OH278733   5.929   0.809  11.602  0.1030  0.6290 -0.3161
19081TIP3    H178734   5.893   0.791  11.515  0.1188 -2.4772  0.1879
19081TIP3    H278735   6.016   0.845  11.585 -0.9622  2.7951 -1.5242
19082TIP3   OH278736   4.553   0.933  11.812  0.3059 -0.1681  0.1024
19082TIP3    H178737   4.573   0.991  11.738  0.5290 -0.4050 -0.0232
19082TIP3    H278738   4.492   0.984  11.866 -0.9756 -0.5112 -0.9641
19083TIP3   OH278739   2.665   0.484   6.111 -0.0591 -0.3690  0.3928
19083TIP3    H178740   2.651   0.403   6.159  0.3021 -0.8037 -0.2223
19083TIP3    H278741   2.739   0.466   6.053 -0.5374  0.1045 -0.3968
19084TIP3   OH278742   1.775   2.808   3.160  0.6350  0.2077  0.1527
19084TIP3    H178743   1.745   2.724   3.126  0.3722  0.6676 -0.8172
19084TIP3    H278744   1.733   2.816   3.246 -0.2306 -0.1645 -0.2164
19085TIP3   OH278745   2.917   3.747   4.664  0.4510  0.1335  0.1538
19085TIP3    H178746   2.842   3.760   4.606 -1.1234 -3.0064  1.2733
19085TIP3    H278747   2.963   3.672   4.628  0.8708 -0.3149  1.5673
19086TIP3   OH278748   4.388   0.255  11.525 -0.1676 -0.7428 -0.1844
19086TIP3    H178749   4.299   0.245  11.490 -0.4089 -0.2449  0.2692
19086TIP3    H278750   4.389   0.343  11.563  0.6001 -0.6501 -0.4053
19087TIP3   OH278751   4.537   5.983  16.067 -0.6974 -0.2989  0.0839
19087TIP3    H178752   4.481   5.974  16.144 -1.5858  1.4408 -0.3139
19087TIP3    H278753   4.486   5.943  15.996 -0.8894  0.1249 -0.0233
19088TIP3   OH278754   3.506   6.321  11.773 -0.0133 -0.3013  0.1583
19088TIP3    H178755   3.475   6.307  11.863 -0.5397 -0.3680 -0.0312
19088TIP3    H278756   3.432   6.298  11.718  0.0461  0.4877 -0.2703
19089TIP3   OH278757   3.436   2.808  16.226 -0.0614  0.5154  0.2557
19089TIP3    H178758   3.364   2.806  16.290 -0.3310  0.1335 -0.0567
19089TIP3    H278759   3.397   2.774  16.146  0.7976 -0.9118  0.4140
19090TIP3   OH278760   3.617   0.561   3.559 -0.0669  0.2698  0.1616
19090TIP3    H178761   3.637   0.470   3.583 -1.1465  0.2056  0.8919
19090TIP3    H278762   3.702   0.604   3.553  0.3681  0.1154  3.5046
19091TIP3   OH278763   3.343   6.000   0.607  0.4303 -0.1799 -0.2345
19091TIP3    H178764   3.322   6.039   0.692 -0.1430 -1.6225  0.3129
19091TIP3    H278765   3.425   6.042   0.581  0.1427  0.9510  0.5915
19092TIP3   OH278766   4.796   3.740   0.391 -0.0229 -0.2212  0.0220
19092TIP3    H178767   4.757   3.685   0.458 -0.0167 -0.4716 -0.1797
19092TIP3    H278768   4.753   3.713   0.310  0.6814 -0.6123 -0.2304
19093TIP3   OH278769   6.688   0.046  15.002  0.5054 -1.1351 -0.0404
19093TIP3    H178770   6.719   0.073  15.089 -0.2527  3.0815 -0.9041
19093TIP3    H278771   6.602   0.008  15.018 -0.1374  0.6838  0.9886
19094TIP3   OH278772   2.320   0.711  15.492  0.0364  0.1240  0.3114
19094TIP3    H178773   2.289   0.794  15.530  1.3972  0.0005  1.7764
19094TIP3    H278774   2.308   0.647  15.562  0.4875 -0.5961 -0.2634
19095TIP3   OH278775   2.056   2.345  16.456  0.3448  0.5303  0.8421
19095TIP3    H178776   2.135   2.377  16.498  1.0232 -0.1410  0.1038
19095TIP3    H278777   2.086   2.308  16.373 -0.5720 -0.8284  1.0871
19096TIP3   OH278778   1.042   2.869  10.827 -0.3051 -0.1119  0.1598
19096TIP3    H178779   1.001   2.953  10.803  1.1721  0.2471 -1.2513
19096TIP3    H278780   0.969   2.817  10.862 -1.7217  0.9624 -1.0245
19097TIP3   OH278781   5.124   4.233  16.253  0.1397  0.2240  0.3509
19097TIP3    H178782   5.137   4.147  16.214  1.8775 -0.1975  1.7527
19097TIP3    H278783   5.046   4.223  16.308  0.5601 -0.5721  0.8105
19098TIP3   OH278784   4.718   5.598   0.991 -0.4471 -0.1222 -0.4928
19098TIP3    H178785   4.660   5.567   1.060  0.6657 -0.0171  0.5168
19098TIP3    H278786   4.679   5.564   0.910 -2.9484  1.4912 -0.0686
19099TIP3   OH278787   3.396   0.666  12.622 -0.4116 -0.5217 -0.3442
19099TIP3    H178788   3.449   0.694  12.697 -0.8885 -2.7089  0.8971
19099TIP3    H278789   3.430   0.717  12.548  1.1604  0.5431  1.0419
19100TIP3   OH278790   4.960   3.708   4.289 -0.2968 -0.2306 -0.3574
19100TIP3    H178791   4.950   3.616   4.266  0.0406 -0.4733  0.4541
19100TIP3    H278792   4.882   3.750   4.253 -0.0638 -0.6855 -1.4488
19101TIP3   OH278793   0.166   5.398  11.699 -0.0649  0.2654  0.5974
19101TIP3    H178794   0.136   5.307  11.701 -0.8429  0.5155  1.9184
19101TIP3    H278795   0.144   5.429  11.612 -0.9749 -0.4493  0.5580
19102TIP3   OH278796   1.754   5.400   6.389 -0.4621 -0.2638 -0.2126
19102TIP3    H178797   1.743   5.309   6.362  1.5369 -0.6744  0.1815
19102TIP3    H278798   1.794   5.395   6.475 -2.4205  1.0319  0.8417
19103TIP3   OH278799   0.097   3.084   0.669  0.3150  0.8595 -0.2924
19103TIP3    H178800   0.105   3.085   0.765 -0.5522  3.5427 -0.1643
19103TIP3    H278801   0.183   3.112   0.638  0.4128  0.5732 -0.2844
19104TIP3   OH278802   3.184   0.250  16.238 -0.0205 -0.2759 -0.6713
19104TIP3    H178803   3.094   0.241  16.269  0.1181 -2.7165 -0.7198
19104TIP3    H278804   3.215   0.333  16.275 -2.5335  1.0789 -1.4242
19105TIP3   OH278805   3.623   3.285   5.303 -0.4308  0.3299 -0.6239
19105TIP3    H178806   3.574   3.243   5.375 -0.4545  1.4353  0.0251
19105TIP3    H278807   3.674   3.214   5.264  0.2528 -0.1418  1.0496
19106TIP3   OH278808   0.131   3.143  16.042 -0.8455 -0.5201 -0.2865
19106TIP3    H178809   0.073   3.110  16.111  1.6002 -1.1759  1.5990
19106TIP3    H278810   0.138   3.237  16.059  0.8957 -0.8943  1.3955
19107TIP3   OH278811   4.514   2.565   2.249 -0.4243  0.1758  0.1042
19107TIP3    H178812   4.521   2.543   2.342 -1.6284  0.8096  0.3712
19107TIP3    H278813   4.586   2.625   2.233  0.3434 -0.6554  0.4005
19108TIP3   OH278814   0.982   2.967  12.024  0.7186  0.4398 -0.4728
19108TIP3    H178815   1.055   2.906  12.035  0.1543 -0.1443  0.2029
19108TIP3    H278816   0.995   3.006  11.938 -0.0510 -2.2342 -1.9320
19109TIP3   OH278817   3.372   3.250   4.163 -0.5968  0.0176  0.0620
19109TIP3    H178818   3.368   3.155   4.169  0.9907 -0.0442  0.4952
19109TIP3    H278819   3.303   3.273   4.099 -2.5713 -1.1897  1.6366
19110TIP3   OH278820   4.838   2.823   2.727 -0.4914 -0.6051  0.4483
19110TIP3    H178821   4.865   2.855   2.641 -3.0944  2.3235  0.5358
19110TIP3    H278822   4.792   2.741   2.709 -0.4472 -0.3588 -0.8577
19111TIP3   OH278823   6.310   0.746   2.284 -0.1029  0.0466  0.1150
19111TIP3    H178824   6.256   0.721   2.359  1.2649  1.2310  1.5739
19111TIP3    H278825   6.397   0.760   2.321  0.6564  0.5058 -1.7425
19112TIP3   OH278826   3.325   6.630   4.324  0.6829 -0.7917 -0.3318
19112TIP3    H178827   3.332   6.627   4.419  0.0467 -1.6878 -0.2967
19112TIP3    H278828   3.343   6.721   4.300 -0.1902 -0.3322  0.7215
19113TIP3   OH278829   1.484   4.941   0.346 -0.3374 -0.2378  0.0437
19113TIP3    H178830   1.466   4.928   0.253  2.0822 -1.7623 -0.2935
19113TIP3    H278831   1.404   4.911   0.390 -0.3411 -2.6806 -1.4445
19114TIP3   OH278832   2.505   1.393  13.809  0.1633  0.0324  0.6795
19114TIP3    H178833   2.489   1.369  13.718  1.6527  0.2681  0.3261
19114TIP3    H278834   2.445   1.466  13.826  0.6259  0.7158 -0.4785
19115TIP3   OH278835   2.437   3.815   2.060 -0.7024  0.7423 -0.0329
19115TIP3    H178836   2.531   3.826   2.079 -0.6812  0.8759 -0.2132
19115TIP3    H278837   2.435   3.749   1.990 -0.6303  2.0340 -1.2982
19116TIP3   OH278838   3.332   5.839   3.860  0.0881 -0.2160  0.7923
19116TIP3    H178839   3.239   5.843   3.879 -0.0216 -1.4784  0.6192
19116TIP3    H278840   3.338   5.855   3.765  0.0196 -0.4154  0.7543
19117TIP3   OH278841   4.607   5.375  11.718  0.1086 -0.0140 -0.1135
19117TIP3    H178842   4.631   5.367  11.626 -0.2810 -0.8098 -0.1500
19117TIP3    H278843   4.656   5.305  11.762  0.4029  0.4516  0.3068
19118TIP3   OH278844   2.067   5.739   5.376  0.4026  0.3469 -0.4264
19118TIP3    H178845   2.102   5.673   5.316  1.0054 -0.3272  0.6451
19118TIP3    H278846   2.083   5.704   5.463  0.0227  1.5597  0.1562
19119TIP3   OH278847   3.185   4.901   3.833  0.5070 -0.6246  0.3233
19119TIP3    H178848   3.192   4.994   3.852 -0.4328 -0.5017  0.1113
19119TIP3    H278849   3.145   4.863   3.912  0.3343 -0.7554  0.1728
19120TIP3   OH278850   1.603   2.465  17.013  0.9117 -0.1358  0.2220
19120TIP3    H178851   1.551   2.389  16.988  1.0150  0.1149 -0.8245
19120TIP3    H278852   1.683   2.429  17.052  0.9287 -0.5680 -0.2053
19121TIP3   OH278853   3.767   4.038   4.849  0.2673  0.0307 -0.2390
19121TIP3    H178854   3.783   3.952   4.810  0.6154 -0.3876  0.7943
19121TIP3    H278855   3.852   4.082   4.846  0.2208  0.1191 -0.2490
19122TIP3   OH278856   0.949   6.702   3.404  0.0478  0.0381 -0.0172
19122TIP3    H178857   0.918   6.713   3.314  0.5647 -0.3247 -0.2435
19122TIP3    H278858   1.042   6.723   3.400  0.0170  0.2783  0.4891
19123TIP3   OH278859   0.147   4.285  13.856 -0.5767  0.1305  0.2345
19123TIP3    H178860   0.170   4.208  13.908 -0.3579 -0.4098 -0.6381
19123TIP3    H278861   0.086   4.334  13.912 -1.4542 -1.1395  0.4537
19124TIP3   OH278862   4.107   5.422  15.628  0.0948  0.0848  0.2933
19124TIP3    H178863   4.035   5.484  15.640  0.9270  0.8490  1.6809
19124TIP3    H278864   4.185   5.478  15.619  0.3546 -0.6002 -3.4417
19125TIP3   OH278865   1.558   0.411  12.012  0.1044  0.7951  0.3233
19125TIP3    H178866   1.653   0.412  12.022  0.1604 -0.9565  0.1927
19125TIP3    H278867   1.543   0.390  11.920 -0.3523 -2.1766  0.9896
19126TIP3   OH278868   3.970   0.652  12.162  0.2088 -0.0115  0.7284
19126TIP3    H178869   4.043   0.633  12.221 -1.1863  0.3800  2.6681
19126TIP3    H278870   3.915   0.713  12.210  0.0048  1.9690 -1.8202
19127TIP3   OH278871   1.991   6.531   4.756 -0.2158 -0.0863 -0.0160
19127TIP3    H178872   1.983   6.467   4.685  1.7695  0.7597 -1.0976
19127TIP3    H278873   2.044   6.487   4.823  0.1663  0.0164 -0.2481
19128TIP3   OH278874   3.584   1.055   3.230 -0.6971  0.0940 -0.8269
19128TIP3    H178875   3.496   1.076   3.262 -1.1340 -0.9852 -1.2602
19128TIP3    H278876   3.601   0.968   3.265  1.5630  1.5243  1.9906
19129TIP3   OH278877   4.800   0.372  12.539  0.3824  0.5140 -0.2527
19129TIP3    H178878   4.778   0.317  12.464 -0.1440  0.1052  0.1894
19129TIP3    H278879   4.797   0.461  12.505  1.4519  0.2721 -1.0289
19130TIP3   OH278880   3.241   5.744   0.936 -0.4442  0.1556 -0.0411
19130TIP3    H178881   3.235   5.748   1.031 -0.0500  1.2091 -0.0473
19130TIP3    H278882   3.150   5.745   0.906 -0.6219  3.2171  0.2469
19131TIP3   OH278883   1.166   0.627   1.159  0.3611  0.3072  0.0117
19131TIP3    H178884   1.169   0.564   1.087 -0.3880  0.2006  0.0646
19131TIP3    H278885   1.132   0.577   1.233 -0.7157  0.8837 -0.0753
19132TIP3   OH278886   3.232   5.903   4.582 -0.5482 -0.4191  0.0256
19132TIP3    H178887   3.199   5.960   4.513 -1.1299 -0.9747 -0.1649
19132TIP3    H278888   3.195   5.938   4.663 -0.7481 -0.4125 -0.0690
19133TIP3   OH278889   1.053   6.191  13.403  0.2536 -0.3434  0.2514
19133TIP3    H178890   1.072   6.178  13.310  0.1527  0.0012  0.1819
19133TIP3    H278891   1.065   6.104  13.442 -1.5725 -0.9480 -0.4053
19134TIP3   OH278892   1.501   1.199  17.145  0.4781 -0.0777 -0.6417
19134TIP3    H178893   1.485   1.247  17.226  0.4279  1.9296 -1.7677
19134TIP3    H278894   1.594   1.176  17.150  0.6613  0.6795 -0.3167
19135TIP3   OH278895   1.248   6.760   2.313 -0.2422  0.0856 -0.1728
19135TIP3    H178896   1.178   6.765   2.379 -0.9827  1.7568 -1.0264
19135TIP3    H278897   1.255   6.850   2.280  1.5337 -0.3058 -0.9236
19136TIP3   OH278898   2.872   0.823   1.511  0.2875  0.4295 -0.1896
19136TIP3    H178899   2.898   0.837   1.420 -3.3081  0.7578 -1.3417
19136TIP3    H278900   2.824   0.740   1.510  2.4486 -0.9858  2.0670
19137TIP3   OH278901   5.910   5.403   0.185 -0.0830  0.1435  0.0327
19137TIP3    H178902   5.957   5.413   0.267 -0.8892  0.0909  0.5114
19137TIP3    H278903   5.911   5.490   0.145  0.7392  0.0553 -0.1396
19138TIP3   OH278904   2.363   4.172   4.629  0.4613 -0.4634  0.1934
19138TIP3    H178905   2.392   4.118   4.556 -0.7583  0.0275 -0.6839
19138TIP3    H278906   2.416   4.251   4.624  1.2218 -0.9283  0.5985
19139TIP3   OH278907   2.824   0.405   5.828  0.0559  0.1754 -0.3337
19139TIP3    H178908   2.902   0.420   5.882 -0.2515  0.8594 -0.0673
19139TIP3    H278909   2.804   0.312   5.840  1.2121 -0.1641 -0.9284
19140TIP3   OH278910   6.445   4.526  11.834 -0.2053  0.0674  0.3616
19140TIP3    H178911   6.404   4.470  11.768 -0.3989 -2.3534  2.3714
19140TIP3    H278912   6.442   4.614  11.797  2.4462 -1.4464 -4.2362
19141TIP3   OH278913   3.975   3.795   3.598  0.0482  0.0995 -0.0770
19141TIP3    H178914   4.045   3.759   3.544  0.6770 -0.7505  1.2335
19141TIP3    H278915   3.971   3.736   3.674 -1.8444  0.3494  0.0584
19142TIP3   OH278916   3.575   5.192   4.551 -0.3099  0.4920 -0.9276
19142TIP3    H178917   3.649   5.250   4.533 -0.1720  0.3389 -0.8454
19142TIP3    H278918   3.535   5.228   4.630 -0.8427  1.0925 -1.4535
19143TIP3   OH278919   5.336   3.090   2.579 -0.1817 -0.3728  0.2449
19143TIP3    H178920   5.381   3.116   2.499  1.0101 -0.2982  0.9137
19143TIP3    H278921   5.252   3.136   2.576  0.6944  1.2550  0.0301
19144TIP3   OH278922   1.974   0.501   4.413  0.0770  0.3499 -0.2128
19144TIP3    H178923   1.972   0.567   4.345  1.3864  0.1932 -0.4304
19144TIP3    H278924   1.969   0.550   4.495  2.3211  0.8948 -0.3160
19145TIP3   OH278925   3.624   6.470  12.852 -0.2487  0.7780  0.3839
19145TIP3    H178926   3.673   6.547  12.881  0.7837  0.1267  0.4431
19145TIP3    H278927   3.599   6.426  12.934 -1.9322  1.6900  0.3844
19146TIP3   OH278928   1.884   5.960   5.958  0.3427 -0.6802  0.0522
19146TIP3    H178929   1.894   6.014   5.880  0.2721  0.3502  0.7416
19146TIP3    H278930   1.888   5.870   5.925  0.4280 -0.2680 -1.1179
19147TIP3   OH278931   4.329   1.490  12.909 -0.0298  0.0438  0.2840
19147TIP3    H178932   4.335   1.406  12.863  1.2890  1.4053 -2.2784
19147TIP3    H278933   4.396   1.486  12.977 -0.9170 -1.4317  1.1251
19148TIP3   OH278934   2.502   3.228  16.073 -0.1331 -0.2047  0.2758
19148TIP3    H178935   2.587   3.271  16.078 -0.6778  1.0754 -0.7687
19148TIP3    H278936   2.498   3.173  16.151  2.2383 -1.4688 -0.4229
19149TIP3   OH278937   3.787   2.385   0.029 -0.6720 -0.4693  0.1193
19149TIP3    H178938   3.821   2.459  -0.021 -2.6539  0.3212 -0.1590
19149TIP3    H278939   3.814   2.307  -0.021 -2.0329  0.2672 -1.8953
19150TIP3   OH278940   0.618   5.899  16.124 -0.0417  0.7166 -0.5724
19150TIP3    H178941   0.663   5.936  16.048 -2.1902  1.4790 -1.5624
19150TIP3    H278942   0.557   5.968  16.152  0.3910  0.2912  1.6130
19151TIP3   OH278943   2.636   2.668   4.288  0.1627  0.1760  0.2333
19151TIP3    H178944   2.617   2.695   4.198  0.5823 -1.5025 -0.3944
19151TIP3    H278945   2.583   2.589   4.300  0.5566  0.0615  1.2766
19152TIP3   OH278946   0.219   4.895  10.908  0.0563 -0.5556  0.3218
19152TIP3    H178947   0.199   4.857  10.994 -1.3047 -0.4816  0.0702
19152TIP3    H278948   0.186   4.984  10.913 -1.0386 -0.8714 -0.6003
19153TIP3   OH278949   2.277   5.736  12.881  0.3989 -1.0302 -0.2197
19153TIP3    H178950   2.240   5.752  12.794  0.5770  2.3647  0.2004
19153TIP3    H278951   2.202   5.715  12.936  0.2869 -3.2445 -1.1031
19154TIP3   OH278952   4.424   6.234   5.504 -0.4196 -0.5889 -0.1242
19154TIP3    H178953   4.444   6.265   5.593 -1.0142 -1.0622  0.1817
19154TIP3    H278954   4.495   6.173   5.483 -1.7959 -2.8042  1.2252
19155TIP3   OH278955   3.774   5.036  11.613 -0.8546 -0.3029  0.0523
19155TIP3    H178956   3.766   5.050  11.707 -0.6215  0.0629  0.0231
19155TIP3    H278957   3.774   4.941  11.602  0.1015 -0.3731  0.5139
19156TIP3   OH278958   5.301   4.008   1.482  0.0527 -0.0808  0.0585
19156TIP3    H178959   5.261   4.092   1.502 -1.2855 -0.5153 -0.7319
19156TIP3    H278960   5.369   3.998   1.549 -1.4073  0.4896  1.6757
19157TIP3   OH278961   2.200   2.782  15.885 -0.3229  0.1246 -0.2661
19157TIP3    H178962   2.182   2.743  15.800  1.1357  0.7692 -0.9098
19157TIP3    H278963   2.123   2.836  15.904 -0.6647 -0.0303 -1.1732
19158TIP3   OH278964   3.515   1.699   4.354  0.2628  0.2960 -0.1634
19158TIP3    H178965   3.522   1.775   4.297  1.6702 -0.3719 -0.9449
19158TIP3    H278966   3.605   1.669   4.365 -0.3107 -1.6627 -0.4587
19159TIP3   OH278967   1.290   4.029   4.008  0.1323 -0.0968 -0.3590
19159TIP3    H178968   1.314   4.119   3.984 -0.6986  0.4699  0.8292
19159TIP3    H278969   1.195   4.031   4.017 -0.1347 -1.5925 -2.1713
19160TIP3   OH278970   0.377   4.057   2.494  0.2067 -0.3240  0.4488
19160TIP3    H178971   0.393   3.992   2.425  1.1189 -0.0888  0.4271
19160TIP3    H278972   0.326   4.126   2.450  1.5994  0.2952 -0.2890
19161TIP3   OH278973   0.425   1.959   5.128  0.1559  0.5337  0.0214
19161TIP3    H178974   0.434   1.916   5.213  0.5071  0.1732 -0.1952
19161TIP3    H278975   0.331   1.972   5.117  0.1890  1.9185  1.1242
19162TIP3   OH278976   3.180   6.019   2.883 -1.0596 -0.2849 -0.1229
19162TIP3    H178977   3.146   6.089   2.939  0.7915  2.0601 -1.7150
19162TIP3    H278978   3.223   6.065   2.811  0.5392 -3.0904 -1.1109
19163TIP3   OH278979   0.630   6.486  13.335  0.6317 -0.4151  0.3327
19163TIP3    H178980   0.572   6.468  13.261  0.2141 -1.1579  0.8320
19163TIP3    H278981   0.585   6.449  13.411  2.0081 -1.5346  0.6499
19164TIP3   OH278982   1.721   1.910  13.272 -0.1904  0.1004 -0.3921
19164TIP3    H178983   1.723   2.002  13.300  1.6624  0.0950 -0.3545
19164TIP3    H278984   1.727   1.914  13.176 -2.3252  0.0276 -0.5745
19165TIP3   OH278985   4.348   3.193  12.287  0.2219  0.0312 -0.2370
19165TIP3    H178986   4.331   3.134  12.214  0.7037  0.8178 -1.0090
19165TIP3    H278987   4.443   3.204  12.288  0.1206  1.0319 -0.3133
19166TIP3   OH278988   5.136   3.073  16.745 -0.6936 -0.3266 -0.3169
19166TIP3    H178989   5.200   3.023  16.795 -0.9680  0.2193  0.5952
19166TIP3    H278990   5.161   3.060  16.654  0.8626  0.0726  0.0306
19167TIP3   OH278991   0.301   4.691  12.382 -0.0869 -0.3192  0.2742
19167TIP3    H178992   0.331   4.636  12.310 -0.7404 -0.4277  0.0779
19167TIP3    H278993   0.206   4.677  12.386  0.2067 -2.2010  2.7483
19168TIP3   OH278994   1.284   4.271  16.230  0.1988 -0.1060  0.5300
19168TIP3    H178995   1.193   4.262  16.201  0.1008 -0.9429  1.0801
19168TIP3    H278996   1.321   4.183  16.221  1.1018  0.3199 -0.1467
19169TIP3   OH278997   0.987   6.293  11.582 -0.3654  0.0949 -0.5664
19169TIP3    H178998   0.964   6.201  11.570  2.1401 -0.5807 -0.7180
19169TIP3    H278999   0.919   6.328  11.639 -1.8616 -1.5973 -1.2235
19170TIP3   OH279000   4.599   5.199   2.955 -0.2680  0.6084  0.0645
19170TIP3    H179001   4.589   5.104   2.956 -2.2014  0.7601 -0.3921
19170TIP3    H279002   4.597   5.225   3.047  0.2820  0.2007  0.1901
19171TIP3   OH279003   1.364   5.800   1.536  0.0686 -0.3362  0.3108
19171TIP3    H179004   1.324   5.829   1.618 -1.9581 -1.7305 -0.0828
19171TIP3    H279005   1.384   5.880   1.488  0.1686  0.4646  1.6570
19172TIP3   OH279006   1.942   6.433  16.169  0.4326 -0.0793 -0.1837
19172TIP3    H179007   1.869   6.483  16.205 -0.6858 -2.1858  0.6855
19172TIP3    H279008   2.014   6.447  16.230 -0.8294 -1.9701  1.9107
19173TIP3   OH279009   6.043   4.942  16.086 -0.2760 -0.0239 -0.4374
19173TIP3    H179010   6.095   4.863  16.072 -0.6885 -0.3289 -0.2586
19173TIP3    H279011   5.960   4.910  16.120  0.1711  0.6065  1.3516
19174TIP3   OH279012   2.663   4.365   4.829 -0.5494  0.0055 -0.4119
19174TIP3    H179013   2.606   4.393   4.757  0.2873  0.5621 -0.8707
19174TIP3    H279014   2.748   4.403   4.808 -0.5690  1.1823  1.4891
19175TIP3   OH279015   2.962   6.698   5.237 -0.6463  0.3633 -0.4851
19175TIP3    H179016   3.021   6.626   5.261 -0.8883 -0.2456 -1.6326
19175TIP3    H279017   2.923   6.726   5.320  0.4038  0.0251  0.1442
19176TIP3   OH279018   1.956   0.818   1.654 -0.0170  0.6230 -0.0873
19176TIP3    H179019   1.982   0.750   1.716 -0.9554 -0.4970 -0.8797
19176TIP3    H279020   2.012   0.893   1.676 -1.2214  0.7916  3.0314
19177TIP3   OH279021   0.300   4.276  16.344  0.2767 -0.1435  0.1971
19177TIP3    H179022   0.370   4.243  16.400 -0.2549 -1.8756 -0.0702
19177TIP3    H279023   0.234   4.206  16.346  0.4252 -0.5144 -2.8914
19178TIP3   OH279024   2.079   4.493  13.271 -0.8265  1.1939 -0.0280
19178TIP3    H179025   2.085   4.588  13.274  1.7455  1.1167 -0.2975
19178TIP3    H279026   2.148   4.463  13.329  0.0243 -0.4683 -1.7808
19179TIP3   OH279027   4.047   4.674   2.258 -0.7262  0.2358  0.2532
19179TIP3    H179028   4.110   4.639   2.321 -0.8497 -0.1418  0.1645
19179TIP3    H279029   3.963   4.670   2.303 -0.6879  0.7497  0.3756
19180TIP3   OH279030   2.484   6.318  16.081  0.4126 -0.2025 -0.1469
19180TIP3    H179031   2.459   6.268  16.159 -0.1788 -1.5270 -1.1401
19180TIP3    H279032   2.492   6.252  16.012  1.0838  0.9194 -1.1761
19181TIP3   OH279033   1.020   4.131  16.273 -0.5017 -0.1500  0.2719
19181TIP3    H179034   0.973   4.053  16.244 -0.9649  0.3059 -0.2231
19181TIP3    H279035   1.078   4.100  16.342  0.6383 -1.2667 -1.1359
19182TIP3   OH279036   1.210   6.204   1.459  0.3080  0.0923  0.1588
19182TIP3    H179037   1.186   6.294   1.480 -0.1553 -0.1656  0.7792
19182TIP3    H279038   1.294   6.191   1.502  0.8649  0.5360 -0.7748
19183TIP3   OH279039   5.977   5.047  15.487 -0.3381  0.1429  0.3547
19183TIP3    H179040   6.059   5.094  15.505 -0.3987  0.6217 -0.5802
19183TIP3    H279041   6.005   4.966  15.444 -0.3421  0.2358  0.1749
19184TIP3   OH279042   4.682   4.674   5.885 -0.5575 -0.1294  0.5087
19184TIP3    H179043   4.677   4.767   5.861  1.1968 -0.1301 -0.0145
19184TIP3    H279044   4.591   4.643   5.880 -1.0339  1.2999 -0.3681
19185TIP3   OH279045   4.824   3.033   1.075 -0.1209 -0.2330 -0.1003
19185TIP3    H179046   4.891   3.082   1.123  0.4197 -0.7788 -0.2881
19185TIP3    H279047   4.872   2.963   1.031 -0.6549  0.0372 -1.1539
19186TIP3   OH279048   4.431   5.268  13.376 -0.0008 -0.6668 -0.0160
19186TIP3    H179049   4.436   5.357  13.411  0.2480 -0.9705  0.7244
19186TIP3    H279050   4.510   5.225  13.407  0.5034 -0.7998 -1.3955
19187TIP3   OH279051   6.814   6.250  17.279  0.7193 -0.3618  0.9170
19187TIP3    H179052   6.876   6.293  17.220 -1.3718  0.6168 -0.6932
19187TIP3    H279053   6.788   6.319  17.340 -1.2156  0.2541 -0.4980
19188TIP3   OH279054   6.030   4.840  12.257 -0.2967  0.0521 -0.5419
19188TIP3    H179055   6.026   4.849  12.162  1.2961 -1.5008 -0.8049
19188TIP3    H279056   5.980   4.914  12.290 -0.1570  1.1176 -2.5726
19189TIP3   OH279057   4.665   2.658   5.268 -0.2783  0.3562 -0.6866
19189TIP3    H179058   4.629   2.681   5.353  2.1245  1.9822 -0.0064
19189TIP3    H279059   4.612   2.707   5.205  0.4320  2.4083  0.2399
19190TIP3   OH279060   2.309   1.846  11.461 -0.1378 -0.0592  0.3216
19190TIP3    H179061   2.258   1.828  11.540 -0.5242 -0.7298 -0.0666
19190TIP3    H279062   2.262   1.800  11.392 -0.5827  1.6575 -0.5633
19191TIP3   OH279063   4.431   0.721   1.177  0.1479 -0.2344  0.6530
19191TIP3    H179064   4.466   0.694   1.092  1.5772 -1.8581  1.6915
19191TIP3    H279065   4.354   0.774   1.156  2.0273  1.8190 -1.7308
19192TIP3   OH279066   2.192   3.054  14.217 -0.2783 -0.2130 -0.1285
19192TIP3    H179067   2.277   3.065  14.259  1.5051 -1.3324 -3.1347
19192TIP3    H279068   2.189   3.121  14.150 -1.7384 -0.2987 -0.1937
19193TIP3   OH279069   1.576   4.879  10.797 -0.5294 -0.7033  0.2115
19193TIP3    H179070   1.497   4.826  10.792  0.2716 -1.9011 -0.2015
19193TIP3    H279071   1.587   4.915  10.709 -0.0332 -1.4248 -0.0277
19194TIP3   OH279072   4.120   3.487  11.425  0.5889 -0.0456  0.0271
19194TIP3    H179073   4.073   3.484  11.341 -0.0675 -1.7547  0.4143
19194TIP3    H279074   4.052   3.472  11.491  1.4012 -0.7902  0.7204
19195TIP3   OH279075   2.670   0.472  15.194  0.1313  0.6655  0.2059
19195TIP3    H179076   2.669   0.422  15.112 -0.3604 -0.7464  1.0266
19195TIP3    H279077   2.760   0.501  15.204  0.1335  1.0806 -0.9703
19196TIP3   OH279078   1.785   3.044   3.875 -0.0375 -0.0597 -0.0198
19196TIP3    H179079   1.734   3.030   3.795  0.8052  2.0104 -1.0025
19196TIP3    H279080   1.736   3.111   3.923  0.9949  0.9671 -0.3350
19197TIP3   OH279081   1.348   0.379  14.715  0.1764 -0.3225 -0.0227
19197TIP3    H179082   1.368   0.302  14.664  0.5510 -0.9657  1.0573
19197TIP3    H279083   1.383   0.452  14.665  0.1790 -0.8924 -0.8583
19198TIP3   OH279084   4.231   0.962  14.211 -0.2991  0.4822  0.2432
19198TIP3    H179085   4.170   0.916  14.154  0.0828 -0.5671  0.6650
19198TIP3    H279086   4.204   0.938  14.299  0.9658 -0.3101  0.4246
19199TIP3   OH279087   1.450   0.227  11.536  0.3503  0.4421  0.5096
19199TIP3    H179088   1.358   0.211  11.515  0.2420 -0.2726  1.4571
19199TIP3    H279089   1.484   0.278  11.462 -0.7381  0.4884  0.0365
19200TIP3   OH279090   0.703   6.361   2.882  0.5409  0.0348  0.3180
19200TIP3    H179091   0.792   6.390   2.865  0.2621  0.4564 -0.4608
19200TIP3    H279092   0.650   6.441   2.877 -0.0734 -0.4168 -0.6454
19201TIP3   OH279093   5.404   2.420   0.276  0.3047  0.2813  0.5602
19201TIP3    H179094   5.420   2.498   0.330  2.0867  1.0627 -0.9779
19201TIP3    H279095   5.491   2.395   0.245 -0.4762 -1.1824 -0.5331
19202TIP3   OH279096   3.450   5.827  12.042  0.5087 -0.2139  0.3038
19202TIP3    H179097   3.402   5.905  12.015  1.6349  0.3487 -0.1104
19202TIP3    H279098   3.502   5.855  12.117  0.6030 -0.6833  0.4213
19203TIP3   OH279099   4.061   3.268  15.334  0.0171  0.3101 -0.4791
19203TIP3    H179100   3.990   3.205  15.318  0.8222 -0.6466 -0.3966
19203TIP3    H279101   4.043   3.303  15.421 -0.9849  0.9513 -0.9237
19204TIP3   OH279102   3.495   2.284   5.611 -0.6194  0.0825 -0.0381
19204TIP3    H179103   3.535   2.353   5.665 -1.7060 -0.1532  1.1196
19204TIP3    H279104   3.449   2.229   5.674 -2.0671 -0.1377 -1.2477
19205TIP3   OH279105   1.969   1.244  12.817 -0.5330 -0.7550 -0.3710
19205TIP3    H179106   1.980   1.239  12.912 -2.5493 -0.3207 -0.0749
19205TIP3    H279107   1.903   1.177  12.797 -0.3927 -0.5989 -1.4119
19206TIP3   OH279108   6.776   3.544   1.242  0.6167 -0.1191  0.0590
19206TIP3    H179109   6.738   3.562   1.327  0.6615 -2.9589  0.7782
19206TIP3    H279110   6.703   3.514   1.188  0.8522  0.1628 -0.4279
19207TIP3   OH279111   2.637   4.293  14.255 -0.2945  0.0028 -0.2729
19207TIP3    H179112   2.612   4.357  14.322 -0.7288 -1.7138  1.2980
19207TIP3    H279113   2.614   4.335  14.172  0.4687  2.3107  0.5899
19208TIP3   OH279114   1.616   2.555  14.948  0.1963  0.1012  0.0769
19208TIP3    H179115   1.531   2.583  14.982  0.0068  0.6688 -0.8423
19208TIP3    H279116   1.610   2.570  14.854  0.7235 -1.4056 -0.2203
19209TIP3   OH279117   5.504   1.503  13.418 -0.0602 -0.3546 -0.4290
19209TIP3    H179118   5.585   1.454  13.437  0.5413  0.3948 -1.0030
19209TIP3    H279119   5.460   1.510  13.502  0.9980  0.1386  0.1018
19210TIP3   OH279120   2.153   3.285  11.210  0.5050 -0.3263 -0.4185
19210TIP3    H179121   2.122   3.215  11.153 -1.4678 -0.5748  0.8673
19210TIP3    H279122   2.147   3.365  11.157  0.9421 -0.8417 -1.2717
19211TIP3   OH279123   5.885   1.259   4.364 -0.5731 -0.2017  0.1760
19211TIP3    H179124   5.876   1.198   4.292 -0.5570  0.8977 -0.7889
19211TIP3    H279125   5.805   1.312   4.361 -0.7483 -0.3884  1.2120
19212TIP3   OH279126   4.740   3.331   0.652 -0.0764  0.4195 -0.4990
19212TIP3    H179127   4.760   3.399   0.716  2.2353  0.3868 -1.0722
19212TIP3    H279128   4.708   3.257   0.704 -2.6637  1.8589  0.1299
19213TIP3   OH279129   0.490   3.718  12.665  0.5077 -0.3730 -0.6099
19213TIP3    H179130   0.480   3.786  12.732 -1.7596 -2.4605  1.4020
19213TIP3    H279131   0.405   3.717  12.620  0.9424 -1.0581 -1.4368
19214TIP3   OH279132   2.985   5.631   1.674  0.1202  0.2501 -0.6254
19214TIP3    H179133   2.896   5.624   1.707  0.4110 -3.4803 -0.1930
19214TIP3    H279134   3.038   5.655   1.750 -0.2886  0.4997 -0.4203
19215TIP3   OH279135   3.600   6.157  11.094  0.4603  0.5948 -0.0419
19215TIP3    H179136   3.628   6.163  11.186 -0.6734  0.8055  0.3016
19215TIP3    H279137   3.617   6.067  11.069 -0.1209  0.2721  0.6886
19216TIP3   OH279138   3.814   3.015   1.227 -0.0483 -0.2165 -0.0281
19216TIP3    H179139   3.818   2.926   1.261 -1.7702 -0.5668 -0.6347
19216TIP3    H279140   3.823   3.005   1.132  0.2653  0.3012 -0.0553
19217TIP3   OH279141   1.081   2.511   1.419 -0.0778  0.2235  0.0809
19217TIP3    H179142   1.118   2.423   1.426  1.5912  0.6948 -1.7281
19217TIP3    H279143   1.001   2.499   1.368 -0.3286 -0.3408  0.5943
19218TIP3   OH279144   5.566   4.048   4.682  0.0724  0.4211 -0.1139
19218TIP3    H179145   5.514   4.035   4.603 -0.0576  1.1974 -0.1582
19218TIP3    H279146   5.514   4.008   4.752  0.2555 -0.3976 -0.4321
19219TIP3   OH279147   6.021   3.349  16.317  0.3484 -0.3828  0.3915
19219TIP3    H179148   6.019   3.440  16.287  3.1806 -0.2577  0.2895
19219TIP3    H279149   5.959   3.303  16.261 -1.3330  1.4987  0.6178
19220TIP3   OH279150   6.552   4.732   5.074  0.1268  0.0819  0.0184
19220TIP3    H179151   6.602   4.706   4.997  1.8039 -2.1124  1.7041
19220TIP3    H279152   6.616   4.770   5.133 -0.8336  0.3323  0.9338
19221TIP3   OH279153   4.458   0.814  15.361  0.5079  0.3856 -0.0210
19221TIP3    H179154   4.530   0.754  15.379  1.5851  0.9409 -2.1634
19221TIP3    H279155   4.426   0.840  15.448  2.0075 -0.8894  0.9693
19222TIP3   OH279156   2.866   2.100   4.633  0.1931  0.9580  0.4953
19222TIP3    H179157   2.849   2.166   4.565  0.7898  1.6004  0.9610
19222TIP3    H279158   2.779   2.068   4.658 -0.0004 -1.1436 -2.3333
19223TIP3   OH279159   2.351   0.585   2.837 -0.1517  0.1323  0.5121
19223TIP3    H179160   2.387   0.672   2.820 -1.1252  0.2758 -1.1141
19223TIP3    H279161   2.346   0.579   2.932 -1.8414  2.6474  0.6922
19224TIP3   OH279162   6.147   1.101   4.670 -0.4493  0.0767  0.5414
19224TIP3    H179163   6.120   1.009   4.663 -0.6010  0.2182 -1.0814
19224TIP3    H279164   6.066   1.151   4.657 -0.6216  0.4617  2.7581
19225TIP3   OH279165   0.968   4.750   4.652  0.1322  0.7860 -0.5296
19225TIP3    H179166   1.025   4.798   4.712  1.2467 -0.1403 -0.8253
19225TIP3    H279167   1.006   4.663   4.647 -1.0181  0.3049 -1.1523
19226TIP3   OH279168   2.240   0.227   3.878  0.8524  0.1541 -0.1058
19226TIP3    H179169   2.214   0.260   3.792 -1.1871 -0.8180  0.0678
19226TIP3    H279170   2.244   0.305   3.933 -0.9026  0.4973 -0.3948
19227TIP3   OH279171   1.923   3.867  13.085 -0.2345  0.2815  0.2395
19227TIP3    H179172   1.872   3.849  13.007  1.0379 -0.5543 -0.4406
19227TIP3    H279173   1.886   3.948  13.120 -0.4445  1.0255 -1.5810
19228TIP3   OH279174   4.720   6.726  13.215  0.0454 -0.0865  0.1082
19228TIP3    H179175   4.781   6.653  13.213  1.2708  0.9177 -0.8164
19228TIP3    H279176   4.667   6.715  13.136 -0.4327 -0.4894  0.4747
19229TIP3   OH279177   5.323   2.116   2.327 -0.6530  0.0584 -0.3330
19229TIP3    H179178   5.385   2.179   2.292 -1.4791  0.4098 -1.2113
19229TIP3    H279179   5.293   2.155   2.409  0.0639  0.0126 -0.0401
19230TIP3   OH279180   5.475   3.385   6.318  0.0818  0.3940  0.1674
19230TIP3    H179181   5.451   3.329   6.244 -0.3700 -0.3053  0.8258
19230TIP3    H279182   5.392   3.408   6.359  0.3186  0.9084  0.3685
19231TIP3   OH279183   1.105   0.359  11.148  0.1031  0.0941  0.2196
19231TIP3    H179184   1.108   0.445  11.189 -0.7023  0.4978 -0.5165
19231TIP3    H279185   1.187   0.353  11.099 -0.5902  1.2113 -1.1572
19232TIP3   OH279186   2.584   4.143  11.120 -0.0618  0.2375  0.3791
19232TIP3    H179187   2.494   4.134  11.089  0.1147 -1.3181  0.2546
19232TIP3    H279188   2.593   4.077  11.189  1.1099  0.0680  0.0870
19233TIP3   OH279189   5.882   3.178  14.535  0.4869 -0.4692  0.0449
19233TIP3    H179190   5.932   3.252  14.569 -0.4295 -0.3271  1.1309
19233TIP3    H279191   5.934   3.146  14.461  1.6685  0.2933  0.5198
19234TIP3   OH279192   3.062   2.570  13.715 -0.0176 -0.3583  0.2925
19234TIP3    H179193   2.994   2.563  13.649 -0.7636 -1.0279  1.1152
19234TIP3    H279194   3.031   2.517  13.788  2.4156 -2.6344 -0.1520
19235TIP3   OH279195   4.513   3.213   5.863 -0.0074  0.2237  0.5130
19235TIP3    H179196   4.442   3.207   5.799 -0.9080  1.2750  1.3708
19235TIP3    H279197   4.472   3.195   5.947  1.2148 -1.4240  0.8157
19236TIP3   OH279198   5.774   3.576  13.534  0.1594  0.2580 -0.0186
19236TIP3    H179199   5.753   3.641  13.467  0.7544  0.6056  0.1241
19236TIP3    H279200   5.782   3.494  13.486 -0.7562  0.2467 -0.1757
19237TIP3   OH279201   5.688   5.155   2.125 -0.4810 -0.5450 -0.3388
19237TIP3    H179202   5.670   5.062   2.113  0.5731 -0.8271  0.1131
19237TIP3    H279203   5.677   5.193   2.038 -1.8043 -0.9151 -0.3594
19238TIP3   OH279204   5.733   4.754  15.182  0.7949  0.0452  0.2043
19238TIP3    H179205   5.646   4.779  15.151  0.9200  0.7555  0.4208
19238TIP3    H279206   5.719   4.727  15.273  1.0766  1.9720  0.8652
19239TIP3   OH279207   1.607   0.507  12.348 -0.7306  0.0869  0.3840
19239TIP3    H179208   1.545   0.543  12.284  0.9210  1.4524 -0.5281
19239TIP3    H279209   1.665   0.579  12.368  0.6373 -1.1728  1.1390
19240TIP3   OH279210   6.380   2.220  16.635 -0.2062  0.9657 -0.6399
19240TIP3    H179211   6.338   2.174  16.562  0.9658  1.3661 -1.6063
19240TIP3    H279212   6.464   2.176  16.647 -0.4985  0.7190  0.6918
19241TIP3   OH279213   5.633   5.608  16.117  0.0614  0.4929  0.0456
19241TIP3    H179214   5.541   5.622  16.140 -0.5101  0.1119 -1.8492
19241TIP3    H279215   5.680   5.627  16.198 -1.7778 -0.8876  1.5573
19242TIP3   OH279216   6.758   1.046   3.807 -0.1971  0.0978  0.7747
19242TIP3    H179217   6.728   0.957   3.829 -1.1516  0.3965  0.7192
19242TIP3    H279218   6.800   1.077   3.887  1.2321 -0.8411  0.4263
19243TIP3   OH279219   2.808   0.691  15.358 -0.6718 -0.3049  0.3075
19243TIP3    H179220   2.872   0.762  15.349 -1.5127  0.7037  1.7484
19243TIP3    H279221   2.857   0.619  15.397  0.3032 -0.7295 -1.5899
19244TIP3   OH279222   5.865   3.764  11.991  0.2139 -0.4146 -0.0018
19244TIP3    H179223   5.787   3.746  11.938  0.3967  0.5368 -0.6257
19244TIP3    H279224   5.850   3.852  12.027 -0.2304 -1.3098  2.1627
19245TIP3   OH279225   1.594   1.834  17.077  0.0372  0.2317  0.4317
19245TIP3    H179226   1.573   1.741  17.067 -1.3177  0.7691 -3.3187
19245TIP3    H279227   1.675   1.835  17.128  0.3088 -3.0046  0.2861
19246TIP3   OH279228   0.922   4.007  11.169 -0.0988  0.6420 -0.9264
19246TIP3    H179229   0.871   3.927  11.172  0.8233  0.0679 -0.0110
19246TIP3    H279230   0.964   4.006  11.083  0.6616 -0.3422 -0.5505
19247TIP3   OH279231   4.128   2.977  15.959  0.1654 -0.0385 -0.1467
19247TIP3    H179232   4.220   3.002  15.957  0.6138 -1.6039 -0.3077
19247TIP3    H279233   4.126   2.889  15.921 -1.2108 -0.5880  1.0993
19248TIP3   OH279234   0.905   3.784   1.617  0.1686 -0.0476  0.3627
19248TIP3    H179235   0.893   3.695   1.650  0.3059 -1.0203 -2.0268
19248TIP3    H279236   0.826   3.830   1.644  0.1289 -0.8475  1.7137
19249TIP3   OH279237   6.005   2.401  15.211  0.7120 -0.1505  0.1098
19249TIP3    H179238   6.024   2.319  15.165  0.5857 -0.4071  0.5081
19249TIP3    H279239   6.032   2.385  15.301  1.4569  0.5358  0.0163
19250TIP3   OH279240   2.758   3.050  12.552 -0.6292  0.3413  0.0685
19250TIP3    H179241   2.763   3.112  12.479 -1.0808  0.6353  0.2820
19250TIP3    H279242   2.814   2.977  12.525  0.8598  1.3422  0.3302
19251TIP3   OH279243   4.089   2.026  11.247  0.4436 -0.0680  0.2367
19251TIP3    H179244   4.143   1.951  11.272 -0.7968 -0.6579  1.2139
19251TIP3    H279245   4.056   2.003  11.160  1.8555  0.3693 -0.4397
19252TIP3   OH279246   4.288   3.691   0.073 -0.3820 -0.1675 -0.4978
19252TIP3    H179247   4.327   3.604   0.087 -0.3679 -0.1726 -0.5701
19252TIP3    H279248   4.362   3.747   0.053 -0.3239 -0.0173  0.1167
19253TIP3   OH279249   3.626   4.337  15.784 -0.3771  0.0700  0.4787
19253TIP3    H179250   3.669   4.412  15.743  1.0385 -0.4905  0.8570
19253TIP3    H279251   3.626   4.357  15.877 -0.1803 -0.2944  0.5612
19254TIP3   OH279252   3.624   6.769   2.795  0.3403 -0.4962  0.3220
19254TIP3    H179253   3.645   6.860   2.779 -0.8259  0.0838  1.8097
19254TIP3    H279254   3.701   6.733   2.839  0.4315  0.0521  0.6188
19255TIP3   OH279255   5.488   5.045   1.764  0.4181  0.1614  0.0119
19255TIP3    H179256   5.523   5.058   1.676 -1.1247 -0.2491 -0.7024
19255TIP3    H279257   5.565   5.038   1.820  1.4790 -0.9118 -1.5038
19256TIP3   OH279258   6.367   3.099   4.647 -0.1992 -0.1727  0.1448
19256TIP3    H179259   6.295   3.076   4.588 -0.6545  0.5751  0.3988
19256TIP3    H279260   6.394   3.187   4.619  3.7473 -2.0565 -3.0441
19257TIP3   OH279261   4.644   5.934   0.701  0.4174  0.2822  0.2735
19257TIP3    H179262   4.575   5.876   0.669  0.5843  0.1068  0.2265
19257TIP3    H279263   4.598   6.012   0.732  0.2603  0.4839 -0.4532
19258TIP3   OH279264   2.555   0.021  14.078  0.0520 -0.1735  0.1643
19258TIP3    H179265   2.498   0.005  14.002  1.8233  1.8456 -1.7286
19258TIP3    H279266   2.590  -0.065  14.100 -0.3536 -0.7965 -1.4533
19259TIP3   OH279267   0.850   4.106   5.575  0.2114 -0.2492 -0.4633
19259TIP3    H179268   0.905   4.152   5.511 -0.5286  0.2903 -0.7272
19259TIP3    H279269   0.829   4.173   5.641 -0.6689 -0.2573 -0.7170
19260TIP3   OH279270   2.823   4.169  11.593  0.1089 -0.5664 -0.1431
19260TIP3    H179271   2.842   4.137  11.505  0.2944  1.3438 -0.8426
19260TIP3    H279272   2.763   4.242  11.579  1.5463  0.9392  1.1524
19261TIP3   OH279273   3.656   1.580   2.903  0.0239  0.0574  0.1375
19261TIP3    H179274   3.662   1.599   2.810 -0.2804 -2.0651 -0.3724
19261TIP3    H279275   3.562   1.570   2.920  0.1495 -1.2355  0.2444
19262TIP3   OH279276   6.747   3.695  15.427 -0.3853 -0.3016 -0.2171
19262TIP3    H179277   6.770   3.755  15.356  0.1742  1.3537  1.2838
19262TIP3    H279278   6.654   3.709  15.441 -0.7502 -1.4536 -1.3158
19263TIP3   OH279279   2.563   4.082  12.739  0.3302  0.9669 -0.2657
19263TIP3    H179280   2.629   4.132  12.786  1.0124 -1.3187  1.4054
19263TIP3    H279281   2.519   4.031  12.807 -0.7313 -0.2094 -1.7587
19264TIP3   OH279282   2.315   6.753  16.241 -0.4133  0.0493 -0.7446
19264TIP3    H179283   2.258   6.721  16.311  0.6317 -0.2406 -0.0083
19264TIP3    H279284   2.315   6.848  16.253 -1.7592  0.1768 -1.5648
19265TIP3   OH279285   0.869   0.413   5.331  0.4675 -0.4175 -0.7689
19265TIP3    H179286   0.823   0.330   5.323 -2.2511  1.0985 -2.0670
19265TIP3    H279287   0.956   0.389   5.364 -0.8778 -3.5384  0.9101
19266TIP3   OH279288   0.422   1.242   6.515  0.4758  0.1714  0.0078
19266TIP3    H179289   0.464   1.221   6.599  0.9058  0.3130 -0.1697
19266TIP3    H279290   0.472   1.317   6.482 -1.6203  2.1798  1.0973
19267TIP3   OH279291   6.343   2.835  16.888 -0.0301 -0.3160 -0.2443
19267TIP3    H179292   6.330   2.926  16.862 -0.4587 -0.5446 -0.8477
19267TIP3    H279293   6.388   2.794  16.813 -2.1071 -1.2048 -1.0724
19268TIP3   OH279294   0.029   6.243   6.299  0.0354 -0.0323  0.0967
19268TIP3    H179295   0.056   6.292   6.221 -1.0774  0.4462 -0.0129
19268TIP3    H279296   0.087   6.274   6.368 -0.6887  1.5420  0.0505
19269TIP3   OH279297   5.223   3.075  10.646  0.2357 -0.3517  0.4734
19269TIP3    H179298   5.296   3.078  10.585 -1.6565 -0.2878 -1.9651
19269TIP3    H279299   5.182   2.990  10.631 -1.1945  0.2936  0.4430
19270TIP3   OH279300   0.174   2.934  11.360 -0.0745 -0.3619 -0.7174
19270TIP3    H179301   0.136   2.968  11.280 -1.0213 -1.3365 -0.7164
19270TIP3    H279302   0.256   2.893  11.332 -0.1989 -0.3414 -1.1191
19271TIP3   OH279303   3.872   5.734  15.209 -0.1896  0.5997 -0.0020
19271TIP3    H179304   3.952   5.684  15.193 -0.2535  0.6617 -0.5318
19271TIP3    H279305   3.903   5.824  15.225 -0.1204  0.5231  0.2999
19272TIP3   OH279306   5.451   5.271   3.970  0.2554  0.2826  0.9210
19272TIP3    H179307   5.496   5.268   3.886  0.5811 -1.5652  1.1347
19272TIP3    H279308   5.360   5.250   3.949  0.6944 -2.1511  1.2196
19273TIP3   OH279309   3.456   5.547  14.978 -0.4822  0.5426 -0.6059
19273TIP3    H179310   3.501   5.622  15.014 -0.3112  0.3078 -0.3287
19273TIP3    H279311   3.380   5.535  15.034  0.3207 -0.4389  0.3091
19274TIP3   OH279312   6.267   2.928   2.553  0.3402 -0.1215  0.9141
19274TIP3    H179313   6.299   2.998   2.609 -1.1769  1.6075 -0.2731
19274TIP3    H279314   6.207   2.971   2.493  0.2298 -2.2730 -0.6216
19275TIP3   OH279315   5.557   6.277   1.020  0.3342  0.3969  0.2243
19275TIP3    H179316   5.624   6.309   0.959 -0.4396 -0.2168 -0.9846
19275TIP3    H279317   5.489   6.344   1.019 -0.4384 -0.3789 -0.8867
19276TIP3   OH279318   0.411   0.405   0.845 -0.7464 -0.3127  0.2037
19276TIP3    H179319   0.434   0.486   0.798  0.5886 -0.8598 -0.1598
19276TIP3    H279320   0.391   0.434   0.934  0.4779  0.3673  0.2933
19277TIP3   OH279321   0.658   3.306   2.449 -0.1505  0.6108  0.0172
19277TIP3    H179322   0.606   3.303   2.529 -0.0070 -0.0861  0.0881
19277TIP3    H279323   0.723   3.237   2.460 -0.8173 -0.2264 -1.1738
19278TIP3   OH279324   2.702   5.065   1.820 -0.3421 -0.4669  0.0666
19278TIP3    H179325   2.673   5.151   1.790 -0.2486 -0.5785 -0.3493
19278TIP3    H279326   2.684   5.006   1.747  0.2517 -0.6706  0.0823
19279TIP3   OH279327   3.686   3.469  11.552 -0.2182  0.2233  0.6910
19279TIP3    H179328   3.695   3.377  11.528  3.1064  0.5667  0.0821
19279TIP3    H279329   3.599   3.476  11.592 -1.1960 -2.8119 -0.6460
19280TIP3   OH279330   3.526   0.886  15.900  0.5071  0.0823 -0.3971
19280TIP3    H179331   3.507   0.828  15.974 -0.9018  1.4609  0.3834
19280TIP3    H279332   3.612   0.858  15.869  0.3846 -1.6501  0.6722
19281TIP3   OH279333   6.459   4.444   5.428  0.3418 -0.4813 -0.0036
19281TIP3    H179334   6.550   4.465   5.451  0.2806  0.7457 -0.7801
19281TIP3    H279335   6.418   4.530   5.416 -0.9814 -1.0146  0.5296
19282TIP3   OH279336   2.512   0.070   2.232  0.4419 -0.1385 -0.2763
19282TIP3    H179337   2.470   0.150   2.265  0.6939 -0.1503  0.0707
19282TIP3    H279338   2.557   0.033   2.307  0.9071 -0.2401 -0.5979
19283TIP3   OH279339   1.641   6.073  17.118 -0.2769 -0.1021 -0.5092
19283TIP3    H179340   1.604   6.016  17.051 -1.6745 -1.5394  1.3713
19283TIP3    H279341   1.579   6.146  17.124 -1.2626 -0.9937  0.5598
19284TIP3   OH279342   1.239   6.558  16.022 -0.2243  0.0207 -0.1589
19284TIP3    H179343   1.301   6.601  15.964  0.7420 -0.8285  0.2010
19284TIP3    H279344   1.294   6.503  16.079 -1.3346 -1.1376 -0.1580
19285TIP3   OH279345   5.436   3.079  12.844  0.3151  0.5486 -0.2858
19285TIP3    H179346   5.397   3.116  12.923  0.0803 -0.4612  0.0915
19285TIP3    H279347   5.464   3.154  12.793  1.7241  1.1996  1.3829
19286TIP3   OH279348   0.606   6.074   4.012 -0.2344  0.3574  0.2530
19286TIP3    H179349   0.613   6.123   3.930  0.2542  1.1648  0.7684
19286TIP3    H279350   0.574   5.988   3.985  1.3017  0.1108 -0.9715
19287TIP3   OH279351   5.156   2.672   2.051  0.1377  0.3318 -0.2558
19287TIP3    H179352   5.093   2.617   2.005 -1.3496  0.7998  1.1405
19287TIP3    H279353   5.186   2.619   2.124 -1.6953  1.4596  1.4078
19288TIP3   OH279354   2.014   0.972   5.686  0.2450  0.2288  0.3673
19288TIP3    H179355   2.012   1.062   5.717 -1.3700  1.4549 -2.7977
19288TIP3    H279356   2.096   0.965   5.637  0.4444 -0.0936  0.7408
19289TIP3   OH279357   1.798   0.186   2.354 -0.0935  0.5066 -0.4930
19289TIP3    H179358   1.769   0.164   2.443  0.0683  1.9569 -0.0526
19289TIP3    H279359   1.808   0.281   2.355  0.9211  0.4382 -1.7730
19290TIP3   OH279360   6.521   1.293   4.733 -0.3224  0.3889  0.2759
19290TIP3    H179361   6.493   1.264   4.819  0.4746 -0.8108  0.1629
19290TIP3    H279362   6.476   1.235   4.672  0.6459 -0.1079 -0.0001
19291TIP3   OH279363   6.753   1.275   3.149 -0.4154  0.0159  0.8402
19291TIP3    H179364   6.727   1.184   3.141 -1.5502  0.4976 -2.2306
19291TIP3    H279365   6.849   1.274   3.139 -0.5404 -0.7451 -0.4054
19292TIP3   OH279366   2.342   4.297  13.614  0.4204  0.0907  0.0849
19292TIP3    H179367   2.288   4.260  13.545 -0.5994  2.5889 -0.5535
19292TIP3    H279368   2.420   4.241  13.617 -0.3874 -1.2014 -1.7542
19293TIP3   OH279369   2.191   4.588  11.250  0.3748  0.2652 -0.3641
19293TIP3    H179370   2.102   4.615  11.227  0.6122 -0.7041 -2.6290
19293TIP3    H279371   2.198   4.607  11.343 -2.4354 -0.2476  0.0399
19294TIP3   OH279372   5.608   2.812  14.560  0.3777 -0.1077  0.3718
19294TIP3    H179373   5.634   2.775  14.644 -0.1418 -1.7313 -0.1447
19294TIP3    H279374   5.615   2.907  14.572 -1.0174 -0.2256  2.6732
19295TIP3   OH279375   2.641   5.481  13.852 -0.5957  0.0065  0.1210
19295TIP3    H179376   2.583   5.476  13.776 -0.9609 -2.7978  0.4522
19295TIP3    H279377   2.583   5.467  13.927  0.1828 -0.5537  0.6336
19296TIP3   OH279378   3.084   2.129   0.663  0.0532 -0.1252 -0.2193
19296TIP3    H179379   3.039   2.055   0.704  1.0808  0.0703  1.3311
19296TIP3    H279380   3.163   2.091   0.626 -0.9057 -0.3135 -2.1740
19297TIP3   OH279381   0.686   1.271   0.886  0.2953  0.4065 -0.2919
19297TIP3    H179382   0.719   1.204   0.946  1.6476  0.6204 -0.7583
19297TIP3    H279383   0.748   1.344   0.895 -0.1050  0.8693 -1.1508
19298TIP3   OH279384   5.671   5.886   4.876  0.0834  0.2920  0.3803
19298TIP3    H179385   5.734   5.820   4.903  1.7026  1.5639 -0.1609
19298TIP3    H279386   5.591   5.864   4.924  0.5328 -2.0640  0.1751
19299TIP3   OH279387   3.717   3.323   3.235  0.0230  0.1772  0.8182
19299TIP3    H179388   3.712   3.401   3.289  0.4674  0.0390  1.0640
19299TIP3    H279389   3.726   3.356   3.146 -2.7218  0.4338  0.5521
19300TIP3   OH279390   1.105   5.468  15.637  0.6123 -0.0958 -0.0457
19300TIP3    H179391   1.061   5.500  15.558  0.6702  1.2521  0.4417
19300TIP3    H279392   1.046   5.400  15.671 -0.6155  0.9664  0.0377
19301TIP3   OH279393   6.745   5.124  14.792 -0.1984 -0.4174  0.2875
19301TIP3    H179394   6.762   5.170  14.874 -0.7381  1.5638 -0.6376
19301TIP3    H279395   6.678   5.176  14.749 -1.7105 -2.7589 -0.3736
19302TIP3   OH279396   4.927   5.482   4.016 -0.3729 -0.2957  0.1707
19302TIP3    H179397   4.871   5.557   3.996  0.0760  0.5239  1.7610
19302TIP3    H279398   4.905   5.459   4.107  1.0836 -0.6317  0.4771
19303TIP3   OH279399   4.765   0.062  17.034 -0.0994 -0.2779 -0.1677
19303TIP3    H179400   4.709   0.064  16.957 -1.4442  0.8437  0.7853
19303TIP3    H279401   4.813   0.145  17.032 -0.5691  0.0224  0.4750
19304TIP3   OH279402   3.751   2.743  16.128  0.4054 -0.4085 -0.2990
19304TIP3    H179403   3.670   2.692  16.124  0.5709 -0.6195 -1.3382
19304TIP3    H279404   3.795   2.725  16.044  1.5966 -0.4166  0.3028
19305TIP3   OH279405   1.600   4.485  14.964  0.3186  0.5078 -0.7680
19305TIP3    H179406   1.594   4.542  15.041  1.7725 -1.7952  1.1646
19305TIP3    H279407   1.692   4.487  14.940  0.3240 -0.6958 -0.8916
19306TIP3   OH279408   0.930   3.484   4.109  0.4912 -0.2905  0.1669
19306TIP3    H179409   1.021   3.455   4.116  0.7922  0.6096  0.1133
19306TIP3    H279410   0.936   3.578   4.092 -0.3862 -0.6085 -2.3149
19307TIP3   OH279411   6.238   1.601   0.816  0.2444 -0.1179  0.3634
19307TIP3    H179412   6.311   1.542   0.835  0.8969  1.1741  2.1588
19307TIP3    H279413   6.278   1.674   0.770 -0.0777  0.1552  0.5121
19308TIP3   OH279414   1.219   1.681   0.107 -0.9401 -0.2766  0.1384
19308TIP3    H179415   1.156   1.681   0.179  1.4278 -2.5974  2.4228
19308TIP3    H279416   1.201   1.600   0.060  0.1165 -0.8528  0.6836
19309TIP3   OH279417   4.035   3.964  11.771  0.3577 -0.1826  0.2670
19309TIP3    H179418   4.001   3.887  11.725  0.1670  0.0457  0.0196
19309TIP3    H279419   3.969   3.983  11.837 -1.3303  1.7490 -1.7930
19310TIP3   OH279420   2.245   5.728  12.591  0.2249 -0.6158  0.6019
19310TIP3    H179421   2.230   5.722  12.497  0.3982  2.1350  0.3169
19310TIP3    H279422   2.335   5.695  12.603  0.7186  0.3011 -0.4289
19311TIP3   OH279423   2.866   0.945  16.239 -0.8184  0.0489  0.5158
19311TIP3    H179424   2.903   0.857  16.245 -1.5254 -0.2275  0.8749
19311TIP3    H279425   2.897   0.978  16.154  0.9467  0.1614  1.1522
19312TIP3   OH279426   1.125   2.471   4.103 -0.2049  0.6445  0.2327
19312TIP3    H179427   1.123   2.501   4.012 -2.1139 -0.0857 -0.0170
19312TIP3    H279428   1.033   2.469   4.130  0.1487 -1.0529  1.5296
19313TIP3   OH279429   0.458   1.092   3.670  0.1511  0.0690  0.0285
19313TIP3    H179430   0.373   1.107   3.629  0.1735  0.2957  0.0632
19313TIP3    H279431   0.521   1.133   3.611  0.0352  1.9454  1.1221
19314TIP3   OH279432   2.992   2.691   2.066 -0.1772 -0.5831 -0.2493
19314TIP3    H179433   3.020   2.660   1.979 -0.2733 -1.7319  0.1038
19314TIP3    H279434   2.913   2.742   2.049 -0.9884 -1.9448 -0.7308
19315TIP3   OH279435   0.909   0.948  15.525  0.1785 -0.0795  0.0171
19315TIP3    H179436   0.845   0.993  15.469 -0.9493 -1.4569  0.1370
19315TIP3    H279437   0.909   0.999  15.606 -0.8719 -0.1381  0.0643
19316TIP3   OH279438   2.102   5.553   2.782 -0.2352  0.2630  0.3257
19316TIP3    H179439   2.052   5.630   2.810 -0.1421  0.6172 -0.4238
19316TIP3    H279440   2.160   5.587   2.713  1.6022  0.0303  1.6825
19317TIP3   OH279441   5.920   0.919   3.820 -0.4943  0.4563 -0.1859
19317TIP3    H179442   5.828   0.924   3.796 -0.3591  0.0826 -0.8193
19317TIP3    H279443   5.948   0.832   3.789  0.5754  1.3469 -1.8692
19318TIP3   OH279444   6.806   3.916   6.762 -0.5809 -0.1855 -0.1221
19318TIP3    H179445   6.886   3.904   6.712 -0.3679 -1.1768  0.4361
19318TIP3    H279446   6.778   4.005   6.742 -0.4680 -0.5222 -1.9475
19319TIP3   OH279447   1.447   2.183  11.659  0.2283  0.0759 -0.6721
19319TIP3    H179448   1.535   2.148  11.646  0.7824 -0.6084  3.6057
19319TIP3    H279449   1.460   2.276  11.673  0.2642  0.0285 -0.3743
19320TIP3   OH279450   3.394   5.713   2.074  0.5356 -0.0364  0.1226
19320TIP3    H179451   3.407   5.796   2.029  1.7497 -0.5668 -0.5674
19320TIP3    H279452   3.313   5.724   2.123  0.6686  1.5421  0.0337
19321TIP3   OH279453   1.275   5.302   4.063 -0.1972  0.2348  0.1712
19321TIP3    H179454   1.214   5.354   4.011 -0.3247  0.8270  0.9025
19321TIP3    H279455   1.223   5.267   4.135  0.1317 -0.0091  0.2992
19322TIP3   OH279456   5.269   6.500  11.364  0.5143 -0.1247 -0.1742
19322TIP3    H179457   5.197   6.509  11.301  0.0556 -1.5796  0.0967
19322TIP3    H279458   5.309   6.415  11.343  0.6832 -0.3923  1.1413
19323TIP3   OH279459   0.192   1.344   0.663  0.2124 -0.0721 -0.0955
19323TIP3    H179460   0.186   1.390   0.579 -0.3364  2.1553  1.0860
19323TIP3    H279461   0.284   1.354   0.689  0.1436  0.1754  0.0564
19324TIP3   OH279462   4.373   1.159  10.134  0.0482 -0.3737 -0.3499
19324TIP3    H179463   4.397   1.222  10.066  1.8309 -0.0304  0.5382
19324TIP3    H279464   4.456   1.122  10.163 -0.9454 -3.5367 -1.1276
19325TIP3   OH279465   2.651   4.099   1.002  0.2603  0.0315  0.1095
19325TIP3    H179466   2.718   4.126   0.939  1.8836 -1.2094  1.2187
19325TIP3    H279467   2.633   4.008   0.980 -0.6378  0.1743  0.2188
19326TIP3   OH279468   4.173   5.833   1.953 -0.0371 -0.0303 -0.1224
19326TIP3    H179469   4.231   5.901   1.919  1.2260  0.1435  2.2056
19326TIP3    H279470   4.228   5.781   2.012 -1.4686 -1.8856 -0.3251
19327TIP3   OH279471   4.500   0.468   5.985 -0.5555 -0.5019  0.3579
19327TIP3    H179472   4.430   0.469   6.050 -1.7438 -0.5482 -0.8826
19327TIP3    H279473   4.483   0.546   5.932  0.2187 -0.6355 -0.0871
19328TIP3   OH279474   2.974   1.097  15.103 -0.4249 -0.2263  0.8246
19328TIP3    H179475   2.980   1.120  15.011 -2.1532 -0.6589  0.5751
19328TIP3    H279476   3.002   1.176  15.150 -0.2584  0.2404 -0.0548
19329TIP3   OH279477   1.515   2.393  13.993 -0.2444  0.0753 -0.0559
19329TIP3    H179478   1.608   2.384  13.969  0.3874  1.0569  1.8681
19329TIP3    H279479   1.477   2.307  13.972  1.0524 -0.2932 -1.0315
19330TIP3   OH279480   1.713   4.879   3.842 -0.0858  0.2566 -0.2529
19330TIP3    H179481   1.673   4.855   3.926  0.2020  0.0463 -0.1739
19330TIP3    H279482   1.786   4.818   3.832 -0.3807 -0.0088 -0.8694
19331TIP3   OH279483   6.277   6.193   3.177 -0.2123  0.5644 -0.1645
19331TIP3    H179484   6.250   6.164   3.090 -0.3557  0.4886 -0.0936
19331TIP3    H279485   6.316   6.116   3.217 -0.5802  0.4721  0.0183
19332TIP3   OH279486   3.215   5.841   5.182  0.6858  0.2839 -0.2463
19332TIP3    H179487   3.126   5.806   5.182  0.6875  0.2722 -0.8081
19332TIP3    H279488   3.254   5.808   5.263  0.1336  0.4138  0.0739
19333TIP3   OH279489   1.446   6.707   4.948 -0.1115 -0.1996  0.1979
19333TIP3    H179490   1.403   6.666   5.023  0.0129 -1.1332 -0.2236
19333TIP3    H279491   1.534   6.667   4.947  0.1067  0.2773 -0.0718
19334TIP3   OH279492   3.704   5.367  14.253 -0.1778  0.6987  1.2353
19334TIP3    H179493   3.631   5.315  14.286  0.5185 -0.6151  0.8023
19334TIP3    H279494   3.764   5.374  14.328  0.5950 -0.7843  0.7972
19335TIP3   OH279495   2.894   3.682  11.136 -0.2147 -0.1582 -0.1280
19335TIP3    H179496   2.964   3.620  11.154  0.1628  0.7656  1.9146
19335TIP3    H279497   2.814   3.635  11.156 -0.0080 -0.4054  0.1217
19336TIP3   OH279498   3.630   6.076  15.290 -0.0552 -0.0676  0.0780
19336TIP3    H179499   3.679   6.070  15.208  0.8165  1.5423  0.4329
19336TIP3    H279500   3.647   5.993  15.334  1.9377  0.2079 -0.0653
19337TIP3   OH279501   6.786   5.935   0.784  0.4395 -0.1068 -0.0328
19337TIP3    H179502   6.779   5.872   0.712 -2.0104 -1.0494  0.9393
19337TIP3    H279503   6.824   6.013   0.743  2.2684 -1.6900 -1.5719
19338TIP3   OH279504   2.760   5.552  12.034  0.7641  0.0273 -0.3340
19338TIP3    H179505   2.709   5.633  12.041 -0.3414 -0.6187 -0.6674
19338TIP3    H279506   2.843   5.579  11.995  1.5901  1.4762  2.1616
19339TIP3   OH279507   6.614   3.150  16.852  0.8050  0.1009  0.0095
19339TIP3    H179508   6.684   3.086  16.870  0.4396 -0.5468 -0.8375
19339TIP3    H279509   6.596   3.189  16.938  2.1350  0.2144  0.2657
19340TIP3   OH279510   2.406   4.802  12.782  0.4494 -0.0184 -0.0484
19340TIP3    H179511   2.327   4.763  12.819 -0.0619  1.1667  0.1564
19340TIP3    H279512   2.450   4.730  12.738 -1.0547 -0.5917 -0.6779
19341TIP3   OH279513   5.686   1.596  15.078  0.1150  0.4825  0.2195
19341TIP3    H179514   5.651   1.529  15.020  1.0827 -0.1360  0.3404
19341TIP3    H279515   5.633   1.588  15.157 -0.4949  0.6067 -0.1665
19342TIP3   OH279516   1.085   2.992  13.429 -0.4480 -0.0851 -0.2671
19342TIP3    H179517   1.173   3.027  13.445 -0.1895  0.0517 -1.7943
19342TIP3    H279518   1.092   2.899  13.450 -0.3069  0.1827  0.8967
19343TIP3   OH279519   0.751   0.387  12.149 -0.0197  0.4408 -0.1222
19343TIP3    H179520   0.811   0.446  12.103  1.2189 -1.0849 -0.5459
19343TIP3    H279521   0.746   0.309  12.094 -1.0290 -0.1586  0.7694
19344TIP3   OH279522   6.301   0.335  13.560  0.8338 -0.0819 -0.1280
19344TIP3    H179523   6.236   0.269  13.586  0.0162  0.3391 -1.0210
19344TIP3    H279524   6.306   0.394  13.634  2.0093 -1.4308  0.9347
19345TIP3   OH279525   0.024   0.369  13.467  0.1569  0.1095  0.2135
19345TIP3    H179526  -0.015   0.291  13.506  0.1932  0.7855  1.6642
19345TIP3    H279527   0.091   0.335  13.408  1.4530 -0.9790  2.1974
19346TIP3   OH279528   0.873   6.464   0.780  0.5749 -0.4228  0.0050
19346TIP3    H179529   0.967   6.446   0.783  0.7426 -0.1714 -2.3210
19346TIP3    H279530   0.868   6.560   0.785  0.6071 -0.3006 -1.6879
19347TIP3   OH279531   6.074   4.436  15.689  0.1867  0.1277 -0.1094
19347TIP3    H179532   6.102   4.526  15.707 -0.9274  0.1261  1.9070
19347TIP3    H279533   5.980   4.443  15.672  0.1967 -0.5863 -0.4730
19348TIP3   OH279534   4.345   2.535   6.153 -0.0111  0.5841 -0.0165
19348TIP3    H179535   4.313   2.613   6.198 -1.9691  0.1473 -0.5695
19348TIP3    H279536   4.280   2.467   6.171  2.7723 -1.7227  2.4027
19349TIP3   OH279537   0.420   1.866  16.612  0.0323 -0.3761  0.8874
19349TIP3    H179538   0.420   1.916  16.694 -1.2291 -1.0798  1.3466
19349TIP3    H279539   0.490   1.802  16.622  1.8950  1.4276  0.1658
19350TIP3   OH279540   0.717   6.510   5.946  0.0104 -0.2983 -0.5639
19350TIP3    H179541   0.757   6.500   6.032  1.8184 -0.8279 -1.4109
19350TIP3    H279542   0.739   6.599   5.920 -0.8622 -0.0078 -0.3425
19351TIP3   OH279543   6.599   6.162   5.275  0.0903 -0.1206  0.2074
19351TIP3    H179544   6.629   6.252   5.260 -0.9778  0.0141 -1.2489
19351TIP3    H279545   6.504   6.168   5.279 -0.0531 -1.2884 -0.7256
19352TIP3   OH279546   6.745   4.204  14.561 -0.3307 -0.0739  0.6927
19352TIP3    H179547   6.691   4.282  14.575 -0.8695 -0.5712  1.4752
19352TIP3    H279548   6.710   4.165  14.481 -0.3200  0.2638  0.5178
19353TIP3   OH279549   4.011   6.238   0.885  0.2542  0.4029  0.1291
19353TIP3    H179550   4.106   6.238   0.876  0.3160 -0.1458  0.7504
19353TIP3    H279551   3.993   6.302   0.953  0.4826 -2.1396  2.7670
19354TIP3   OH279552   1.553   2.639   2.638  0.2199 -0.2990 -0.1780
19354TIP3    H179553   1.606   2.719   2.629 -0.3022 -0.0368 -1.0002
19354TIP3    H279554   1.500   2.636   2.558  0.6309 -1.7663 -0.4376
19355TIP3   OH279555   3.504   5.451   5.802 -0.4874 -0.7178  0.3137
19355TIP3    H179556   3.580   5.492   5.761 -0.5091 -1.0207 -0.0304
19355TIP3    H279557   3.534   5.426   5.889 -0.6558  0.6105  0.7813
19356TIP3   OH279558   4.570   5.466   3.105  0.0551  0.4156 -0.1346
19356TIP3    H179559   4.633   5.523   3.061  0.1783  0.7543  0.4711
19356TIP3    H279560   4.533   5.521   3.175 -0.8856  0.2100 -0.4589
19357TIP3   OH279561   4.985   3.503  12.912 -0.0391 -0.1547 -0.3380
19357TIP3    H179562   5.063   3.525  12.963 -1.2813 -0.0232  1.6187
19357TIP3    H279563   5.006   3.420  12.870  1.1967 -0.0464  0.0258
19358TIP3   OH279564   2.265   4.115  16.285 -0.4432  0.4392  0.5456
19358TIP3    H179565   2.208   4.080  16.216 -0.5272 -0.5408  1.0904
19358TIP3    H279566   2.206   4.133  16.358 -0.5001  2.3958  0.0657
19359TIP3   OH279567   6.629   1.115   5.036  0.4501  0.0198 -0.6056
19359TIP3    H179568   6.714   1.159   5.044  1.3064 -1.3529 -1.8464
19359TIP3    H279569   6.569   1.185   5.012  1.6878  0.6414 -2.0373
19360TIP3   OH279570   6.022   1.959  13.805  0.1659  0.2470  0.0970
19360TIP3    H179571   6.014   1.918  13.891  0.5060 -0.3182 -0.1330
19360TIP3    H279572   5.987   2.047  13.817  2.6411  1.1582  1.5066
19361TIP3   OH279573   2.860   4.458  13.803 -0.2688  0.3590 -0.3246
19361TIP3    H179574   2.911   4.532  13.837 -0.9579  0.4679  0.4967
19361TIP3    H279575   2.926   4.400  13.764  0.6921 -0.1737  1.9242
19362TIP3   OH279576   6.754   5.977  12.035  0.0074  0.0220  0.2289
19362TIP3    H179577   6.703   5.981  11.955 -0.0478 -0.4821  0.2323
19362TIP3    H279578   6.778   6.067  12.054  1.5776 -0.0286 -1.3470
19363TIP3   OH279579   6.488   3.730  15.457 -0.1489 -0.1949  0.3291
19363TIP3    H179580   6.412   3.757  15.508  0.0608 -0.0965  0.5875
19363TIP3    H279581   6.457   3.655  15.406 -0.1475 -0.7653  1.1571
19364TIP3   OH279582   5.892   5.855  12.894 -0.2675  0.2579  0.7148
19364TIP3    H179583   5.889   5.828  12.802  3.5266  1.3795  0.0654
19364TIP3    H279584   5.901   5.773  12.942  2.0198 -0.2450 -0.4050
19365TIP3   OH279585   4.456   1.129  12.604 -0.1596  0.3058  0.3974
19365TIP3    H179586   4.421   1.114  12.692 -1.9324 -1.7651 -0.5629
19365TIP3    H279587   4.389   1.183  12.561 -0.6107 -0.8724 -0.4326
19366TIP3   OH279588   2.964   0.083  10.826  0.1122 -0.4599 -0.3896
19366TIP3    H179589   2.899   0.032  10.875  0.2349  2.3851  3.1395
19366TIP3    H279590   3.040   0.025  10.818 -0.9069 -1.9556  0.3441
19367TIP3   OH279591   3.917   5.558   3.935 -0.6082  0.1771 -0.0177
19367TIP3    H179592   3.933   5.641   3.890 -0.0410 -0.4059 -0.9121
19367TIP3    H279593   3.864   5.507   3.874 -2.3231  0.4428  1.1638
19368TIP3   OH279594   1.842   4.350   3.737  0.0044  0.4201  0.3449
19368TIP3    H179595   1.937   4.343   3.742  0.0187  1.2289  1.6671
19368TIP3    H279596   1.810   4.287   3.801 -0.3688 -0.0022 -0.2463
19369TIP3   OH279597   0.883   5.050   1.309 -0.5542 -0.3789 -0.3392
19369TIP3    H179598   0.975   5.055   1.332 -0.4429  1.5617 -1.0007
19369TIP3    H279599   0.848   5.137   1.328 -2.5008 -1.3140  0.7723
19370TIP3   OH279600   4.969   2.572   1.418 -0.0270 -0.1981  0.1489
19370TIP3    H179601   4.932   2.500   1.469 -0.2692  0.3261  0.7327
19370TIP3    H279602   4.893   2.623   1.389  0.1168 -0.4105 -0.6277
19371TIP3   OH279603   6.662   3.039   2.489 -0.1469 -0.0302  0.2298
19371TIP3    H179604   6.750   3.040   2.527  0.7885  0.7947 -1.8120
19371TIP3    H279605   6.649   3.128   2.457 -1.7275 -0.1595  0.4336
19372TIP3   OH279606   1.905   3.317  16.938  0.7626  0.3883 -0.2382
19372TIP3    H179607   1.816   3.291  16.963  0.6967  0.7299 -0.1177
19372TIP3    H279608   1.913   3.408  16.966  1.2286  0.2938 -0.0362
19373TIP3   OH279609   1.570   3.569  12.452 -0.0510 -0.4725 -0.6961
19373TIP3    H179610   1.646   3.624  12.468  0.2745 -1.5789  2.3248
19373TIP3    H279611   1.606   3.483  12.432 -0.4537 -0.8894  0.2784
19374TIP3   OH279612   1.936   4.292   2.634 -0.1728 -0.1050  0.5694
19374TIP3    H179613   1.927   4.280   2.539 -0.2329  1.2602  0.3810
19374TIP3    H279614   2.008   4.235   2.658 -0.2196 -0.5487 -0.2873
19375TIP3   OH279615   3.703   2.862  11.930 -0.2381  0.0380 -0.4274
19375TIP3    H179616   3.711   2.815  11.848 -0.4621 -1.6748  0.4906
19375TIP3    H279617   3.738   2.802  11.996 -1.0326  0.9263  0.8578
19376TIP3   OH279618   0.364   4.137  12.014 -0.0392  0.2657 -0.3480
19376TIP3    H179619   0.283   4.185  12.031 -1.4354 -1.3208 -2.0066
19376TIP3    H279620   0.427   4.204  11.990 -0.7910  1.5629  1.1044
19377TIP3   OH279621   2.495   2.834   4.994 -0.1398  0.5982  0.2031
19377TIP3    H179622   2.496   2.853   5.088 -1.5597  0.6004  0.2375
19377TIP3    H279623   2.433   2.896   4.957  0.1853  0.4077 -0.7056
19378TIP3   OH279624   2.648   1.030  17.000 -0.2395 -0.6668 -0.2133
19378TIP3    H179625   2.659   1.115  16.959 -0.1892 -1.2264 -1.3972
19378TIP3    H279626   2.556   1.007  16.984  0.0384 -1.3264 -0.8750
19379TIP3   OH279627   4.896   1.280  12.778  0.0018  0.2072 -0.0827
19379TIP3    H179628   4.972   1.334  12.800  0.7971 -0.5189 -0.9581
19379TIP3    H279629   4.823   1.341  12.771  0.6835  1.0303 -0.0800
19380TIP3   OH279630   2.026   3.857   3.066 -0.3924  0.4863 -0.4612
19380TIP3    H179631   2.120   3.844   3.053  0.0051  1.3983  1.1870
19380TIP3    H279632   1.984   3.792   3.009  1.2571 -1.1144  0.0585
19381TIP3   OH279633   5.967   6.458  12.527 -0.2293  0.2081 -0.4765
19381TIP3    H179634   5.878   6.449  12.560  0.2979 -0.0726  0.9409
19381TIP3    H279635   6.022   6.427  12.599  1.1032  2.0911 -0.6222
19382TIP3   OH279636   5.862   2.144   4.578 -0.2273 -0.0815 -0.0037
19382TIP3    H179637   5.937   2.166   4.523  0.1055  0.9536  0.8256
19382TIP3    H279638   5.899   2.129   4.665 -1.0278  1.3641  0.6361
19383TIP3   OH279639   4.615   3.439  15.275  0.0879  0.8944 -0.2483
19383TIP3    H179640   4.594   3.436  15.182 -0.5768  0.5216 -0.0910
19383TIP3    H279641   4.593   3.528  15.302 -3.5727 -0.0345  0.4026
19384TIP3   OH279642   4.446   3.091  13.471 -0.2595 -0.1708  0.4377
19384TIP3    H179643   4.378   3.137  13.520  0.1653  1.4827 -0.4564
19384TIP3    H279644   4.520   3.088  13.531 -0.6131 -0.6318  0.8670
19385TIP3   OH279645   2.813   1.082  14.019 -0.1793 -0.3082 -0.3710
19385TIP3    H179646   2.768   1.003  14.049 -1.9941  0.3717 -1.1806
19385TIP3    H279647   2.791   1.149  14.085 -0.3309  0.0211 -0.7529
19386TIP3   OH279648   5.935   4.454  14.586 -0.6437  0.1689 -0.2000
19386TIP3    H179649   6.000   4.524  14.586 -0.2410 -0.1822  0.8741
19386TIP3    H279650   5.963   4.395  14.657 -0.4361 -1.5859 -1.6808
19387TIP3   OH279651   3.058   1.146  14.849  0.1078 -0.9572 -0.5141
19387TIP3    H179652   3.067   1.059  14.812  0.1515 -1.5702  0.8974
19387TIP3    H279653   3.147   1.181  14.852  0.1595 -1.0850 -0.5585
19388TIP3   OH279654   6.613   4.875   5.516  0.1914 -0.3378 -0.8775
19388TIP3    H179655   6.659   4.825   5.447  1.0867 -1.6882  0.6309
19388TIP3    H279656   6.574   4.808   5.572 -0.3858  0.7286  0.0284
19389TIP3   OH279657   4.409   2.850  14.227  0.7361  0.0427  0.1737
19389TIP3    H179658   4.342   2.802  14.275 -1.4957 -1.4174 -3.9417
19389TIP3    H279659   4.400   2.940  14.257 -1.5811 -0.5113  1.3502
19390TIP3   OH279660   0.976   2.058   2.478  0.4345 -0.4403 -0.1609
19390TIP3    H179661   0.975   2.139   2.529  0.7953  0.2706 -1.2430
19390TIP3    H279662   1.067   2.028   2.483  0.2489 -0.9280  0.4421
19391TIP3   OH279663   5.940   1.740  16.014  0.0619 -0.1919 -0.0067
19391TIP3    H179664   6.028   1.703  16.027  0.2323 -0.0156 -0.6166
19391TIP3    H279665   5.957   1.828  15.980 -0.3512 -0.1850 -0.1939
19392TIP3   OH279666   6.403   4.529   3.244 -0.3030 -0.2973  0.1109
19392TIP3    H179667   6.479   4.587   3.243 -0.5464  0.0196  0.0104
19392TIP3    H279668   6.418   4.469   3.171 -0.3058 -0.0362 -0.1030
19393TIP3   OH279669   2.750   2.301  16.587  0.3055  0.2130 -0.6550
19393TIP3    H179670   2.777   2.218  16.626  0.8667  0.1063 -1.2589
19393TIP3    H279671   2.756   2.364  16.659 -2.2601 -0.6398  0.4236
19394TIP3   OH279672   0.504   0.984  12.911  0.1577 -0.4349  0.6791
19394TIP3    H179673   0.458   0.943  12.838 -0.1409  0.9709  0.0270
19394TIP3    H279674   0.555   0.914  12.950  1.1260 -1.0507 -1.5152
19395TIP3   OH279675   3.525   5.223   2.970 -0.0083 -0.0004  0.3436
19395TIP3    H179676   3.613   5.186   2.983 -0.9621 -2.4974  0.1774
19395TIP3    H279677   3.484   5.166   2.905 -1.2906  2.0046 -0.7245
19396TIP3   OH279678   2.517   3.250   6.048  0.5182 -0.4211 -0.2862
19396TIP3    H179679   2.597   3.257   6.099 -0.5963 -1.0699  1.6618
19396TIP3    H279680   2.511   3.333   6.001  0.9595  0.8057  1.6938
19397TIP3   OH279681   0.764   0.955   5.342  0.0082 -0.3271 -0.2895
19397TIP3    H179682   0.710   1.029   5.314  0.1092 -0.1581 -0.0385
19397TIP3    H279683   0.706   0.879   5.336 -0.0840 -0.2356 -0.5854
19398TIP3   OH279684   2.644   3.894   2.752  0.3070 -0.1113 -0.1629
19398TIP3    H179685   2.671   3.829   2.687 -0.7958 -0.6109 -0.1592
19398TIP3    H279686   2.707   3.965   2.743 -0.5228  0.4440 -2.7268
19399TIP3   OH279687   2.113   5.882   1.211 -0.0588  0.0731 -0.2962
19399TIP3    H179688   2.060   5.952   1.174 -1.4274 -0.4330  0.6432
19399TIP3    H279689   2.178   5.926   1.265  0.4351  0.6907 -1.3581
19400TIP3   OH279690   2.883   0.127   5.093  0.0582  0.6307 -0.6822
19400TIP3    H179691   2.857   0.097   5.006  2.2316 -1.3111 -0.7504
19400TIP3    H279692   2.907   0.047   5.140  0.4494  1.7778  1.1833
19401TIP3   OH279693   1.610   2.808   6.029 -0.2070 -0.2662  0.3071
19401TIP3    H179694   1.597   2.843   6.117  0.6947 -0.3461  0.4755
19401TIP3    H279695   1.661   2.875   5.983 -0.7585 -0.1765 -0.1951
19402TIP3   OH279696   3.998   0.974   4.751 -0.3917 -0.5118  0.4362
19402TIP3    H179697   4.058   1.042   4.780 -0.2804  0.6017 -2.1028
19402TIP3    H279698   4.055   0.901   4.726 -0.1328  0.1142 -0.8809
19403TIP3   OH279699   1.318   0.481  11.609  0.3373  0.1050 -0.0243
19403TIP3    H179700   1.372   0.523  11.541 -0.6360 -1.5165 -1.9192
19403TIP3    H279701   1.379   0.462  11.680  1.2778  2.4385 -0.1127
19404TIP3   OH279702   2.409   2.124   3.547 -0.3801 -0.0641  0.1151
19404TIP3    H179703   2.452   2.178   3.480  0.6776 -0.7434  0.2195
19404TIP3    H279704   2.471   2.123   3.620 -1.1434 -0.0356  0.7724
19405TIP3   OH279705   0.604   0.730   3.886  0.1361  0.1208  0.1319
19405TIP3    H179706   0.579   0.799   3.824  0.3748 -0.0543 -0.1595
19405TIP3    H279707   0.662   0.673   3.836 -2.5840 -2.1878 -0.7076
19406TIP3   OH279708   2.491   1.140  12.781  0.4469  0.1554  0.1842
19406TIP3    H179709   2.503   1.055  12.824  1.2117  0.7341  1.1476
19406TIP3    H279710   2.397   1.158  12.789  0.0464 -1.1201 -1.0793
19407TIP3   OH279711   4.913   1.411  10.341  0.4348 -0.0125 -0.4961
19407TIP3    H179712   4.897   1.433  10.249 -0.2543  0.2059 -0.3312
19407TIP3    H279713   4.861   1.474  10.390 -0.6171 -1.2392  0.0088
19408TIP3   OH279714   6.778   5.602  14.118  0.0988  0.2277 -0.2564
19408TIP3    H179715   6.764   5.508  14.129 -0.1350  0.1901 -0.8497
19408TIP3    H279716   6.783   5.615  14.023 -1.0046  0.9735 -0.2301
19409TIP3   OH279717   2.712   4.192  11.927 -0.0600 -0.5884 -0.1853
19409TIP3    H179718   2.807   4.183  11.931 -0.0140 -0.0951 -0.0751
19409TIP3    H279719   2.693   4.202  11.834  0.1656  0.8994 -0.1051
19410TIP3   OH279720   5.485   3.432  15.032 -0.0691  0.8673  0.2273
19410TIP3    H179721   5.435   3.513  15.033  0.9466  1.5184  0.4090
19410TIP3    H279722   5.452   3.384  14.956 -0.9393  1.2829  0.3403
19411TIP3   OH279723   5.574   3.278   5.964  0.1680  0.4288 -0.7273
19411TIP3    H179724   5.479   3.270   5.975  0.3042  0.3825  0.6293
19411TIP3    H279725   5.588   3.368   5.936 -0.2002  0.8190  0.3001
19412TIP3   OH279726   6.201   0.890  11.608  0.0977 -0.3913  0.3283
19412TIP3    H179727   6.264   0.821  11.590 -0.5170 -0.5233 -1.4230
19412TIP3    H279728   6.212   0.952  11.537 -0.2463  0.7055  1.1978
19413TIP3   OH279729   0.582   4.199  12.680 -0.2805  0.3026  0.3451
19413TIP3    H179730   0.602   4.286  12.645 -0.0054  1.2184  2.6481
19413TIP3    H279731   0.495   4.179  12.645  0.2280  0.8628 -1.3321
19414TIP3   OH279732   6.319   5.920  16.525 -0.0789  0.5142 -0.1542
19414TIP3    H179733   6.237   5.923  16.575 -0.8450 -2.2649 -1.0856
19414TIP3    H279734   6.298   5.965  16.443 -0.0501  1.5040  0.3626
19415TIP3   OH279735   0.284   4.036   2.216 -0.2622  0.1142  0.0494
19415TIP3    H179736   0.194   4.008   2.197 -0.2779 -0.2892  0.7067
19415TIP3    H279737   0.274   4.112   2.274 -0.1769 -1.1660  1.8150
19416TIP3   OH279738   0.404   6.313   3.481  0.3461 -0.6595 -0.2543
19416TIP3    H179739   0.407   6.223   3.514 -0.4671 -0.6828 -0.2285
19416TIP3    H279740   0.483   6.322   3.429  0.6604 -1.2496  0.1100
19417TIP3   OH279741   3.290   2.144  14.909 -0.6689 -0.7866 -0.1358
19417TIP3    H179742   3.280   2.207  14.838 -3.4015  0.6907  1.3915
19417TIP3    H279743   3.251   2.063  14.875 -0.1560 -0.7103 -0.9492
19418TIP3   OH279744   4.373   3.492   1.905 -0.0472  0.0381 -0.4716
19418TIP3    H179745   4.328   3.570   1.934 -0.0409  1.0452 -2.9148
19418TIP3    H279746   4.307   3.423   1.907 -0.7101  0.6637 -0.5419
19419TIP3   OH279747   4.956   1.415   0.669 -0.2096 -0.5063  0.5328
19419TIP3    H179748   4.967   1.417   0.574  0.0022 -0.6013  0.5554
19419TIP3    H279749   4.889   1.481   0.686  1.1638  0.9502  0.5148
19420TIP3   OH279750   3.456   4.201  12.890 -0.1170 -0.5630  0.6788
19420TIP3    H179751   3.462   4.277  12.832 -0.3129 -1.2973 -0.3140
19420TIP3    H279752   3.420   4.237  12.971 -1.0515  0.2599 -0.0653
19421TIP3   OH279753   2.464   4.522   2.848  0.2883  0.6000  0.0063
19421TIP3    H179754   2.451   4.468   2.770  1.5292  1.0464 -0.5300
19421TIP3    H279755   2.478   4.610   2.814  0.8503  0.7966  0.7258
19422TIP3   OH279756   4.857   2.542  14.248  0.0944  0.2670  0.0883
19422TIP3    H179757   4.775   2.493  14.236  0.3099 -0.0057 -0.2654
19422TIP3    H279758   4.909   2.486  14.306 -0.5608  1.1355  1.5854
19423TIP3   OH279759   0.649   0.515   4.045  0.1217 -0.2957 -0.1065
19423TIP3    H179760   0.645   0.610   4.034 -0.5382 -0.3684 -0.5415
19423TIP3    H279761   0.663   0.481   3.957  0.6649 -0.5907  0.0906
19424TIP3   OH279762   6.624   6.524  12.825  0.7068 -0.0027 -0.2429
19424TIP3    H179763   6.689   6.459  12.797  2.5057  0.8996  1.5876
19424TIP3    H279764   6.641   6.600  12.769 -0.0174 -0.3611 -0.9762
19425TIP3   OH279765   4.273   3.458  13.386 -0.1164 -0.1335  0.2504
19425TIP3    H179766   4.364   3.459  13.358 -0.0954 -1.1708  0.2400
19425TIP3    H279767   4.266   3.379  13.440 -0.9974 -0.0453  0.2736
19426TIP3   OH279768   4.775   1.889  16.492  0.3656  0.1990  0.0290
19426TIP3    H179769   4.782   1.954  16.422 -1.5239  1.8023  1.2414
19426TIP3    H279770   4.860   1.894  16.537  1.2073 -0.1040 -1.4493
19427TIP3   OH279771   2.991   6.566   4.471  0.4664  0.2109 -0.3514
19427TIP3    H179772   2.911   6.515   4.469  0.5981  0.0127 -1.5573
19427TIP3    H279773   3.061   6.502   4.480  0.6131  0.1628 -1.5826
19428TIP3   OH279774   3.913   1.507  12.402 -0.1364 -0.1071 -0.5668
19428TIP3    H179775   3.928   1.495  12.496  0.4894 -0.6343 -0.7283
19428TIP3    H279776   3.886   1.421  12.371  0.8633 -0.2472 -1.0892
19429TIP3   OH279777   4.301   2.778  12.332 -0.1458 -0.3805  0.0890
19429TIP3    H179778   4.328   2.855  12.383 -0.2990 -0.0463 -0.3338
19429TIP3    H279779   4.284   2.812  12.244 -0.7161 -0.8112  0.0282
19430TIP3   OH279780   2.894   5.640   4.308  0.0854 -0.1494 -0.2087
19430TIP3    H179781   2.907   5.724   4.264 -0.4979 -0.7238 -1.5248
19430TIP3    H279782   2.806   5.613   4.283 -0.1083 -0.7017  0.9983
19431TIP3   OH279783   0.356   5.684  15.431 -0.7906 -0.0879  0.4549
19431TIP3    H179784   0.441   5.699  15.389 -0.5989 -0.4633  0.6991
19431TIP3    H279785   0.367   5.601  15.478 -0.9358  0.4275  1.4216
19432TIP3   OH279786   1.168   1.304  13.307 -0.4745  0.3421 -0.0104
19432TIP3    H179787   1.185   1.274  13.217  0.8989  1.4451 -0.1469
19432TIP3    H279788   1.126   1.389  13.296 -2.3507 -0.4722  0.4052
19433TIP3   OH279789   2.904   3.150  11.823 -0.2432  0.2158 -0.3026
19433TIP3    H179790   2.848   3.187  11.891 -0.0851  0.9283 -0.5552
19433TIP3    H279791   2.847   3.089  11.775 -0.5855  0.3437 -0.0608
19434TIP3   OH279792   1.941   6.133   0.104  0.1543 -0.3753  0.1895
19434TIP3    H179793   1.872   6.199   0.115  3.0990  3.6227 -2.5126
19434TIP3    H279794   1.925   6.096   0.018  0.2279 -1.0888  0.4727
19435TIP3   OH279795   1.336   4.760   5.055  0.5394  0.2977  0.0348
19435TIP3    H179796   1.408   4.781   5.115  2.2962 -0.6876 -1.6228
19435TIP3    H279797   1.323   4.840   5.004 -0.6391  0.9802  1.3267
19436TIP3   OH279798   3.227   0.275  12.052  0.2781 -0.2568  0.3593
19436TIP3    H179799   3.166   0.206  12.029 -0.2370  0.1060  0.6223
19436TIP3    H279800   3.189   0.317  12.129  0.5950  0.3047  0.2172
19437TIP3   OH279801   0.397   4.734   0.297  0.2056 -0.2322 -0.1340
19437TIP3    H179802   0.480   4.687   0.308 -0.2101 -0.8672  0.3047
19437TIP3    H279803   0.343   4.705   0.370 -0.3609  0.2851 -0.3439
19438TIP3   OH279804   3.859   2.044  13.919 -0.0038 -0.0019 -0.5707
19438TIP3    H179805   3.948   2.079  13.910 -0.0698 -0.2109 -2.6174
19438TIP3    H279806   3.866   1.954  13.887 -0.6768 -0.5252  0.6899
19439TIP3   OH279807   5.439   2.485  14.941  0.4937 -0.5888  0.3596
19439TIP3    H179808   5.483   2.411  14.982  0.1032 -0.2611  1.4203
19439TIP3    H279809   5.385   2.522  15.011 -0.0666  0.1030 -0.4185
19440TIP3   OH279810   0.826   4.176  14.835  0.7128 -0.0164 -0.5358
19440TIP3    H179811   0.895   4.166  14.769  1.1434 -0.5116 -0.0208
19440TIP3    H279812   0.776   4.251  14.805  0.8529 -0.2806 -1.4729
19441TIP3   OH279813   1.239   4.733  16.909 -0.2704  0.6037 -0.3226
19441TIP3    H179814   1.323   4.704  16.873  0.6880  1.6512  0.9487
19441TIP3    H279815   1.259   4.818  16.949 -1.2249 -0.4471  2.6250
19442TIP3   OH279816   6.027   2.241  17.048  0.2874  0.6930 -0.0602
19442TIP3    H179817   5.935   2.223  17.026 -0.0700 -0.5363  2.1978
19442TIP3    H279818   6.077   2.182  16.992 -0.5188 -1.2700  1.1810
19443TIP3   OH279819   6.579   1.193   0.649 -0.3131  0.3398  1.0607
19443TIP3    H179820   6.510   1.245   0.606 -1.5465 -1.8825  0.1977
19443TIP3    H279821   6.533   1.118   0.685  1.4508 -0.3169  2.0512
19444TIP3   OH279822   5.687   5.638  16.385 -0.5482  0.0394  0.5087
19444TIP3    H179823   5.617   5.660  16.446  0.4141 -1.3660  2.1938
19444TIP3    H279824   5.703   5.545  16.399  0.4377 -0.0767 -1.1376
19445TIP3   OH279825   2.300   3.359   2.736 -0.1042 -0.8708  0.2117
19445TIP3    H179826   2.237   3.422   2.772 -0.9296 -0.8578 -1.1684
19445TIP3    H279827   2.374   3.413   2.708 -0.3250 -0.6313  0.0772
19446TIP3   OH279828   1.950   5.073  15.897 -0.3981 -0.4588 -0.3750
19446TIP3    H179829   1.959   4.988  15.939  1.7012 -0.1282 -0.0405
19446TIP3    H279830   1.897   5.124  15.958  0.3630 -0.8071  0.6139
19447TIP3   OH279831   1.278   4.343  15.444 -0.0808 -0.4092 -0.1873
19447TIP3    H179832   1.260   4.396  15.366 -0.5497  0.1052  0.2610
19447TIP3    H279833   1.327   4.268  15.411 -2.8234 -1.7954 -1.4447
19448TIP3   OH279834   0.917   3.480  14.466  0.2198  0.6905  0.3462
19448TIP3    H179835   0.936   3.479  14.372 -1.0162  0.3651  0.0955
19448TIP3    H279836   0.902   3.573  14.486 -0.4127  0.6545  0.0396
19449TIP3   OH279837   1.127   4.065  13.809  0.0779 -0.2419  0.1478
19449TIP3    H179838   1.162   3.989  13.761  0.0188  1.2969 -2.5155
19449TIP3    H279839   1.198   4.090  13.868  1.0138 -0.9592 -0.6350
19450TIP3   OH279840   5.780   1.494  12.349 -0.0899  0.2637  0.2449
19450TIP3    H179841   5.735   1.504  12.264 -0.4109  2.5701  0.6209
19450TIP3    H279842   5.714   1.455  12.406 -1.5596  2.9668  0.5931
19451TIP3   OH279843   3.564   5.108  16.611  0.1818  0.4423  0.4581
19451TIP3    H179844   3.554   5.016  16.635 -1.2359  0.1284 -1.0960
19451TIP3    H279845   3.555   5.156  16.693  0.5946 -0.7865  1.2419
19452TIP3   OH279846   1.322   5.245  15.712 -0.2495 -0.4355 -0.3093
19452TIP3    H179847   1.312   5.296  15.632  0.1813  1.7471  0.9350
19452TIP3    H279848   1.379   5.299  15.768  0.3141 -2.3518  1.0731
19453TIP3   OH279849   4.939   3.113   6.124  0.2714  0.4599  0.9966
19453TIP3    H179850   4.858   3.162   6.112  0.0890  0.0297  0.4135
19453TIP3    H279851   4.918   3.025   6.094  1.2580  0.6099 -0.2162
19454TIP3   OH279852   0.537   2.946  16.536  0.4479  0.0058 -0.4509
19454TIP3    H179853   0.583   2.894  16.601  0.6682  0.7396 -0.0222
19454TIP3    H279854   0.558   2.904  16.452  3.2615  1.2721 -0.4673
19455TIP3   OH279855   2.359   6.640  16.679 -0.0551  0.0787  0.1667
19455TIP3    H179856   2.421   6.571  16.699  0.5467  0.8273  0.9574
19455TIP3    H279857   2.391   6.678  16.597  0.0250 -0.1059  0.1108
19456TIP3   OH279858   4.572   5.023  13.395 -0.0460  0.1642 -0.3018
19456TIP3    H179859   4.645   5.063  13.348  0.2486 -1.6165 -1.4188
19456TIP3    H279860   4.605   4.938  13.423 -0.8550  0.4002  1.5021
19457TIP3   OH279861   4.512   4.199   2.953  0.0007 -0.0166 -0.2663
19457TIP3    H179862   4.428   4.245   2.944  0.2211  0.1944 -1.5151
19457TIP3    H279863   4.492   4.108   2.931 -0.6737 -0.8957  3.3157
19458TIP3   OH279864   3.270   0.256  15.684  0.5991 -0.0261 -0.5484
19458TIP3    H179865   3.184   0.291  15.707  1.6783  1.8703  0.8961
19458TIP3    H279866   3.310   0.231  15.768  1.7814 -0.0672 -1.0944
19459TIP3   OH279867   5.749   0.666   0.684 -0.8683  0.3711  0.1142
19459TIP3    H179868   5.815   0.688   0.750 -0.3227  0.1868 -0.3563
19459TIP3    H279869   5.797   0.614   0.618 -1.3397  0.7504 -0.5443
19460TIP3   OH279870   1.631   1.491   4.322  0.3864 -0.9573  0.5400
19460TIP3    H179871   1.679   1.421   4.367 -0.0141 -1.5691  0.0335
19460TIP3    H279872   1.625   1.461   4.231  0.9009  0.1148  0.1383
19461TIP3   OH279873   1.576   1.571   5.275 -0.1583  0.4599 -0.4677
19461TIP3    H179874   1.651   1.530   5.234  0.2474 -0.3139  0.9752
19461TIP3    H279875   1.505   1.560   5.212  0.4181 -0.7329 -0.9232
19462TIP3   OH279876   3.540   4.501  16.375 -0.0370  0.3463  0.0240
19462TIP3    H179877   3.565   4.422  16.327 -1.0053  0.1180 -0.1358
19462TIP3    H279878   3.576   4.488  16.463  1.1519  0.4508 -0.4254
19463TIP3   OH279879   4.942   6.249   2.744 -0.2462 -0.2553 -0.2460
19463TIP3    H179880   4.875   6.310   2.775  0.7964  0.7844  0.0586
19463TIP3    H279881   4.985   6.218   2.824  1.7222  1.5816 -0.5060
19464TIP3   OH279882   0.235   2.532  13.722 -1.2330 -0.1496  0.2227
19464TIP3    H179883   0.235   2.439  13.747  1.7171  0.1590  1.7868
19464TIP3    H279884   0.265   2.532  13.631  0.3432 -0.7109  0.7075
19465TIP3   OH279885   5.339   3.279  17.092  0.0496 -0.0847 -0.3406
19465TIP3    H179886   5.424   3.298  17.133  0.2450  0.5798 -1.0320
19465TIP3    H279887   5.351   3.194  17.051 -0.3036 -1.0003  1.3817
19466TIP3   OH279888   3.421   4.143   5.205  0.3879  0.3158 -0.2960
19466TIP3    H179889   3.490   4.150   5.140 -0.5670  0.1273 -1.3574
19466TIP3    H279890   3.448   4.069   5.260  1.0127  0.2208 -0.7180
19467TIP3   OH279891   5.639   3.224  12.119  0.1229  0.1396  0.3915
19467TIP3    H179892   5.617   3.152  12.178 -0.8299 -1.3245 -1.5957
19467TIP3    H279893   5.702   3.277  12.167 -1.1803 -0.4930  2.9873
19468TIP3   OH279894   5.690   5.773  17.167  0.1300  0.2059 -0.0865
19468TIP3    H179895   5.757   5.838  17.188 -0.5823  0.7041  0.6940
19468TIP3    H279896   5.607   5.820  17.175 -0.5098 -1.1709  2.0626
19469TIP3   OH279897   5.159   2.509   2.264 -0.3571 -0.7818  0.4862
19469TIP3    H179898   5.227   2.510   2.331 -0.2506 -0.5195  0.3753
19469TIP3    H279899   5.154   2.417   2.236 -0.0137 -0.7928  0.4576
19470TIP3   OH279900   3.577   1.140   5.145 -0.2119  0.2234 -0.0794
19470TIP3    H179901   3.572   1.107   5.055  2.1784  1.1329 -0.6432
19470TIP3    H279902   3.632   1.076   5.190  0.7757  1.0978 -0.0034
19471TIP3   OH279903   2.473   1.015  11.662  0.1002 -0.1543  0.7298
19471TIP3    H179904   2.448   1.107  11.658  0.2185 -0.1556 -1.5723
19471TIP3    H279905   2.399   0.971  11.705 -0.0716  0.9595  1.5959
19472TIP3   OH279906   4.286   4.142   4.783 -0.1093 -0.5183  0.3736
19472TIP3    H179907   4.287   4.199   4.860  0.0914  1.0645 -0.7475
19472TIP3    H279908   4.291   4.203   4.709  1.3339 -2.0514 -0.8584
19473TIP3   OH279909   1.847   0.422   3.677  0.1156 -0.3759  0.0041
19473TIP3    H179910   1.781   0.400   3.611  0.2111  0.5782 -0.4233
19473TIP3    H279911   1.797   0.452   3.752  0.0320  2.0714 -0.9319
19474TIP3   OH279912   3.882   0.414   0.562  0.2758 -0.1855  0.5553
19474TIP3    H179913   3.836   0.330   0.554  0.3795 -0.2758  0.8901
19474TIP3    H279914   3.927   0.408   0.646  0.0698  0.3105  0.7042
19475TIP3   OH279915   0.332   3.143   0.927  0.5493 -0.4077 -0.3498
19475TIP3    H179916   0.293   3.056   0.922 -1.2587  0.1463  2.1182
19475TIP3    H279917   0.349   3.167   0.836 -0.9307 -2.4489 -1.2454
19476TIP3   OH279918   5.117   0.659  16.722 -0.3808 -0.1364  0.1279
19476TIP3    H179919   5.193   0.697  16.676 -1.3547  1.2161 -0.4309
19476TIP3    H279920   5.129   0.565  16.714  1.3294  0.0414  0.1950
19477TIP3   OH279921   4.266   6.697   1.239  0.1592  0.0888  0.1492
19477TIP3    H179922   4.342   6.752   1.256  0.3659 -0.0048 -0.4476
19477TIP3    H279923   4.287   6.613   1.280 -1.2157  1.1372  3.3512
19478TIP3   OH279924   6.525   0.418  10.780  0.4576 -0.2224  0.0863
19478TIP3    H179925   6.518   0.403  10.686  2.5372 -1.5351  0.0714
19478TIP3    H279926   6.507   0.333  10.819 -0.5993  0.3656  0.9033
19479TIP3   OH279927   4.668   6.164   1.135  0.2244 -0.0017  0.7669
19479TIP3    H179928   4.639   6.233   1.195 -2.1109  0.2453 -0.5341
19479TIP3    H279929   4.693   6.211   1.055  2.2940 -0.4200  1.1006
19480TIP3   OH279930   0.166   6.798  13.707  0.2478  0.5772 -0.3887
19480TIP3    H179931   0.238   6.751  13.750  0.9476  1.5887 -0.4310
19480TIP3    H279932   0.089   6.743  13.723  1.0482 -0.5997 -0.4710
19481TIP3   OH279933   4.356   6.598   3.290  0.3675 -0.5414 -0.5486
19481TIP3    H179934   4.365   6.656   3.214  0.9018  1.7542  1.1491
19481TIP3    H279935   4.445   6.585   3.322  0.0709 -0.6823  0.2400
19482TIP3   OH279936   2.230   5.312   1.561 -0.0315  0.7518 -0.0743
19482TIP3    H179937   2.229   5.383   1.625  0.1201  1.6860 -1.0870
19482TIP3    H279938   2.192   5.350   1.482 -0.4644 -0.4602 -0.4762
19483TIP3   OH279939   0.787   3.970  14.227 -0.4270 -0.0639  0.9243
19483TIP3    H179940   0.759   3.903  14.164 -0.6374  1.8016 -1.0865
19483TIP3    H279941   0.846   4.026  14.177 -1.4396  2.1284  2.0825
19484TIP3   OH279942   5.976   0.508   4.925 -0.1231  0.1629 -0.6445
19484TIP3    H179943   5.944   0.457   4.999 -1.0014 -1.5642 -2.1384
19484TIP3    H279944   5.898   0.538   4.880  0.3955  0.7918 -1.1516
19485TIP3   OH279945   3.032   0.240  13.069 -0.6270 -0.2364 -0.0599
19485TIP3    H179946   3.117   0.270  13.037 -0.4124 -0.0636  0.6531
19485TIP3    H279947   3.050   0.208  13.158 -1.6154  1.4297  0.7849
19486TIP3   OH279948   5.209   3.749   1.477  0.1189  0.2521 -0.3141
19486TIP3    H179949   5.294   3.721   1.512  0.9476 -1.5746 -3.3689
19486TIP3    H279950   5.214   3.845   1.477  2.2052  0.1927 -0.4016
19487TIP3   OH279951   1.280   0.991  13.850  0.2014 -0.4276 -0.8561
19487TIP3    H179952   1.260   1.005  13.757  0.9394 -0.8889 -1.1034
19487TIP3    H279953   1.356   1.046  13.866 -1.0198  1.0686 -0.0197
19488TIP3   OH279954   4.131   5.766   2.382  0.3087 -0.5439 -0.6781
19488TIP3    H179955   4.081   5.689   2.355 -0.9362 -0.2102  0.5121
19488TIP3    H279956   4.204   5.731   2.432 -0.4996 -0.9803  0.2499
19489TIP3   OH279957   0.185   6.692   5.983  0.3239  0.1062  0.1912
19489TIP3    H179958   0.190   6.616   5.925 -1.6483 -1.5185  1.9741
19489TIP3    H279959   0.235   6.666   6.061  1.9061  1.7715 -0.2024
19490TIP3   OH279960   1.737   2.601  16.036 -0.2067 -0.0197  0.6706
19490TIP3    H179961   1.726   2.523  16.090 -1.5805 -0.5945 -0.3743
19490TIP3    H279962   1.649   2.619  16.002  0.4521  0.8351 -0.6642
19491TIP3   OH279963   0.293   1.811  14.488 -0.3266 -0.1262  0.4743
19491TIP3    H179964   0.227   1.875  14.516  0.4555  0.3295  1.3354
19491TIP3    H279965   0.250   1.761  14.418 -1.3534  0.5777  0.5799
19492TIP3   OH279966   1.400   1.756   3.247  0.1824 -0.3924  0.9248
19492TIP3    H179967   1.405   1.666   3.216 -0.7871 -1.2430  3.0966
19492TIP3    H279968   1.390   1.749   3.342 -1.8402  1.9147  0.9934
19493TIP3   OH279969   6.606   4.190  13.004 -0.0852  0.1289 -0.0205
19493TIP3    H179970   6.526   4.217  12.959 -1.8860 -1.9849  1.6967
19493TIP3    H279971   6.576   4.153  13.087  2.7569 -0.0707  1.0282
19494TIP3   OH279972   0.111   5.544  13.068  0.1052  0.3031 -0.5087
19494TIP3    H179973   0.162   5.577  13.142  0.3281 -1.0088 -0.0545
19494TIP3    H279974   0.120   5.449  13.072 -1.0827  0.1228 -1.3610
19495TIP3   OH279975   3.504   3.592  13.104 -0.6673  0.2960 -0.1020
19495TIP3    H179976   3.436   3.530  13.131 -1.2842  0.7025 -0.6621
19495TIP3    H279977   3.516   3.650  13.179 -1.8268  0.9587 -0.3857
19496TIP3   OH279978   1.802   1.412  13.785  0.1202  0.4145  0.4151
19496TIP3    H179979   1.799   1.462  13.867 -0.3088 -1.0786  1.3514
19496TIP3    H279980   1.710   1.395  13.765  0.2680 -0.2611  0.2939
19497TIP3   OH279981   5.870   3.143   4.017  0.3146  0.7622 -0.7885
19497TIP3    H179982   5.817   3.178   3.946 -0.7579  1.4482  0.3205
19497TIP3    H279983   5.942   3.206   4.026 -0.6227  1.7563  0.0064
19498TIP3   OH279984   3.074   1.598  11.192  0.3823 -0.2434  0.3253
19498TIP3    H179985   3.167   1.579  11.200  0.1481 -1.5745  0.1018
19498TIP3    H279986   3.069   1.694  11.192  1.7649 -0.1501  0.0281
19499TIP3   OH279987   3.459   6.653   0.962 -0.4656 -0.1405  0.2560
19499TIP3    H179988   3.482   6.736   1.002 -2.0451  0.3432  0.2324
19499TIP3    H279989   3.531   6.594   0.985 -0.1438  0.7738  1.6898
19500TIP3   OH279990   5.799   4.826  14.480  0.1279 -0.3764 -0.4066
19500TIP3    H179991   5.726   4.816  14.541  1.1626 -0.8556  0.7881
19500TIP3    H279992   5.865   4.876  14.528  0.9309 -0.6855 -1.1576
19501TIP3   OH279993   0.987   3.154   3.397  0.2374 -0.0167 -0.4497
19501TIP3    H179994   0.972   3.071   3.442  1.4914  0.3774  0.7584
19501TIP3    H279995   1.065   3.139   3.344  0.4981  0.4113 -0.1889
19502TIP3   OH279996   4.535   2.760   5.055  0.6534  0.2891 -0.2546
19502TIP3    H179997   4.513   2.768   4.963 -2.3213 -0.9940  0.2227
19502TIP3    H279998   4.518   2.846   5.093  2.2858  0.9383 -0.8970
19503TIP3   OH279999   1.947   4.190   2.366 -0.1390 -0.3119  0.4312
19503TIP3    H180000   1.918   4.214   2.278  3.4267  4.0871  0.0969
19503TIP3    H280001   1.980   4.101   2.357 -1.4026 -0.6138 -2.2124
19504TIP3   OH280002   2.561   0.700   1.610  0.2692 -0.2049  0.4553
19504TIP3    H180003   2.506   0.646   1.553  0.4308  0.3143 -0.2094
19504TIP3    H280004   2.651   0.683   1.580  0.3611  0.0413  0.5852
19505TIP3   OH280005   2.983   5.629   6.200  0.5655 -0.0213  0.7242
19505TIP3    H180006   2.916   5.617   6.267 -0.1063  0.8364  0.2298
19505TIP3    H280007   2.956   5.709   6.154  1.3720 -0.2369 -0.1381
19506TIP3   OH280008   3.230   2.900  13.976  0.2917  0.1754  0.2043
19506TIP3    H180009   3.249   2.913  14.069  1.4455 -0.4462  0.0764
19506TIP3    H280010   3.169   2.825  13.975  0.9128 -0.3452  0.4290
19507TIP3   OH280011   4.584   1.388  15.336  0.1359  0.1149 -0.1653
19507TIP3    H180012   4.559   1.480  15.343  0.1659  0.2197 -1.1737
19507TIP3    H280013   4.505   1.340  15.361 -0.9527  0.4471 -2.6067
19508TIP3   OH280014   0.348   5.016   0.354  0.1555 -0.4577 -0.3622
19508TIP3    H180015   0.425   5.025   0.411  0.0980 -0.0978 -0.3346
19508TIP3    H280016   0.357   4.930   0.314 -0.1886 -1.0332  0.7624
19509TIP3   OH280017   5.704   6.116  17.215  0.0202  0.2921  0.3482
19509TIP3    H180018   5.738   6.041  17.263  1.4962  1.0806  0.5723
19509TIP3    H280019   5.761   6.188  17.238  0.0627  0.9728 -1.6687
19510TIP3   OH280020   3.456   4.166   0.683  0.5992  0.1438 -0.7158
19510TIP3    H180021   3.421   4.247   0.721 -0.9223 -0.8178  0.0294
19510TIP3    H280022   3.394   4.143   0.614 -0.0829 -1.3583  0.3303
19511TIP3   OH280023   3.653   3.245   0.721  0.3364  0.2410  0.5306
19511TIP3    H180024   3.739   3.249   0.763  2.9406 -0.4049 -4.0347
19511TIP3    H280025   3.633   3.152   0.717 -0.9345  0.4163  2.0204
19512TIP3   OH280026   4.432   2.399   4.503  0.2752  0.1694 -0.3020
19512TIP3    H180027   4.424   2.460   4.429 -0.7268 -0.0974 -0.4255
19512TIP3    H280028   4.442   2.456   4.579 -3.4246  0.6953 -0.0305
19513TIP3   OH280029   4.352   6.121  13.628  0.1223  0.1424  0.1012
19513TIP3    H180030   4.354   6.211  13.598 -0.6827 -0.1130 -0.7789
19513TIP3    H280031   4.404   6.121  13.709 -0.8125  1.6203  0.7472
19514TIP3   OH280032   2.824   6.128   3.015 -0.4196  0.2046 -0.2063
19514TIP3    H180033   2.823   6.032   3.020  0.0014  0.2191  0.3602
19514TIP3    H280034   2.914   6.150   2.992  0.1755  0.5263  2.1099
19515TIP3   OH280035   5.608   4.282  14.166  0.9331 -0.3766 -0.2463
19515TIP3    H180036   5.654   4.212  14.212  0.5243 -0.4615  0.0294
19515TIP3    H280037   5.648   4.362  14.200  0.7969 -0.4468  0.0817
19516TIP3   OH280038   6.557   6.150   4.516  0.2722 -0.1292 -0.2814
19516TIP3    H180039   6.476   6.101   4.526 -0.3828  1.0787  0.6217
19516TIP3    H280040   6.530   6.233   4.475  1.3627 -0.5258 -1.8985
19517TIP3   OH280041   2.183   5.000   4.583  0.1088 -0.1457  0.3128
19517TIP3    H180042   2.217   4.963   4.664  1.2404  1.8689  0.8264
19517TIP3    H280043   2.235   5.079   4.569 -1.3950  0.6267 -1.3174
19518TIP3   OH280044   6.335   4.376  13.990 -0.0578  0.0380  0.3611
19518TIP3    H180045   6.259   4.377  13.931 -1.0599 -1.3007  1.5473
19518TIP3    H280046   6.355   4.468  14.005 -1.7529  0.4490  0.3497
19519TIP3   OH280047   0.420   2.696   2.360 -0.5197  0.3625  0.3646
19519TIP3    H180048   0.443   2.725   2.272 -0.0622  0.4891  0.5252
19519TIP3    H280049   0.460   2.609   2.368 -1.7974 -0.2959 -0.0772
19520TIP3   OH280050   1.545   1.976   6.001 -0.3417 -0.5547  0.0054
19520TIP3    H180051   1.609   1.946   6.065  0.0166 -0.0286 -0.0964
19520TIP3    H280052   1.510   2.057   6.038  0.0666 -0.1013 -0.5791
19521TIP3   OH280053   1.012   0.941   2.695  0.3590 -0.0752 -0.1563
19521TIP3    H180054   1.106   0.934   2.682  0.5866  1.5728  0.3386
19521TIP3    H280055   0.990   1.029   2.662 -0.2381  1.3897  3.5930
19522TIP3   OH280056   1.306   3.957   5.253  0.1293  0.5190  0.4214
19522TIP3    H180057   1.218   3.990   5.271 -0.9577 -2.5782  1.5128
19522TIP3    H280058   1.320   3.974   5.160 -1.5997  1.1399  0.2469
19523TIP3   OH280059   3.046   5.260   0.210  0.3174 -0.1950 -0.4459
19523TIP3    H180060   3.127   5.309   0.221  0.0081  0.4304 -0.8257
19523TIP3    H280061   3.019   5.236   0.298 -1.0182  2.8461  0.0900
19524TIP3   OH280062   2.199   4.708  14.935  0.7440  0.0833 -0.0988
19524TIP3    H180063   2.205   4.740  14.845 -1.1714  2.4260  0.5136
19524TIP3    H280064   2.289   4.683  14.957  2.1129  3.2832 -1.3806
19525TIP3   OH280065   5.139   1.673  10.294 -0.9593  0.1891 -0.4631
19525TIP3    H180066   5.080   1.625  10.236 -0.3206 -0.0593 -0.9249
19525TIP3    H280067   5.205   1.709  10.235  0.1528 -0.7382  0.1690
19526TIP3   OH280068   6.754   2.796   3.921 -0.0052 -0.0376 -0.7174
19526TIP3    H180069   6.786   2.864   3.981 -0.4508  1.4578 -2.0988
19526TIP3    H280070   6.808   2.719   3.941  1.1395  0.9836  0.2865
19527TIP3   OH280071   3.346   3.940   5.727 -0.5173 -0.1566 -0.2516
19527TIP3    H180072   3.352   3.992   5.807 -0.0135  0.5767 -0.7532
19527TIP3    H280073   3.375   3.999   5.658  1.4443 -1.5012 -0.6561
19528TIP3   OH280074   5.518   2.395  10.880  0.4635 -0.5652 -0.1909
19528TIP3    H180075   5.524   2.404  10.785 -1.5316  0.9497 -0.2289
19528TIP3    H280076   5.555   2.476  10.915 -0.2595 -0.4168  0.2513
19529TIP3   OH280077   1.206   3.633  13.034  0.9480 -0.2323 -0.5164
19529TIP3    H180078   1.242   3.555  12.991 -1.0973 -1.5598 -0.0174
19529TIP3    H280079   1.120   3.604  13.065 -0.1119  2.4176 -0.7598
19530TIP3   OH280080   3.209   4.112   0.574  0.0347  0.1027  0.0021
19530TIP3    H180081   3.131   4.162   0.550  0.6993 -0.1010 -2.8174
19530TIP3    H280082   3.212   4.040   0.512  3.5380  1.2301 -1.3715
19531TIP3   OH280083   5.338   5.772   2.156  0.2629  0.0605 -0.3645
19531TIP3    H180084   5.284   5.708   2.202  1.9420 -0.7561  0.5933
19531TIP3    H280085   5.371   5.725   2.079  1.3058 -0.1964  0.2120
19532TIP3   OH280086   0.800   1.342   5.454  0.2385 -0.0096 -0.3909
19532TIP3    H180087   0.720   1.291   5.446 -0.5502  1.2637 -0.9812
19532TIP3    H280088   0.852   1.317   5.377 -0.0345 -0.1122 -0.5453
19533TIP3   OH280089   6.667   0.205   2.054  0.1215  0.1525 -1.1722
19533TIP3    H180090   6.697   0.226   1.966  0.3771  0.5404 -0.9956
19533TIP3    H280091   6.574   0.187   2.044 -0.2477  1.9487 -1.2588
19534TIP3   OH280092   4.713   4.350  15.927  0.2904 -0.3149  0.5462
19534TIP3    H180093   4.797   4.391  15.948  0.5976 -0.5186 -0.2231
19534TIP3    H280094   4.735   4.285  15.859 -0.4157 -0.7024  0.6823
19535TIP3   OH280095   3.028   6.709  11.285  0.0581  0.1801  0.0627
19535TIP3    H180096   2.939   6.714  11.320  0.0288  2.4872 -0.2131
19535TIP3    H280097   3.017   6.689  11.192 -0.2884  1.8113 -0.2772
19536TIP3   OH280098   6.098   3.488   1.938  0.1038  0.6208  0.3797
19536TIP3    H180099   6.144   3.405   1.945 -0.0170  0.5068 -0.1060
19536TIP3    H280100   6.083   3.515   2.028 -2.3406 -1.2653  0.6340
19537TIP3   OH280101   3.135   0.893  13.830 -0.5338 -0.1253  0.1044
19537TIP3    H180102   3.089   0.952  13.889 -1.1784 -1.9521  1.5177
19537TIP3    H280103   3.083   0.894  13.750 -1.8161 -0.4983  0.9120
19538TIP3   OH280104   3.089   6.355   5.017 -0.2968 -0.1833 -0.0929
19538TIP3    H180105   3.124   6.267   5.031 -0.8523 -0.3559  0.2688
19538TIP3    H280106   3.164   6.413   5.027  0.0143 -0.5932 -0.0154
19539TIP3   OH280107   1.701   5.190  16.398 -0.1721 -0.2496 -0.6940
19539TIP3    H180108   1.770   5.153  16.452  0.7902  0.2670 -1.5411
19539TIP3    H280109   1.743   5.260  16.348 -1.7830  1.6169  0.3979
19540TIP3   OH280110   4.888   3.256   1.869  0.3124 -0.1980 -0.4698
19540TIP3    H180111   4.825   3.318   1.832  0.1190  0.6677  1.2228
19540TIP3    H280112   4.955   3.312   1.909 -0.5673 -0.9902  2.2884
19541TIP3   OH280113   6.315   0.897  15.442  0.3298 -0.2699  0.7724
19541TIP3    H180114   6.326   0.816  15.492  0.9763 -0.9668 -0.4356
19541TIP3    H280115   6.242   0.879  15.383  0.8369 -0.1836  0.1087
19542TIP3   OH280116   6.125   1.624   4.373 -0.1220 -0.3731 -0.4085
19542TIP3    H180117   6.032   1.620   4.396 -0.0630  1.4314  0.2387
19542TIP3    H280118   6.138   1.712   4.339  1.3728 -0.5912 -0.4678
19543TIP3   OH280119   5.796   1.928  13.168  0.7072  0.3936  0.7048
19543TIP3    H180120   5.741   1.988  13.119  0.7279  0.3310  0.6036
19543TIP3    H280121   5.739   1.853  13.187  0.7212  0.3833  0.7071
19544TIP3   OH280122   1.647   3.888   4.840  0.2271 -0.4237 -0.4111
19544TIP3    H180123   1.693   3.964   4.876 -0.7194  0.2491 -0.5914
19544TIP3    H280124   1.611   3.919   4.757 -0.3181 -1.0199 -0.4006
19545TIP3   OH280125   2.086   2.944   4.264  0.4279  0.1372  0.0154
19545TIP3    H180126   2.141   2.872   4.235  2.2479  0.0007  3.2843
19545TIP3    H280127   2.011   2.942   4.205 -0.4126 -5.4198  0.6743
19546TIP3   OH280128   2.114   5.356   6.395 -0.2749  0.5704 -0.6027
19546TIP3    H180129   2.120   5.270   6.436 -2.2356  0.2224 -0.9524
19546TIP3    H280130   2.088   5.416   6.466  1.6060  1.0295 -0.2405
19547TIP3   OH280131   5.190   5.443   1.321 -0.0627  0.0268 -0.2660
19547TIP3    H180132   5.220   5.501   1.391  0.7836  0.1670 -0.7197
19547TIP3    H280133   5.249   5.462   1.248 -0.6159 -0.4664 -0.8547
19548TIP3   OH280134   2.869   4.559  16.875 -0.6519  0.0725 -0.2902
19548TIP3    H180135   2.904   4.639  16.837  0.4373  0.5019  1.5127
19548TIP3    H280136   2.783   4.549  16.834 -1.4962  3.0019  0.5040
19549TIP3   OH280137   5.764   4.435   3.025  0.6634 -0.2329  0.3024
19549TIP3    H180138   5.717   4.514   2.998  2.6494  0.7786 -0.3761
19549TIP3    H280139   5.714   4.401   3.099  0.2313  2.1625  1.1811
19550TIP3   OH280140   2.758   3.758  15.967  0.0332  0.3086 -0.0577
19550TIP3    H180141   2.664   3.745  15.980  0.1698  0.1437  0.8087
19550TIP3    H280142   2.772   3.851  15.984  0.0299  0.3287 -0.1653
19551TIP3   OH280143   6.096   6.041   3.581 -0.2827 -0.1000  0.2891
19551TIP3    H180144   6.150   6.119   3.593  0.0054 -0.3742  0.7857
19551TIP3    H280145   6.022   6.055   3.640 -0.0553 -0.3638  0.6365
19552TIP3   OH280146   3.882   5.179   4.722 -0.3165 -0.4765  0.1085
19552TIP3    H180147   3.838   5.222   4.795  1.1794 -0.3207  0.9587
19552TIP3    H280148   3.938   5.246   4.684 -1.6106 -0.3292 -1.7248
19553TIP3   OH280149   6.237   3.326  15.127  0.1583 -0.4517 -0.0746
19553TIP3    H180150   6.154   3.299  15.088  0.8682 -1.1888 -1.1486
19553TIP3    H280151   6.281   3.375  15.058  1.2234 -1.3236 -0.0519
19554TIP3   OH280152   6.621   4.093  14.779 -0.1222  0.3545  0.0510
19554TIP3    H180153   6.648   4.126  14.694 -1.5291 -0.7621 -0.8793
19554TIP3    H280154   6.532   4.125  14.790  0.6447  2.0548  2.0054
19555TIP3   OH280155   2.811   3.493  11.908 -0.2753 -0.3382 -0.4849
19555TIP3    H180156   2.810   3.582  11.945 -1.5860 -1.0662  1.4442
19555TIP3    H280157   2.737   3.491  11.848  0.0803  0.0108 -0.9427
19556TIP3   OH280158   2.689   3.554  11.269  0.3895 -0.4107 -0.0214
19556TIP3    H180159   2.605   3.535  11.310  0.0129  0.1555 -0.5103
19556TIP3    H280160   2.705   3.479  11.212 -0.3393 -0.0280 -0.7681
19557TIP3   OH280161   2.605   0.335  16.151 -0.2682  0.1015  0.4285
19557TIP3    H180162   2.531   0.382  16.190  1.0827  1.4201  1.5235
19557TIP3    H280163   2.642   0.397  16.088  0.3060 -0.2983  0.3697
19558TIP3   OH280164   2.242   3.262  14.483 -0.2135 -0.8682  0.0652
19558TIP3    H180165   2.168   3.218  14.526 -1.1725 -0.2405 -0.8983
19558TIP3    H280166   2.310   3.195  14.480 -1.6985 -2.4332 -1.5543
19559TIP3   OH280167   5.785   1.212  15.759  0.5868 -0.1514  0.4531
19559TIP3    H180168   5.801   1.203  15.853  2.1010 -1.3731  0.1189
19559TIP3    H280169   5.824   1.296  15.735 -0.6872  0.6400  1.0623
19560TIP3   OH280170   5.094   5.793  14.030  0.3328 -0.5088  0.3903
19560TIP3    H180171   5.017   5.827  13.985  1.2763  1.8780  0.4442
19560TIP3    H280172   5.060   5.759  14.113 -1.0141 -2.2956 -0.8136
19561TIP3   OH280173   5.631   2.138   5.557  0.0976  0.1062  0.0214
19561TIP3    H180174   5.540   2.144   5.526  0.4880 -2.0711 -1.8192
19561TIP3    H280175   5.681   2.190   5.495  0.3406 -0.4802 -0.2856
19562TIP3   OH280176   5.239   5.756   0.723  0.0518  0.9008 -0.6332
19562TIP3    H180177   5.291   5.817   0.671  1.1674  0.7509  0.2680
19562TIP3    H280178   5.297   5.729   0.794 -0.5031 -0.9605 -0.8112
19563TIP3   OH280179   4.005   3.928  13.267 -0.0096  0.3409  0.0002
19563TIP3    H180180   4.092   3.890  13.255 -0.1542 -0.1017  0.3707
19563TIP3    H280181   3.946   3.853  13.279 -0.3607  0.6587  0.3012
19564TIP3   OH280182   4.319   4.610   1.030 -0.1577 -0.5041 -0.5425
19564TIP3    H180183   4.383   4.592   1.099 -1.7557 -1.6733  0.7383
19564TIP3    H280184   4.307   4.705   1.032 -0.2242 -0.5179  0.8741
19565TIP3   OH280185   1.462   3.657  12.691  0.0740 -0.6695 -0.1035
19565TIP3    H180186   1.498   3.603  12.762 -0.1744 -0.2873  0.3151
19565TIP3    H280187   1.500   3.620  12.611  0.4767 -1.0041  0.2406
19566TIP3   OH280188   4.342   1.828   5.115  0.0514  0.5462 -0.3855
19566TIP3    H180189   4.317   1.740   5.086 -1.2729  0.6682  0.3170
19566TIP3    H280190   4.269   1.857   5.169  0.8044  1.7985 -0.0025
19567TIP3   OH280191   0.436   2.007  12.767  0.2460  0.6610  0.9252
19567TIP3    H180192   0.406   2.006  12.857 -3.3042  0.2795 -0.1181
19567TIP3    H280193   0.432   2.100  12.742 -0.1463  0.6063  0.7769
19568TIP3   OH280194   3.648   1.401   1.460  0.2249  0.3949 -0.1776
19568TIP3    H180195   3.555   1.424   1.457 -0.2134 -0.6130  2.5368
19568TIP3    H280196   3.662   1.372   1.550  2.8314 -0.9482 -0.9259
19569TIP3   OH280197   1.823   2.289   1.209 -0.1570 -0.3430  0.5335
19569TIP3    H180198   1.736   2.254   1.193  0.7428 -2.5119  0.0410
19569TIP3    H280199   1.852   2.323   1.124 -0.0290 -0.8527  0.3670
19570TIP3   OH280200   2.821   3.590  16.178  0.1734  0.0144 -0.4020
19570TIP3    H180201   2.915   3.597  16.196  0.3306 -0.0837 -1.1388
19570TIP3    H280202   2.807   3.649  16.104 -0.2712 -0.2727 -0.5480
19571TIP3   OH280203   4.208   5.810  12.199  0.2375 -0.1566  0.5443
19571TIP3    H180204   4.145   5.807  12.271  1.3023  0.7479  1.5496
19571TIP3    H280205   4.156   5.837  12.122 -1.2392 -2.7095  0.5451
19572TIP3   OH280206   6.783   1.231   1.662 -0.4178 -0.5882 -0.5124
19572TIP3    H180207   6.812   1.184   1.740 -1.4594  0.9495  0.8555
19572TIP3    H280208   6.857   1.286   1.637 -0.0570 -1.1383 -0.6702
19573TIP3   OH280209   2.495   6.707   0.803 -0.0233  0.6640  0.2338
19573TIP3    H180210   2.470   6.795   0.775  0.7205  0.9681  0.5011
19573TIP3    H280211   2.416   6.671   0.843  0.4742  2.4513  3.1511
19574TIP3   OH280212   1.240   5.397   0.897  0.3549 -0.3249  0.4625
19574TIP3    H180213   1.267   5.371   0.985 -2.0979 -0.8789  1.1218
19574TIP3    H280214   1.203   5.318   0.859 -0.5240  0.4200 -0.2695
19575TIP3   OH280215   5.899   2.804   4.842  0.2742 -0.0020  0.3419
19575TIP3    H180216   5.958   2.768   4.776 -0.2122 -0.3933  0.1060
19575TIP3    H280217   5.933   2.771   4.925  0.0292 -0.7601  0.1562
19576TIP3   OH280218   1.604   1.567  11.765  0.1396 -0.4848 -0.7845
19576TIP3    H180219   1.643   1.507  11.829 -0.2281 -1.0443 -1.0742
19576TIP3    H280220   1.510   1.556  11.776 -0.0400  1.9057  0.9104
19577TIP3   OH280221   6.498   6.314  15.671 -0.8169  0.2405  0.6046
19577TIP3    H180222   6.403   6.308  15.659 -0.8358  1.3083  0.0329
19577TIP3    H280223   6.534   6.246  15.614 -1.2389 -0.4478  1.1385
19578TIP3   OH280224   4.765   4.975   2.375 -0.6064 -0.3130 -0.5134
19578TIP3    H180225   4.789   5.031   2.449 -0.8988  0.3234 -0.8866
19578TIP3    H280226   4.770   5.033   2.299 -0.3729 -0.9410 -0.9821
19579TIP3   OH280227   2.140   2.378   0.308 -0.2841 -0.2290 -0.3889
19579TIP3    H180228   2.062   2.349   0.354 -0.2517 -0.7294 -0.6460
19579TIP3    H280229   2.201   2.305   0.314 -0.8416 -0.9444 -2.5504
19580TIP3   OH280230   4.999   0.640   0.048  0.0288 -0.0439  0.0804
19580TIP3    H180231   4.926   0.585   0.078  1.6287 -1.4331  1.5705
19580TIP3    H280232   5.011   0.615  -0.044 -0.6486 -0.5936  0.1294
19581TIP3   OH280233   5.962   5.298   6.565  0.2037 -0.2750  0.0002
19581TIP3    H180234   6.029   5.336   6.622  0.6428  0.2222 -0.8249
19581TIP3    H280235   5.970   5.346   6.483 -2.2790  0.9692  0.3875
19582TIP3   OH280236   2.587   0.955  16.013 -0.4031  0.2396 -0.1952
19582TIP3    H180237   2.556   1.044  16.033 -0.1568  0.5523 -1.1566
19582TIP3    H280238   2.644   0.966  15.936  3.0620 -0.1130  2.0630
19583TIP3   OH280239   1.958   4.148   0.513 -0.0738 -0.4945  0.3176
19583TIP3    H180240   1.963   4.053   0.500 -3.3632 -0.6850 -0.3572
19583TIP3    H280241   1.867   4.170   0.492  0.8023  2.9570 -0.3667
19584TIP3   OH280242   5.584   6.617   0.204  0.1222 -0.1718  0.0048
19584TIP3    H180243   5.525   6.615   0.128 -1.6780  0.4335  1.3244
19584TIP3    H280244   5.630   6.701   0.197  1.7933 -1.1406 -1.6577
19585TIP3   OH280245   3.348   3.469  11.397 -0.0668  0.0475  0.2514
19585TIP3    H180246   3.301   3.508  11.323 -0.1398  0.2378  0.3934
19585TIP3    H280247   3.341   3.535  11.466 -1.7022 -0.9227  1.0788
19586TIP3   OH280248   1.059   2.989   1.414  0.3208  0.1264  0.0404
19586TIP3    H180249   1.087   2.931   1.485 -2.5869  0.4028  1.5721
19586TIP3    H280250   1.030   2.930   1.345 -0.7280 -0.2820  0.7934
19587TIP3   OH280251   6.809   5.058   5.656  0.3438  0.2720 -0.5136
19587TIP3    H180252   6.749   4.985   5.638 -0.1052  1.2574 -3.7295
19587TIP3    H280253   6.767   5.107   5.727 -1.2282 -0.6053 -0.7799
19588TIP3   OH280254   4.603   0.154  13.845 -0.1890 -0.1643  0.1760
19588TIP3    H180255   4.611   0.233  13.791  0.6465  0.4054  1.1023
19588TIP3    H280256   4.557   0.182  13.924 -1.3244 -0.9754 -0.1631
19589TIP3   OH280257   6.146   5.484   5.142  0.5607  0.1021  0.6273
19589TIP3    H180258   6.219   5.543   5.158  0.3347  0.9166 -1.0887
19589TIP3    H280259   6.188   5.400   5.120  0.9512  0.2850  0.6644
19590TIP3   OH280260   3.093   2.576   6.430 -0.5008 -0.4777 -0.0746
19590TIP3    H180261   3.122   2.663   6.400  0.0041 -0.3396  0.7851
19590TIP3    H280262   3.021   2.595   6.491 -1.8147 -0.7765 -1.4626
19591TIP3   OH280263   2.369   5.684   4.792  0.0678 -0.1721 -0.0618
19591TIP3    H180264   2.313   5.651   4.722  1.1852 -0.0934 -1.0202
19591TIP3    H280265   2.324   5.761   4.825 -1.2471 -1.1029  0.3950
19592TIP3   OH280266   5.623   5.159   4.367  0.1148  0.5122 -0.2552
19592TIP3    H180267   5.689   5.093   4.389 -0.1920  0.9124  2.1303
19592TIP3    H280268   5.541   5.109   4.358  0.2085  0.3628 -0.2794
19593TIP3   OH280269   3.045   4.417  16.267  0.6630  0.0210 -0.1504
19593TIP3    H180270   2.972   4.400  16.326  0.0711  2.3532 -0.1219
19593TIP3    H280271   3.006   4.465  16.193  1.9010 -0.0631 -0.8897
19594TIP3   OH280272   3.302   6.059   5.554 -0.5050 -0.0969 -0.0345
19594TIP3    H180273   3.226   6.016   5.594 -0.0900 -1.1695 -0.3678
19594TIP3    H280274   3.264   6.124   5.495 -1.1966 -0.8842 -0.4881
19595TIP3   OH280275   3.284   2.248   3.745  0.1889 -0.6226 -0.0310
19595TIP3    H180276   3.236   2.275   3.823  0.8964  2.3754 -0.4843
19595TIP3    H280277   3.222   2.196   3.695 -2.2723  2.0703 -0.0348
19596TIP3   OH280278   6.078   1.828   0.766  0.0609 -0.2525 -0.0799
19596TIP3    H180279   6.092   1.762   0.834 -0.6335  0.8891  1.2389
19596TIP3    H280280   6.068   1.778   0.685 -0.3013 -1.7436  0.8465
19597TIP3   OH280281   0.268   5.115   1.683 -0.1948 -0.0819  0.9064
19597TIP3    H180282   0.214   5.189   1.710  0.4539  1.1567 -1.0114
19597TIP3    H280283   0.227   5.039   1.725 -2.0119  1.0928  1.3775
19598TIP3   OH280284   1.256   3.139   4.541  0.1212 -0.5142 -0.5835
19598TIP3    H180285   1.181   3.191   4.568  0.1745  0.1790 -1.7269
19598TIP3    H280286   1.322   3.155   4.609 -0.4451 -0.4153 -0.0511
19599TIP3   OH280287   2.591   3.770  11.039 -0.1621 -0.5196  0.3493
19599TIP3    H180288   2.547   3.694  11.077 -1.1893 -0.4621 -0.6787
19599TIP3    H280289   2.523   3.815  10.989  0.4741  0.9889  0.7921
19600TIP3   OH280290   6.234   0.515   5.579 -0.1146  0.1174  0.3359
19600TIP3    H180291   6.289   0.437   5.574 -0.4595 -0.1413  0.5544
19600TIP3    H280292   6.192   0.509   5.664 -0.1978  0.5056  0.3218
19601TIP3   OH280293   5.158   3.650   3.061  0.5780 -0.0427 -0.2739
19601TIP3    H180294   5.145   3.570   3.112  0.1705  0.3762  0.2946
19601TIP3    H280295   5.070   3.688   3.055  1.0972  1.5159  1.3875
19602TIP3   OH280296   0.368   3.959   2.960  0.8917  0.3221 -0.8240
19602TIP3    H180297   0.449   3.941   3.007  0.6452 -0.1239 -0.5515
19602TIP3    H280298   0.323   4.024   3.014 -0.5228 -1.9443  0.9630
19603TIP3   OH280299   3.040   1.050   1.043  0.5727 -0.2422  0.3594
19603TIP3    H180300   3.012   1.108   0.972 -0.4619 -1.0243  0.0860
19603TIP3    H280301   3.103   1.101   1.094  0.2296  0.8487 -0.2819
19604TIP3   OH280302   5.250   6.203  16.435 -0.1753 -0.1624 -0.5420
19604TIP3    H180303   5.316   6.148  16.477 -0.7546 -0.6189 -0.2260
19604TIP3    H280304   5.233   6.273  16.498  1.8953  1.4649 -1.6701
19605TIP3   OH280305   2.431   1.723  12.857  0.2731  0.5055  0.2607
19605TIP3    H180306   2.483   1.778  12.797 -0.2515  0.3467 -0.3479
19605TIP3    H280307   2.347   1.712  12.813  1.0899 -2.7338 -0.8419
19606TIP3   OH280308   6.209   0.334  15.781 -0.2405  0.0949 -0.0885
19606TIP3    H180309   6.291   0.369  15.816  1.0400 -1.0362 -1.7784
19606TIP3    H280310   6.155   0.317  15.858  0.3420  2.5549  0.9863
19607TIP3   OH280311   3.666   6.208   5.519  0.3757  0.4929 -0.6738
19607TIP3    H180312   3.617   6.282   5.482  0.4927  0.1592 -1.5015
19607TIP3    H280313   3.611   6.132   5.502  1.8863 -0.1435 -3.1305
19608TIP3   OH280314   4.955   3.629  15.266 -0.1019  0.5970 -0.0873
19608TIP3    H180315   4.937   3.560  15.330  0.0961  2.1682  1.7674
19608TIP3    H280316   5.047   3.618  15.243  0.1493  0.6746  0.8162
19609TIP3   OH280317   4.418   4.424   3.188 -0.6898  0.7995  0.1908
19609TIP3    H180318   4.477   4.381   3.250 -0.0623 -0.1020 -0.9661
19609TIP3    H280319   4.475   4.446   3.113 -1.5676  1.1066 -0.4008
19610TIP3   OH280320   1.392   4.735   4.415 -0.4907  0.1997  0.7819
19610TIP3    H180321   1.422   4.723   4.505 -1.0155 -0.1461  0.9164
19610TIP3    H280322   1.385   4.830   4.404  3.9357  0.6179 -0.3650
19611TIP3   OH280323   6.737   3.542   4.520 -0.0019 -0.1686 -0.1995
19611TIP3    H180324   6.663   3.599   4.543 -0.1228 -0.5320  0.3327
19611TIP3    H280325   6.770   3.511   4.604  2.2843  1.8560 -0.2204
19612TIP3   OH280326   1.508   3.226  16.336 -0.2081 -0.5066 -0.1720
19612TIP3    H180327   1.495   3.188  16.249  0.6159 -6.2477  1.7319
19612TIP3    H280328   1.433   3.195  16.388  0.1806  1.2887  1.6200
19613TIP3   OH280329   1.925   0.780  10.809  0.1704  0.1683 -0.0175
19613TIP3    H180330   1.927   0.701  10.862 -1.8346 -1.7619 -2.5477
19613TIP3    H280331   1.964   0.755  10.725 -0.4781  1.8266 -0.8767
19614TIP3   OH280332   3.975   2.518   1.312 -0.0485 -0.4480 -0.2674
19614TIP3    H180333   4.033   2.583   1.273 -0.3071  0.5750  0.9796
19614TIP3    H280334   4.015   2.498   1.397  0.1273 -2.0788 -0.7062
19615TIP3   OH280335   2.673   0.599   3.781  0.8878  0.1233  0.3541
19615TIP3    H180336   2.672   0.509   3.748 -1.7752 -0.5868  1.9598
19615TIP3    H280337   2.630   0.650   3.713  0.8578 -0.1508  0.1648
19616TIP3   OH280338   3.864   4.481   1.849 -0.0241 -0.3520  0.3305
19616TIP3    H180339   3.931   4.530   1.896  0.2446 -1.5588  1.2668
19616TIP3    H280340   3.912   4.437   1.779 -0.0987 -0.0723  0.1005
19617TIP3   OH280341   2.253   5.186   3.516 -0.4106  0.3441 -0.0887
19617TIP3    H180342   2.237   5.146   3.601 -0.0176 -0.7478 -0.5136
19617TIP3    H280343   2.167   5.188   3.474 -0.5220  0.4331  0.1416
19618TIP3   OH280344   1.418   3.452  13.423 -0.3146 -0.1863 -0.3354
19618TIP3    H180345   1.484   3.440  13.491 -0.7142  0.6679  0.2125
19618TIP3    H280346   1.432   3.541  13.391 -1.3692  0.1022 -0.0292
19619TIP3   OH280347   1.550   6.748  16.410 -0.7412  0.1606 -0.2415
19619TIP3    H180348   1.507   6.829  16.385  0.0609  0.7455  0.2507
19619TIP3    H280349   1.489   6.705  16.470 -2.5668 -1.1159 -2.8171
19620TIP3   OH280350   0.816   5.305  15.917 -0.4019 -0.1567 -0.2603
19620TIP3    H180351   0.886   5.272  15.861 -1.7317  0.0994 -2.1236
19620TIP3    H280352   0.768   5.227  15.944  0.2998 -0.2904  0.6817
19621TIP3   OH280353   2.259   4.974  12.392 -0.1871 -0.4789  0.0623
19621TIP3    H180354   2.271   4.982  12.297 -2.9380 -2.7042 -0.6290
19621TIP3    H280355   2.327   4.914  12.420  0.3926 -0.1338 -0.5646
19622TIP3   OH280356   5.604   6.225  10.409  0.5655 -0.1442 -0.1605
19622TIP3    H180357   5.679   6.172  10.382  0.3208  0.2452 -1.7079
19622TIP3    H280358   5.640   6.287  10.472  0.8854 -2.0029  1.6145
19623TIP3   OH280359   4.077   2.408   3.554  0.1745 -0.2820  0.5044
19623TIP3    H180360   4.064   2.477   3.489 -2.7428 -1.1226  0.0576
19623TIP3    H280361   4.074   2.454   3.639 -3.2564  0.1332  0.3046
19624TIP3   OH280362   0.286   5.977   0.054  0.3084  0.3301 -1.3443
19624TIP3    H180363   0.305   5.923  -0.023  1.0216 -1.2007 -0.1676
19624TIP3    H280364   0.367   5.973   0.105 -0.6684 -0.0386  0.2348
19625TIP3   OH280365   1.201   5.075  16.447 -0.2902 -0.1150 -0.2145
19625TIP3    H180366   1.289   5.095  16.480 -0.6288  1.2638 -0.1247
19625TIP3    H280367   1.209   4.986  16.411  0.3150 -1.4581  2.8532
19626TIP3   OH280368   3.463   4.154   3.118  0.4939 -0.3283  0.3018
19626TIP3    H180369   3.450   4.062   3.095  1.0357  0.0865 -1.8855
19626TIP3    H280370   3.469   4.199   3.034  1.6310  1.5134  1.3036
19627TIP3   OH280371   5.020   2.103  13.377  0.2323 -0.4089 -0.4417
19627TIP3    H180372   5.054   2.045  13.309  1.4469 -0.7442  0.4202
19627TIP3    H280373   4.953   2.050  13.422  2.0213 -1.5858  0.9833
19628TIP3   OH280374   2.535   5.991   0.491 -0.0744 -0.1472 -0.5131
19628TIP3    H180375   2.562   6.082   0.505  2.3506 -1.0119  0.9069
19628TIP3    H280376   2.601   5.955   0.432 -1.2531 -0.9269 -1.4076
19629TIP3   OH280377   2.596   6.077   1.233 -0.0551  0.0575 -0.3812
19629TIP3    H180378   2.678   6.105   1.191  0.4504  0.2895  0.7147
19629TIP3    H280379   2.530   6.138   1.200  0.3175  0.2084 -0.8615
19630TIP3   OH280380   4.544   0.892   3.826  0.7539  0.1199  0.4526
19630TIP3    H180381   4.628   0.927   3.794  0.5635 -0.9578 -1.3535
19630TIP3    H280382   4.499   0.863   3.747 -0.4866 -1.1529  1.5810
19631TIP3   OH280383   6.148   0.655  14.854  0.4813  0.2908  0.4270
19631TIP3    H180384   6.061   0.615  14.857  0.8482 -0.4738  1.7278
19631TIP3    H280385   6.142   0.732  14.910  0.5346  0.4711  0.1861
19632TIP3   OH280386   0.424   6.283  16.952  0.6054  0.2277  0.0770
19632TIP3    H180387   0.475   6.358  16.921  1.5391 -0.1940  0.5394
19632TIP3    H280388   0.416   6.226  16.876  0.7106  0.3668 -0.0377
19633TIP3   OH280389   1.802   0.244   5.112  0.1456  0.5795 -0.0839
19633TIP3    H180390   1.722   0.206   5.076 -0.0498  1.7920 -1.0241
19633TIP3    H280391   1.865   0.173   5.113 -1.0260 -0.4918  1.0040
19634TIP3   OH280392   3.137   1.284  15.205 -0.0789  0.5329 -0.5522
19634TIP3    H180393   3.226   1.309  15.178  0.8036 -0.5333  1.1926
19634TIP3    H280394   3.148   1.247  15.292 -2.0778 -0.8392 -0.8172
19635TIP3   OH280395   2.097   3.541  14.844  0.0149 -0.0545 -0.5244
19635TIP3    H180396   2.111   3.533  14.750  0.4956 -0.2709 -0.4361
19635TIP3    H280397   2.037   3.470  14.866  2.9613 -2.6106 -0.0235
19636TIP3   OH280398   5.327   1.565  14.722  0.5114 -0.0234 -0.1363
19636TIP3    H180399   5.335   1.473  14.694 -1.2063 -0.0743 -0.5572
19636TIP3    H280400   5.271   1.605  14.656  0.7373  1.1898  0.3876
19637TIP3   OH280401   1.270   1.610   0.905 -0.5076  0.2334  0.3208
19637TIP3    H180402   1.333   1.548   0.941 -2.7686 -2.1666  0.4966
19637TIP3    H280403   1.255   1.674   0.975  0.4815 -0.1243  0.8633
19638TIP3   OH280404   5.187   1.277  14.893 -0.6434 -0.4194 -0.3591
19638TIP3    H180405   5.106   1.307  14.850 -0.2897 -1.5615 -1.9330
19638TIP3    H280406   5.247   1.258  14.820  2.0130  2.7510  0.7561
19639TIP3   OH280407   0.350   0.354  15.549  0.7590  0.2475 -0.3775
19639TIP3    H180408   0.414   0.282  15.545  0.1851 -0.2003 -2.2686
19639TIP3    H280409   0.295   0.342  15.472 -0.3141  1.8534  0.0877
19640TIP3   OH280410   4.520   2.129  16.476  0.3766 -0.2224  0.6789
19640TIP3    H180411   4.495   2.061  16.538 -3.0220  1.0544  0.9106
19640TIP3    H280412   4.554   2.200  16.531  0.7546 -0.4251  0.7156
19641TIP3   OH280413   4.614   2.561  12.784  0.4888  0.2341 -0.6676
19641TIP3    H180414   4.709   2.575  12.780  0.5916 -0.5792 -1.3656
19641TIP3    H280415   4.595   2.551  12.877  0.8122  2.1422 -0.3717
19642TIP3   OH280416   2.038   0.990   4.460 -0.0794  0.3031 -0.5850
19642TIP3    H180417   2.060   1.080   4.436  1.8684  0.0747  0.1888
19642TIP3    H280418   1.964   0.999   4.521  1.1510  1.5288  0.7992
19643TIP3   OH280419   3.406   3.601  13.992  0.1537 -0.1203 -0.3347
19643TIP3    H180420   3.484   3.657  13.995 -0.2769  0.4549  0.7697
19643TIP3    H280421   3.348   3.644  13.929  0.5522 -0.3389 -0.8649
19644TIP3   OH280422   3.914   6.154  12.456  0.7948 -0.5132  0.5114
19644TIP3    H180423   3.925   6.214  12.382  1.0463 -0.8859  0.2453
19644TIP3    H280424   3.859   6.202  12.518  0.8890 -0.0570  0.2434
19645TIP3   OH280425   5.030   0.921  13.657 -0.0595  0.6650 -0.1222
19645TIP3    H180426   4.948   0.937  13.610 -1.7427 -2.5471  1.3950
19645TIP3    H280427   5.097   0.925  13.588 -2.0631 -0.9944 -2.3792
19646TIP3   OH280428   5.472   5.700   6.190  0.4611 -0.5817  0.5474
19646TIP3    H180429   5.422   5.779   6.212 -0.5585 -0.0046 -3.0950
19646TIP3    H280430   5.405   5.638   6.161  1.5336 -1.3296 -0.3936
19647TIP3   OH280431   1.961   4.082  11.615  0.3533 -0.3337  0.0676
19647TIP3    H180432   1.953   4.155  11.554 -1.6530  0.0844  0.7669
19647TIP3    H280433   2.049   4.047  11.600  1.0591  1.7200 -0.8368
19648TIP3   OH280434   3.746   5.251  15.760 -0.1646 -0.0071 -0.0473
19648TIP3    H180435   3.674   5.214  15.810  0.1860  0.1658  0.5988
19648TIP3    H280436   3.711   5.262  15.671 -0.3679 -1.5962 -0.1820
19649TIP3   OH280437   2.589   0.987  16.578  0.0097  0.4660 -0.0505
19649TIP3    H180438   2.608   1.018  16.489 -1.5805  0.9493 -0.2461
19649TIP3    H280439   2.513   1.037  16.605  0.5630  0.4402  1.6739
19650TIP3   OH280440   3.857   1.355   3.018  0.2620  0.3504  0.4937
19650TIP3    H180441   3.772   1.387   2.988  1.1985  0.3693 -2.4625
19650TIP3    H280442   3.910   1.434   3.028  0.4269  0.2126  0.7188
19651TIP3   OH280443   4.221   6.788   5.350 -0.2666  0.7522  0.1753
19651TIP3    H180444   4.232   6.733   5.428 -0.0491  0.3689 -0.1246
19651TIP3    H280445   4.257   6.873   5.375  0.8844  0.3012  0.1104
19652TIP3   OH280446   5.802   2.844   6.139 -0.7199  0.1188 -0.1735
19652TIP3    H180447   5.785   2.906   6.210 -1.9857  0.1127 -0.4371
19652TIP3    H280448   5.729   2.782   6.143 -0.8079  0.1041 -1.4468
19653TIP3   OH280449   0.522   1.627  13.377 -0.5128  0.1776  0.3237
19653TIP3    H180450   0.446   1.573  13.356 -0.0597 -0.8380  1.2184
19653TIP3    H280451   0.527   1.690  13.305 -0.5881 -1.4693 -1.1711
19654TIP3   OH280452   2.867   4.245   1.607 -0.5861  0.0162 -0.4245
19654TIP3    H180453   2.958   4.272   1.597 -0.8528  0.7890 -0.8817
19654TIP3    H280454   2.854   4.240   1.702 -0.1929  0.3656 -0.3494
19655TIP3   OH280455   2.304   3.608   1.457 -0.1018  0.0128 -0.5114
19655TIP3    H180456   2.242   3.661   1.506  0.1683 -1.1892  1.2073
19655TIP3    H280457   2.256   3.527   1.438  0.7319 -0.7232  0.3996
19656TIP3   OH280458   0.432   6.602  15.153  0.3811  0.4315 -0.3723
19656TIP3    H180459   0.444   6.549  15.075 -0.8300 -1.0987  0.4264
19656TIP3    H280460   0.337   6.603  15.167  0.5780  0.5927  1.1222
19657TIP3   OH280461   3.313   2.643  12.889  0.1071 -0.0760 -0.1541
19657TIP3    H180462   3.283   2.552  12.886 -1.8830  0.5278 -0.2026
19657TIP3    H280463   3.323   2.662  12.982 -0.0351 -0.1873 -0.1156
19658TIP3   OH280464   1.611   2.153   4.690 -0.1253 -0.1227 -0.0667
19658TIP3    H180465   1.705   2.140   4.706  0.4486 -0.6883 -3.1828
19658TIP3    H280466   1.568   2.083   4.738  1.2278 -1.0321 -0.1280
19659TIP3   OH280467   5.576   6.663   0.476 -0.0349  0.5731  0.2421
19659TIP3    H180468   5.617   6.747   0.453  0.5689  0.2071 -0.0400
19659TIP3    H280469   5.555   6.622   0.392  0.1049  0.2348  0.3691
19660TIP3   OH280470   0.834   0.358  15.642  0.0039  0.1757  0.9009
19660TIP3    H180471   0.857   0.419  15.572 -0.1026 -1.1489 -0.3488
19660TIP3    H280472   0.836   0.411  15.722  0.8386  1.5766  0.0009
19661TIP3   OH280473   4.923   1.476   4.955  0.1204 -0.5050 -0.7992
19661TIP3    H180474   5.011   1.512   4.958  0.1539 -0.6342  0.2285
19661TIP3    H280475   4.936   1.381   4.948  0.1946 -0.8936  2.7108
19662TIP3   OH280476   2.853   6.475  12.379 -0.4167 -0.0589 -0.4013
19662TIP3    H180477   2.893   6.409  12.435 -2.3649 -0.5419  0.5235
19662TIP3    H280478   2.913   6.549  12.382  0.0069 -0.4286  1.5728
19663TIP3   OH280479   0.648   1.029   0.709 -0.0402  0.3029  0.5067
19663TIP3    H180480   0.685   0.963   0.767  1.5492  2.0373  1.5574
19663TIP3    H280481   0.668   1.113   0.751 -0.8654  1.5358 -1.4096
19664TIP3   OH280482   5.631   0.834   4.213 -0.2024  0.7292 -0.5307
19664TIP3    H180483   5.625   0.818   4.307  2.4771 -2.0027 -0.6623
19664TIP3    H280484   5.541   0.841   4.183 -1.2108 -0.8867  1.8718
19665TIP3   OH280485   0.201   0.729   3.420 -0.3494  0.3371  0.3152
19665TIP3    H180486   0.182   0.814   3.460  1.3947  1.0566 -0.3292
19665TIP3    H280487   0.262   0.687   3.481  1.0588  0.7752 -0.7447
19666TIP3   OH280488   1.785   4.463   0.223  0.4300  1.1039 -0.1766
19666TIP3    H180489   1.777   4.500   0.311 -0.2420  1.0845 -0.2245
19666TIP3    H280490   1.796   4.540   0.166  2.9232  1.0476  0.1009
19667TIP3   OH280491   2.168   1.442  16.478 -0.1558  0.1170 -0.0769
19667TIP3    H180492   2.075   1.425  16.493 -1.0363  1.9633 -2.7312
19667TIP3    H280493   2.192   1.506  16.544  0.0833 -2.3328  2.3971
19668TIP3   OH280494   4.290   6.095  11.735  0.2078  1.0795  0.0429
19668TIP3    H180495   4.290   6.111  11.641  1.2676  0.3887 -0.0964
19668TIP3    H280496   4.375   6.053  11.752  0.7809  2.7009  1.5600
19669TIP3   OH280497   4.548   4.739  15.542  0.5786 -0.0590  0.2629
19669TIP3    H180498   4.551   4.687  15.622  1.2151 -1.1307 -0.4304
19669TIP3    H280499   4.456   4.764  15.533  0.5037  0.0696  1.3153
19670TIP3   OH280500   3.730   4.767  11.594 -1.0046 -0.1848 -0.4384
19670TIP3    H180501   3.777   4.700  11.644 -1.1952  0.1533  0.2099
19670TIP3    H280502   3.643   4.770  11.634 -0.0159  2.8323  1.9136
19671TIP3   OH280503   6.692   4.958   0.075  0.1626  1.0669  0.2930
19671TIP3    H180504   6.702   4.941  -0.019  1.2786  0.8874  0.4324
19671TIP3    H280505   6.772   4.923   0.114 -0.1327  1.4653  1.2723
19672TIP3   OH280506   3.417   6.697   2.990  0.4099 -0.3694 -0.2142
19672TIP3    H180507   3.496   6.703   2.936 -0.0277 -0.1840 -0.8385
19672TIP3    H280508   3.354   6.649   2.937 -0.1319  0.0947 -0.0056
19673TIP3   OH280509   2.328   6.588   2.646  0.6383  0.1766  0.0871
19673TIP3    H180510   2.236   6.615   2.633  0.3101 -1.0129 -0.1443
19673TIP3    H280511   2.324   6.493   2.657  1.5908  0.3448  2.5430
19674TIP3   OH280512   2.482   4.059   3.872 -0.2221 -0.4489 -0.0005
19674TIP3    H180513   2.532   4.058   3.791  0.0541 -2.8492  0.1213
19674TIP3    H280514   2.523   4.126   3.926  0.1754  0.5275 -1.4721
19675TIP3   OH280515   1.728   5.616  15.371  0.6458 -0.0790  0.2552
19675TIP3    H180516   1.788   5.549  15.404  1.2975  0.7125  0.7137
19675TIP3    H280517   1.661   5.624  15.439  0.1975 -0.7238 -0.1019
19676TIP3   OH280518   3.598   1.982   3.496  0.7220 -0.0026 -0.2068
19676TIP3    H180519   3.688   1.956   3.475  0.8026 -1.3961  1.5710
19676TIP3    H280520   3.607   2.070   3.532  1.7170 -0.8794  1.8575
19677TIP3   OH280521   3.823   6.306  11.371  0.0618 -0.0211 -1.0249
19677TIP3    H180522   3.831   6.342  11.283 -1.3751  0.6553 -0.9174
19677TIP3    H280523   3.812   6.383  11.427  0.4032 -0.4711 -0.3264
19678TIP3   OH280524   1.383   5.886  14.004 -0.4706 -0.1610 -0.0186
19678TIP3    H180525   1.329   5.932  14.068 -0.0168  0.2081  0.1060
19678TIP3    H280526   1.466   5.871  14.050 -0.9551 -2.0625  0.3323
19679TIP3   OH280527   3.644   3.527   5.980  0.6475  0.6647  0.0080
19679TIP3    H180528   3.616   3.606   5.934  0.9690 -0.6547 -2.6910
19679TIP3    H280529   3.563   3.488   6.012  0.2477  0.9698 -0.6024
19680TIP3   OH280530   5.948   2.798  11.075 -0.5275  0.2916  0.2489
19680TIP3    H180531   5.973   2.715  11.035 -0.1924  0.0994  0.8350
19680TIP3    H280532   5.858   2.812  11.048 -0.3841  0.0443 -0.3605
19681TIP3   OH280533   1.151   0.980  15.345  0.0928 -0.8627  0.0739
19681TIP3    H180534   1.156   0.945  15.433 -2.4835 -1.6614 -0.0363
19681TIP3    H280535   1.135   1.074  15.357  0.1114 -0.9055  0.4253
19682TIP3   OH280536   3.379   3.504  12.534  0.3613 -0.0848  0.0361
19682TIP3    H180537   3.316   3.537  12.469  1.0412  0.4128 -0.3798
19682TIP3    H280538   3.324   3.466  12.603 -0.3935  0.1630 -0.4160
19683TIP3   OH280539   0.522   0.746   3.371 -0.0638 -0.0399 -0.3297
19683TIP3    H180540   0.567   0.776   3.450 -2.3843  1.2147  0.6166
19683TIP3    H280541   0.585   0.761   3.300  1.6074  0.0028  1.1032
19684TIP3   OH280542   1.393   5.408   3.531 -0.1299 -0.0827 -0.4738
19684TIP3    H180543   1.384   5.503   3.536  0.2908 -0.0115 -1.0140
19684TIP3    H280544   1.303   5.376   3.522 -0.4947  0.1027  1.8104
19685TIP3   OH280545   6.711   6.008  15.277 -0.2774  0.1951 -0.3003
19685TIP3    H180546   6.638   5.999  15.338 -0.1564  2.9526  0.3616
19685TIP3    H280547   6.777   5.946  15.310 -0.8835  0.3712  1.3314
19686TIP3   OH280548   4.143   5.530   6.663 -0.0250 -1.0238 -0.2145
19686TIP3    H180549   4.074   5.585   6.628  0.5549 -0.9829 -1.3307
19686TIP3    H280550   4.200   5.512   6.588  1.8584 -0.0520  0.9120
19687TIP3   OH280551   6.246   2.252   4.642 -0.4000  0.1185  0.1533
19687TIP3    H180552   6.177   2.275   4.580  0.4926  0.5034 -0.7165
19687TIP3    H280553   6.303   2.191   4.594 -1.2557 -1.8958  1.5482
19688TIP3   OH280554   4.688   2.696   1.910 -0.3958 -0.0106  0.4819
19688TIP3    H180555   4.716   2.710   2.001  0.2903  0.4999  0.1971
19688TIP3    H280556   4.600   2.732   1.907 -0.2987  0.2687  0.8645
19689TIP3   OH280557   4.239   5.883  13.651  0.1617  0.4280  0.2276
19689TIP3    H180558   4.307   5.857  13.588  1.2977  1.6481  0.8925
19689TIP3    H280559   4.255   5.977  13.665 -1.3539  0.6161  0.7967
19690TIP3   OH280560   3.037   5.615  14.662 -0.2062  0.4536 -0.2802
19690TIP3    H180561   3.059   5.688  14.719  0.0113  0.7735 -0.7664
19690TIP3    H280562   3.039   5.538  14.719 -1.3645  0.9322  0.4375
19691TIP3   OH280563   5.981   2.768   5.111  0.1257 -1.1854 -0.3889
19691TIP3    H180564   5.915   2.784   5.178 -0.1958 -0.3899 -0.8808
19691TIP3    H280565   6.044   2.709   5.152  2.3578  2.5721  2.2660
19692TIP3   OH280566   0.701   0.395   0.901  0.0320 -0.0695 -0.4774
19692TIP3    H180567   0.753   0.416   0.979  0.3663  0.9114 -0.9352
19692TIP3    H280568   0.664   0.309   0.918  0.9991 -0.3448  0.2964
19693TIP3   OH280569   5.440   5.215  14.259  0.3451 -0.7085 -0.2690
19693TIP3    H180570   5.384   5.153  14.212 -0.5378  0.2892 -0.5795
19693TIP3    H280571   5.459   5.172  14.342 -0.2457 -1.4047 -0.4848
19694TIP3   OH280572   3.817   3.515  13.296  0.3053 -0.4510 -0.0044
19694TIP3    H180573   3.816   3.518  13.391 -3.1017 -2.5050  0.1991
19694TIP3    H280574   3.753   3.581  13.269  2.1865  1.0374 -1.0113
19695TIP3   OH280575   0.710   4.017   0.365 -0.2712 -0.2087  0.5638
19695TIP3    H180576   0.683   3.925   0.375  1.0184 -0.5037  1.5768
19695TIP3    H280577   0.795   4.012   0.322 -0.2718  0.5246  0.4791
19696TIP3   OH280578   5.917   4.020  15.333 -0.1232  0.2748  0.0910
19696TIP3    H180579   5.980   4.027  15.404  0.6197 -0.0373 -0.5281
19696TIP3    H280580   5.925   4.102  15.284  2.4536 -1.1323 -2.1183
19697TIP3   OH280581   4.213   4.954   0.194 -0.8000  0.1993  0.1270
19697TIP3    H180582   4.170   4.923   0.115  0.3579 -1.2268  0.0159
19697TIP3    H280583   4.272   5.024   0.164 -1.2872  0.5302 -0.0663
19698TIP3   OH280584   4.514   1.592   3.074  0.0074 -0.4759  0.3873
19698TIP3    H180585   4.439   1.644   3.103 -0.2513 -0.0287 -1.0292
19698TIP3    H280586   4.590   1.646   3.093 -0.1215 -0.3582  0.5743
19699TIP3   OH280587   4.175   1.970  12.587  0.4001 -0.0172 -0.2189
19699TIP3    H180588   4.256   1.919  12.582  0.2269 -0.6860  2.5073
19699TIP3    H280589   4.108   1.906  12.608 -0.5930  0.7811 -0.8571
19700TIP3   OH280590   4.977   4.276   0.594 -0.1558  0.4041  0.5115
19700TIP3    H180591   4.999   4.340   0.661  1.6660  0.5755 -0.1702
19700TIP3    H280592   4.970   4.327   0.513  0.6631 -0.1357  0.0796
19701TIP3   OH280593   5.058   3.055  13.078  0.4328 -0.0599 -0.5173
19701TIP3    H180594   5.143   3.088  13.106  1.4800 -0.9085 -2.4583
19701TIP3    H280595   5.047   2.974  13.126 -0.1609  0.9314  1.0853
19702TIP3   OH280596   0.773   0.611  13.296 -0.3803 -0.0013 -0.5646
19702TIP3    H180597   0.799   0.531  13.250  2.7178  0.6897 -0.2740
19702TIP3    H280598   0.713   0.581  13.364  0.6086 -2.1046 -0.5241
19703TIP3   OH280599   0.841   2.508   4.054  0.2304 -0.4367  0.3005
19703TIP3    H180600   0.801   2.595   4.057  0.2557 -0.4278  0.3928
19703TIP3    H280601   0.791   2.460   3.988 -1.2605 -1.0721  1.8252
19704TIP3   OH280602   0.991   4.291   0.211 -0.2634 -0.0216  0.2036
19704TIP3    H180603   0.940   4.259   0.137  0.9080  0.6490 -0.9439
19704TIP3    H280604   0.939   4.362   0.248 -0.4174  0.2849 -0.6034
19705TIP3   OH280605   0.519   3.383  13.548  0.2719  0.1641  0.2314
19705TIP3    H180606   0.614   3.378  13.553  0.3086  1.1408  0.8210
19705TIP3    H280607   0.490   3.384  13.639 -0.4222 -1.6784  0.0750
19706TIP3   OH280608   6.770   4.450   5.982  0.1339 -0.4924  0.4252
19706TIP3    H180609   6.705   4.509   5.943 -0.5643 -0.5451  1.4729
19706TIP3    H280610   6.810   4.500   6.052  1.2916 -0.4445 -0.2479
19707TIP3   OH280611   0.678   6.501   3.219  0.4421  0.4050 -0.6654
19707TIP3    H180612   0.626   6.453   3.154 -0.0000  0.1076 -0.0993
19707TIP3    H280613   0.767   6.497   3.186  0.7178 -2.2106  0.1706
19708TIP3   OH280614   5.386   1.458   4.926  0.8798  0.0414  0.2560
19708TIP3    H180615   5.361   1.397   4.995  0.5147 -0.9234 -0.7024
19708TIP3    H280616   5.481   1.468   4.937  0.6951  0.6124  1.4460
19709TIP3   OH280617   5.443   6.356  16.293 -0.6563  0.3596 -0.1770
19709TIP3    H180618   5.417   6.385  16.380  0.6538  1.2389 -0.0498
19709TIP3    H280619   5.377   6.290  16.269 -1.6804  0.9128  0.9906
19710TIP3   OH280620   0.869   5.174  11.280 -0.3815  0.1679  0.4414
19710TIP3    H180621   0.881   5.096  11.225  0.4347 -0.1465  1.0445
19710TIP3    H280622   0.792   5.218  11.243 -0.3348 -0.4645 -0.4432
19711TIP3   OH280623   4.193   5.891  15.078 -0.2197  0.3238 -0.0824
19711TIP3    H180624   4.220   5.983  15.076  0.3814  0.1512 -0.1791
19711TIP3    H280625   4.166   5.876  15.169 -0.5375  0.6547 -0.1195
19712TIP3   OH280626   4.372   3.874  11.100 -0.6537  0.4334 -0.0067
19712TIP3    H180627   4.330   3.940  11.046 -0.8380 -0.2432 -0.7107
19712TIP3    H280628   4.461   3.906  11.114 -0.4051  0.3119 -1.2485
19713TIP3   OH280629   0.976   4.886  12.326 -0.6024 -0.1131 -0.6984
19713TIP3    H180630   0.972   4.924  12.414 -2.9708  1.7747 -1.5022
19713TIP3    H280631   0.925   4.805  12.333 -0.2695 -0.2862 -0.2131
19714TIP3   OH280632   2.791   2.738  10.737  0.1457 -0.4966 -0.3106
19714TIP3    H180633   2.726   2.681  10.778  0.1570  0.3212  0.8926
19714TIP3    H280634   2.758   2.826  10.750  2.3996  0.1382  2.1887
19715TIP3   OH280635   1.335   0.040  14.875  0.1077 -0.4443  0.1450
19715TIP3    H180636   1.295   0.038  14.962 -1.6630  0.1245 -0.6160
19715TIP3    H280637   1.340  -0.052  14.849  0.1425 -0.5820  0.6314
19716TIP3   OH280638   2.379   6.330   3.376 -0.0598  0.1004 -0.4330
19716TIP3    H180639   2.444   6.394   3.403  0.1102  0.4737 -1.6781
19716TIP3    H280640   2.317   6.379   3.321 -0.6403 -0.5361 -0.3704
19717TIP3   OH280641   6.701   4.321   4.274  0.5968  0.0701 -0.3270
19717TIP3    H180642   6.769   4.313   4.342  0.6582 -0.6436 -0.4709
19717TIP3    H280643   6.632   4.372   4.316  0.7236 -0.1919  0.2122
19718TIP3   OH280644   0.400   1.828  12.052 -0.0678 -0.5438 -0.4277
19718TIP3    H180645   0.337   1.900  12.062  0.7620  0.1075  0.3014
19718TIP3    H280646   0.377   1.787  11.969 -1.2794 -0.1500 -0.3047
19719TIP3   OH280647   6.385   5.729  13.100  0.1451  0.0697 -0.0087
19719TIP3    H180648   6.424   5.800  13.049  2.4705 -1.1110 -0.0239
19719TIP3    H280649   6.348   5.669  13.034  2.2663 -0.9568 -0.3595
19720TIP3   OH280650   6.003   1.983  16.295  0.6663  0.4893  0.2044
19720TIP3    H180651   5.942   1.998  16.368  0.0624 -0.0344 -0.1812
19720TIP3    H280652   5.947   1.957  16.222  1.4762 -1.9678  0.3657
19721TIP3   OH280653   3.429   1.303  11.866  0.3146  0.2161 -0.0346
19721TIP3    H180654   3.376   1.326  11.790  0.9837 -0.4256 -0.7158
19721TIP3    H280655   3.513   1.348  11.852  1.2224 -1.5994 -0.8058
19722TIP3   OH280656   4.218   6.502  10.924  0.1807  0.6939  0.3881
19722TIP3    H180657   4.306   6.532  10.901 -0.6473  0.9510 -2.9406
19722TIP3    H280658   4.172   6.495  10.840 -2.7258 -0.3034  1.9194
19723TIP3   OH280659   6.733   2.087   2.125  0.3643 -0.0890  0.1548
19723TIP3    H180660   6.659   2.044   2.168 -0.4034  1.6941  0.6743
19723TIP3    H280661   6.694   2.156   2.072  1.6747  1.2935  0.9124
19724TIP3   OH280662   0.003   6.451  12.203 -0.4625  0.0649  0.1213
19724TIP3    H180663  -0.009   6.518  12.136 -1.2579 -0.1979 -0.0111
19724TIP3    H280664   0.095   6.426  12.195  0.1707  1.9522  0.9603
19725TIP3   OH280665   5.455   0.056   1.066 -0.1873 -0.2352 -0.1303
19725TIP3    H180666   5.395   0.000   1.115 -1.8958  0.1424 -1.6887
19725TIP3    H280667   5.500  -0.004   1.006 -0.5524 -0.2228 -0.4175
19726TIP3   OH280668   3.201   2.288   3.013 -0.4192  0.2993 -0.2805
19726TIP3    H180669   3.134   2.256   2.952 -0.8181 -0.4909  0.5566
19726TIP3    H280670   3.258   2.212   3.027  0.2893  0.7837 -0.4782
19727TIP3   OH280671   3.627   4.817   2.974  0.4416  0.0632  0.0421
19727TIP3    H180672   3.540   4.809   2.934  0.5997 -2.9809  0.0648
19727TIP3    H280673   3.684   4.839   2.900 -0.0703  0.2237 -0.3194
19728TIP3   OH280674   6.738   0.283  14.227 -0.0990  0.2630 -0.1030
19728TIP3    H180675   6.739   0.230  14.148  1.9217 -0.0063  0.0552
19728TIP3    H280676   6.713   0.222  14.297 -0.5555  0.1811 -0.3400
19729TIP3   OH280677   5.824   0.370  16.718 -0.9095 -0.4145 -0.0380
19729TIP3    H180678   5.781   0.380  16.634  1.1873 -1.2333 -1.2784
19729TIP3    H280679   5.853   0.279  16.720  0.9403  0.1413  0.6012
19730TIP3   OH280680   3.793   3.694  13.520 -0.5804 -0.0781  0.5853
19730TIP3    H180681   3.829   3.622  13.571  0.0850  0.2485  0.5901
19730TIP3    H280682   3.776   3.763  13.584 -0.0749  0.2049  0.4196
19731TIP3   OH280683   6.558   3.518   4.835  0.1251 -0.0598  0.0210
19731TIP3    H180684   6.513   3.573   4.900 -0.7891 -1.4513  0.6051
19731TIP3    H280685   6.651   3.536   4.850 -0.1385  1.2115  0.2812
19732TIP3   OH280686   6.680   5.040  14.345 -0.0217  0.1566  0.1569
19732TIP3    H180687   6.652   5.081  14.263 -0.1437  0.5298  0.3856
19732TIP3    H280688   6.598   5.011  14.386 -0.2150  2.2937  1.3916
19733TIP3   OH280689   5.925   1.516   1.847 -0.3740 -0.1190 -0.5570
19733TIP3    H180690   5.932   1.537   1.940 -1.4146  1.9201 -0.8688
19733TIP3    H280691   5.856   1.450   1.842 -1.6492  1.1229  0.0111
19734TIP3   OH280692   0.676   1.687  13.941  0.1682 -0.3404  0.8562
19734TIP3    H180693   0.762   1.705  13.980  0.1530  0.3852  0.5734
19734TIP3    H280694   0.662   1.594  13.957  0.5614 -0.2562  1.7960
19735TIP3   OH280695   5.464   4.294  16.905 -0.4343  0.1925 -0.0607
19735TIP3    H180696   5.377   4.257  16.920 -1.3049  1.6140 -1.3306
19735TIP3    H280697   5.455   4.386  16.928  0.2035  0.7574 -1.9482
19736TIP3   OH280698   1.616   1.529   2.586 -0.0866 -0.2006  0.3838
19736TIP3    H180699   1.557   1.599   2.611 -0.1049 -1.3053  3.9134
19736TIP3    H280700   1.699   1.572   2.567 -0.4074  0.8523  1.3360
19737TIP3   OH280701   1.543   0.297  16.607 -0.1421  0.5724  0.4256
19737TIP3    H180702   1.453   0.321  16.628  0.4973  2.1936  1.6165
19737TIP3    H280703   1.539   0.256  16.521 -1.6981  3.0403 -0.7753
19738TIP3   OH280704   3.760   2.394  12.981 -0.1377  0.0977  0.0468
19738TIP3    H180705   3.755   2.433  13.069  2.3890 -0.7985  0.6886
19738TIP3    H280706   3.707   2.314  12.988 -2.7619  1.6668 -0.3566
19739TIP3   OH280707   0.612   2.162  11.234 -0.1762 -0.1209 -0.5122
19739TIP3    H180708   0.681   2.228  11.226  0.0151 -0.3122 -0.4481
19739TIP3    H280709   0.604   2.125  11.146 -1.4225  1.1116 -0.9676
19740TIP3   OH280710   3.927   0.100   2.281 -0.0366 -0.2248 -0.2374
19740TIP3    H180711   3.925   0.093   2.376 -1.8800 -0.0856 -0.2429
19740TIP3    H280712   3.837   0.083   2.253  0.1731  1.0419 -1.8485
19741TIP3   OH280713   4.477   1.900  11.923 -0.2623  0.6068  0.5738
19741TIP3    H180714   4.388   1.900  11.888  0.3378 -1.6365 -1.2130
19741TIP3    H280715   4.468   1.861  12.010 -1.0443  0.4967  0.4516
19742TIP3   OH280716   4.671   6.311   4.332 -0.1761  0.2952  0.5953
19742TIP3    H180717   4.612   6.381   4.304 -0.1149  0.4162  0.7729
19742TIP3    H280718   4.617   6.253   4.385 -0.1353  0.4039  0.7545
19743TIP3   OH280719   3.657   5.120   0.568  0.8906 -0.4163  0.1107
19743TIP3    H180720   3.591   5.058   0.538 -0.3275  0.3565  1.0731
19743TIP3    H280721   3.731   5.066   0.595  0.5248 -1.3294 -0.6815
19744TIP3   OH280722   0.951   6.677  16.820  0.2990  0.0852  0.0565
19744TIP3    H180723   0.927   6.727  16.741 -0.8993 -0.9273 -0.2464
19744TIP3    H280724   0.881   6.696  16.883  0.1745 -0.6854  0.1609
19745TIP3   OH280725   4.453   4.103   2.154 -0.0491  0.2521  0.1773
19745TIP3    H180726   4.395   4.178   2.159  0.3651  0.7440 -1.5523
19745TIP3    H280727   4.471   4.093   2.060  3.6958  0.9925  0.6401
19746TIP3   OH280728   2.304   6.266   0.482  0.1474 -0.1307 -0.2521
19746TIP3    H180729   2.242   6.308   0.541 -0.0083 -1.4543  0.5810
19746TIP3    H280730   2.253   6.199   0.437  0.8695 -0.9861  0.1665
19747TIP3   OH280731   0.264   5.057   2.027 -0.3837  0.6299  0.2054
19747TIP3    H180732   0.303   5.144   2.032 -1.1622  1.1652 -1.9603
19747TIP3    H280733   0.192   5.060   2.090  0.7445  0.8700  1.5338
19748TIP3   OH280734   0.787   5.688   5.598 -0.3139 -0.1305  0.0725
19748TIP3    H180735   0.811   5.621   5.534  1.4329  2.6435 -2.4320
19748TIP3    H280736   0.699   5.716   5.572  0.0202  0.3331 -0.6094
19749TIP3   OH280737   4.227   0.097  14.520  0.0962  0.2449  0.2298
19749TIP3    H180738   4.301   0.092  14.459 -0.2096 -2.2782 -0.0259
19749TIP3    H280739   4.260   0.059  14.601 -0.9506 -1.1631  0.0335
19750TIP3   OH280740   5.534   4.597   5.543  0.1949  0.1379 -0.5358
19750TIP3    H180741   5.495   4.654   5.476  0.6571  2.7098  1.2038
19750TIP3    H280742   5.463   4.585   5.607  1.4367  3.1669  1.6385
19751TIP3   OH280743   2.490   2.124  15.314 -1.0454  0.2993 -0.3204
19751TIP3    H180744   2.524   2.037  15.293  1.1001  0.9778  0.0739
19751TIP3    H280745   2.517   2.139  15.404  1.0342  2.3841 -1.1854
19752TIP3   OH280746   5.358   2.662  15.459  0.0966  0.0276 -0.1967
19752TIP3    H180747   5.375   2.595  15.393  0.8507  0.5236 -0.5249
19752TIP3    H280748   5.420   2.643  15.530 -1.2526 -0.9796  0.7406
19753TIP3   OH280749   0.390   3.639   0.723  0.2358  0.8039  0.3513
19753TIP3    H180750   0.434   3.720   0.697 -0.8712  2.2968  2.7263
19753TIP3    H280751   0.403   3.635   0.818 -2.1298 -0.2645  0.7001
19754TIP3   OH280752   5.924   1.685  10.673  0.1315 -0.6591  0.0521
19754TIP3    H180753   5.844   1.736  10.659  0.3777 -0.8184 -2.1511
19754TIP3    H280754   5.995   1.744  10.649  0.7407 -0.5613  1.8839
19755TIP3   OH280755   0.667   0.955   6.056 -0.2036  0.4877 -0.0730
19755TIP3    H180756   0.620   0.894   6.113 -1.8399  1.1481 -0.6512
19755TIP3    H280757   0.713   1.013   6.116  0.6227 -0.7058  0.4977
19756TIP3   OH280758   1.221   3.525   0.563 -0.4370  0.3908  0.5059
19756TIP3    H180759   1.239   3.487   0.477  0.8723 -1.1271  1.3907
19756TIP3    H280760   1.183   3.611   0.544  0.9205  0.6048 -1.5849
19757TIP3   OH280761   2.337   3.385  13.595  0.4685 -0.0504 -0.5053
19757TIP3    H180762   2.384   3.467  13.580 -1.3310  1.5345  1.7911
19757TIP3    H280763   2.396   3.332  13.647  0.7941  0.7874  0.0052
19758TIP3   OH280764   4.609   2.651  11.806  0.0861 -0.1226  0.2134
19758TIP3    H180765   4.592   2.613  11.892  0.9368  0.4767  0.6665
19758TIP3    H280766   4.523   2.663  11.767 -0.2198 -3.8645 -0.6048
19759TIP3   OH280767   4.751   4.872   0.104 -0.5936 -0.0090  0.2469
19759TIP3    H180768   4.736   4.966   0.110 -0.0291  0.1163 -0.2753
19759TIP3    H280769   4.676   4.833   0.149 -0.2851  0.7038  1.4126
19760TIP3   OH280770   3.575   1.415   2.123  0.1729 -0.3988  0.4946
19760TIP3    H180771   3.615   1.502   2.113  1.2249 -1.0744 -2.0503
19760TIP3    H280772   3.556   1.388   2.033  0.2821 -2.9807  1.1830
19761TIP3   OH280773   4.763   2.202   2.404 -0.4126 -0.0827 -0.3845
19761TIP3    H180774   4.798   2.264   2.340  0.3461  0.2709  0.3560
19761TIP3    H280775   4.827   2.131   2.407 -1.5151 -1.1877 -1.5894
19762TIP3   OH280776   4.115   4.625   0.231 -0.0497  0.1384  0.2901
19762TIP3    H180777   4.146   4.549   0.281  1.5513 -1.4421 -2.7529
19762TIP3    H280778   4.025   4.638   0.260 -0.4232 -2.9938  0.9644
19763TIP3   OH280779   0.479   2.191  16.058 -0.1389  0.5288 -0.6763
19763TIP3    H180780   0.422   2.241  16.116  2.6260  2.9898  0.2312
19763TIP3    H280781   0.537   2.143  16.118  0.6504  0.5074 -1.4432
19764TIP3   OH280782   5.142   4.900  10.341 -0.0734 -0.3960 -0.0781
19764TIP3    H180783   5.101   4.898  10.427 -2.4122 -0.4129 -1.1268
19764TIP3    H280784   5.123   4.814  10.303  0.7295 -0.3081 -0.7088
19765TIP3   OH280785   6.216   1.075  11.400 -0.2204 -0.3945  0.6830
19765TIP3    H180786   6.206   1.054  11.307 -0.5025 -0.9651  0.8383
19765TIP3    H280787   6.207   1.170  11.404 -1.9995 -0.5243  0.3526
19766TIP3   OH280788   4.817   4.452  14.970  0.0451 -0.4082 -0.0571
19766TIP3    H180789   4.805   4.400  15.049 -0.0847  0.0749  0.2442
19766TIP3    H280790   4.759   4.528  14.981 -0.5326 -0.7050 -0.9497
19767TIP3   OH280791   4.525   4.368  12.190 -0.2924  0.1967 -0.1649
19767TIP3    H180792   4.433   4.363  12.166  0.0004 -0.3611 -1.2637
19767TIP3    H280793   4.564   4.288  12.155 -0.2185 -2.0624  4.4035
19768TIP3   OH280794   6.438   5.557   0.753  0.0079  0.5554  0.1446
19768TIP3    H180795   6.395   5.582   0.671  0.7400 -0.2504 -0.5106
19768TIP3    H280796   6.392   5.477   0.780  1.1174 -0.3869 -0.6308
19769TIP3   OH280797   5.562   5.506  13.609  0.0678  0.0393 -0.1557
19769TIP3    H180798   5.483   5.547  13.642  1.3905  2.0205  0.7156
19769TIP3    H280799   5.598   5.569  13.546  1.3971 -0.4035  0.1170
19770TIP3   OH280800   0.277   6.749  15.509  0.5399 -0.4215  0.2020
19770TIP3    H180801   0.318   6.825  15.549  1.0575 -0.8894  0.5716
19770TIP3    H280802   0.320   6.674  15.550 -0.2895 -0.9172  0.1839
19771TIP3   OH280803   6.524   4.740  15.731 -0.1466  0.2318  0.2309
19771TIP3    H180804   6.523   4.802  15.804 -2.7967  0.0448  0.4750
19771TIP3    H280805   6.546   4.793  15.654 -2.8648  1.7209  0.3490
19772TIP3   OH280806   3.622   2.805  14.014 -0.0811  0.5918 -0.3706
19772TIP3    H180807   3.588   2.803  14.103  0.1273 -2.2044 -0.2695
19772TIP3    H280808   3.649   2.896  14.000  0.7813  0.8992  2.7378
19773TIP3   OH280809   3.108   4.204  11.649  0.5093 -0.3052 -0.4144
19773TIP3    H180810   3.186   4.224  11.597  0.8161 -0.0330  0.1386
19773TIP3    H280811   3.040   4.187  11.584  0.5431  1.3460 -0.9394
19774TIP3   OH280812   0.747   4.593   5.413  0.3220 -0.3152  0.3023
19774TIP3    H180813   0.735   4.502   5.439  2.4652 -0.1506  2.1220
19774TIP3    H280814   0.721   4.595   5.321  0.3962 -2.8033  0.1638
19775TIP3   OH280815   4.262   3.568  15.122  0.1323 -0.2004  0.1190
19775TIP3    H180816   4.189   3.591  15.179  1.6735 -3.1214  3.6468
19775TIP3    H280817   4.225   3.504  15.061 -0.6293 -0.1813  0.5460
19776TIP3   OH280818   4.986   5.013  11.069  0.2350 -0.2457 -0.6440
19776TIP3    H180819   5.043   5.018  10.992  2.7522 -2.5661  0.8462
19776TIP3    H280820   5.001   4.925  11.104 -1.7843  0.2399  1.7766
19777TIP3   OH280821   1.473   4.214   4.808  0.1389 -0.2841 -0.5097
19777TIP3    H180822   1.511   4.175   4.886 -0.4061  1.7126  0.8437
19777TIP3    H280823   1.393   4.165   4.793  0.7612 -1.3469 -0.4395
19778TIP3   OH280824   0.645   0.583   1.872 -0.4679 -0.1600 -0.5115
19778TIP3    H180825   0.554   0.559   1.887  0.4107 -3.5637  0.3483
19778TIP3    H280826   0.680   0.600   1.960 -0.0396  0.2591 -0.7557
19779TIP3   OH280827   4.087   0.095  15.525 -0.2195 -0.0081  0.0150
19779TIP3    H180828   4.049   0.101  15.438 -0.9620 -1.3099  0.2292
19779TIP3    H280829   4.013   0.105  15.585  0.5292  2.9919  0.6185
19780TIP3   OH280830   5.634   1.839  13.426  0.1744 -0.0833  0.2809
19780TIP3    H180831   5.542   1.858  13.446 -0.2231  0.7900 -2.0930
19780TIP3    H280832   5.631   1.764  13.367  0.9906 -0.1419  0.3009
19781TIP3   OH280833   5.374   1.908   0.222 -0.7765 -0.8763 -0.4516
19781TIP3    H180834   5.398   1.960   0.298 -4.1194 -0.2941  0.3319
19781TIP3    H280835   5.411   1.956   0.148  1.7785 -0.9964  0.6270
19782TIP3   OH280836   1.383   4.263   1.357 -0.2431  0.7757 -0.5863
19782TIP3    H180837   1.287   4.269   1.354 -0.4229 -1.3973 -1.2374
19782TIP3    H280838   1.401   4.168   1.358  1.8351  0.9986  3.2308
19783TIP3   OH280839   1.161   0.716  10.672  0.0240 -0.0277 -0.2979
19783TIP3    H180840   1.159   0.711  10.577 -0.4150 -0.6783 -0.2555
19783TIP3    H280841   1.191   0.630  10.701  0.3792  0.2347  0.1513
19784TIP3   OH280842   1.222   3.511  16.501  0.2221  0.8045 -0.1028
19784TIP3    H180843   1.254   3.535  16.414  0.1265  1.3531  0.0118
19784TIP3    H280844   1.183   3.424  16.488  1.2016  0.3879 -0.3661
19785TIP3   OH280845   5.335   5.762  10.469 -0.7297 -0.5889 -0.7000
19785TIP3    H180846   5.421   5.802  10.464 -1.3519  1.2265  1.6935
19785TIP3    H280847   5.277   5.824  10.425 -1.0310 -1.2437 -1.2582
19786TIP3   OH280848   2.428   3.613  14.685  0.3504 -0.5508 -0.5422
19786TIP3    H180849   2.391   3.661  14.759 -1.6780 -0.5501 -1.4886
19786TIP3    H280850   2.414   3.521  14.706 -0.7401 -0.5394 -1.1210
19787TIP3   OH280851   2.065   1.406  16.000  0.3577  0.0834  0.4008
19787TIP3    H180852   2.068   1.501  15.988  1.0428  0.0607  0.3478
19787TIP3    H280853   2.125   1.389  16.073 -2.5767  0.0741  3.0238
19788TIP3   OH280854   4.994   5.790  12.090 -0.0293  0.1841 -0.4035
19788TIP3    H180855   5.023   5.737  12.164  0.7677 -0.5587 -1.2227
19788TIP3    H280856   4.926   5.738  12.049  0.1855  0.1657 -0.7367
19789TIP3   OH280857   0.560   6.008   0.122  0.3133 -0.3515 -0.3391
19789TIP3    H180858   0.649   6.030   0.150 -0.2151  0.6565  0.6203
19789TIP3    H280859   0.554   6.040   0.032  0.0822  2.1107  0.4800
19790TIP3   OH280860   6.580   6.490   4.489  0.5517 -0.4430 -0.2565
19790TIP3    H180861   6.494   6.448   4.480 -0.6410  1.4659  1.2557
19790TIP3    H280862   6.627   6.468   4.409 -1.2643 -1.7617 -1.0127
19791TIP3   OH280863   0.330   2.298  16.924  0.5843 -0.2563 -0.0918
19791TIP3    H180864   0.345   2.209  16.954  0.7170 -0.1191  0.2584
19791TIP3    H280865   0.297   2.344  17.002 -1.0960 -0.4040 -0.6804
19792TIP3   OH280866   5.008   3.438  17.171 -0.6173 -0.0631  0.1087
19792TIP3    H180867   4.938   3.427  17.235 -1.8570 -0.3052 -1.2306
19792TIP3    H280868   4.987   3.521  17.128 -0.7420 -0.6841 -1.0652
19793TIP3   OH280869   1.221   0.460   3.395  0.6695  0.7649 -0.2112
19793TIP3    H180870   1.172   0.537   3.422 -1.2163 -0.9752  1.7289
19793TIP3    H280871   1.309   0.474   3.429  0.2475  1.8458  0.4803
19794TIP3   OH280872   5.672   5.426   4.370  0.3585  0.2561 -0.2048
19794TIP3    H180873   5.618   5.349   4.355  0.7102 -0.9131  3.5620
19794TIP3    H280874   5.650   5.455   4.458  1.5702  3.4517 -0.7937
19795TIP3   OH280875   5.302   2.177   6.315 -0.2241  0.1373  0.3691
19795TIP3    H180876   5.390   2.188   6.279 -0.6865  1.2355 -0.4860
19795TIP3    H280877   5.301   2.233   6.392 -0.4212  0.7475 -0.0746
19796TIP3   OH280878   2.734   5.038  16.256  0.6281 -0.8297 -0.8268
19796TIP3    H180879   2.709   4.959  16.207  1.2942 -0.6459 -1.4706
19796TIP3    H280880   2.691   5.110  16.209 -1.6368 -0.9562  0.9028
19797TIP3   OH280881   0.657   4.656   3.989  0.3885  0.2682 -0.0899
19797TIP3    H180882   0.688   4.601   4.062  2.1185  0.4019 -0.6708
19797TIP3    H280883   0.566   4.630   3.976  0.1817 -0.1236  1.7712
19798TIP3   OH280884   0.250   4.135  11.360  0.1097 -0.1031 -0.0954
19798TIP3    H180885   0.225   4.068  11.424  2.4148 -0.5050  0.5031
19798TIP3    H280886   0.254   4.088  11.277  1.3779 -0.6847  0.2621
19799TIP3   OH280887   2.146   3.042  16.648  0.0339 -0.0586 -0.1250
19799TIP3    H180888   2.208   3.101  16.693 -0.5524  0.9913 -0.6521
19799TIP3    H280889   2.136   3.081  16.561  0.6877 -1.7252 -0.9790
19800TIP3   OH280890   0.966   5.936  16.370 -0.8483 -0.0316  0.5475
19800TIP3    H180891   1.024   5.980  16.309 -0.4881 -0.8371  0.2942
19800TIP3    H280892   0.941   5.855  16.326 -2.0770  0.2490  0.6998
19801TIP3   OH280893   0.262   5.046   5.700 -0.1809  0.5098  0.3124
19801TIP3    H180894   0.171   5.057   5.673 -0.4358 -0.7307  0.6436
19801TIP3    H280895   0.267   4.957   5.735  1.4155  0.1489 -0.7204
19802TIP3   OH280896   6.751   2.376  14.714  0.2491 -0.7248 -0.2844
19802TIP3    H180897   6.684   2.415  14.660  1.0898 -0.8493 -1.4490
19802TIP3    H280898   6.769   2.291  14.674  1.2692 -0.5926 -0.1517
19803TIP3   OH280899   0.715   0.783  13.766  0.1403  0.6502 -0.4122
19803TIP3    H180900   0.805   0.792  13.734  0.3318 -0.9903 -0.4167
19803TIP3    H280901   0.661   0.798  13.689  0.3348  2.5323 -0.2331
19804TIP3   OH280902   5.073   5.271   0.317  0.5317  0.1615 -0.2742
19804TIP3    H180903   5.114   5.185   0.328 -1.8703 -1.0527 -0.2802
19804TIP3    H280904   5.096   5.297   0.228  0.7446 -0.7754 -0.5059
19805TIP3   OH280905   6.474   4.458  15.618  0.0987 -0.1219 -0.4688
19805TIP3    H180906   6.535   4.402  15.569 -0.1452  0.5535 -1.5860
19805TIP3    H280907   6.487   4.545  15.581  1.0052  0.7628  1.7245
19806TIP3   OH280908   0.489   2.764   1.539 -0.6090 -0.1910  0.5682
19806TIP3    H180909   0.460   2.824   1.471 -0.1675 -0.0104  0.5359
19806TIP3    H280910   0.486   2.678   1.498  2.0131  0.1431 -0.5205
19807TIP3   OH280911   0.694   4.727   1.053  0.3136 -0.0956  0.0035
19807TIP3    H180912   0.670   4.635   1.067 -1.4128  0.2536 -0.4995
19807TIP3    H280913   0.668   4.745   0.963  0.5774  0.9255  0.1190
19808TIP3   OH280914   2.503   2.088  16.611  0.3925  0.4071  0.0941
19808TIP3    H180915   2.592   2.089  16.578  0.3752  1.2330  0.0591
19808TIP3    H280916   2.501   2.155  16.679 -0.4875  1.2399 -0.7097
19809TIP3   OH280917   3.325   6.337   5.322 -0.1612  0.4662 -0.5926
19809TIP3    H180918   3.367   6.265   5.274 -0.2298 -0.9618  1.3778
19809TIP3    H280919   3.379   6.350   5.400 -1.0065  1.5397 -0.1581
19810TIP3   OH280920   3.540   2.851   1.233 -0.4150 -0.2261 -0.5225
19810TIP3    H180921   3.456   2.857   1.280 -0.5426  1.4885 -0.8972
19810TIP3    H280922   3.605   2.841   1.302 -0.8216 -0.3053 -0.1435
19811TIP3   OH280923   6.521   5.895   0.677 -0.7828  0.0957 -0.2721
19811TIP3    H180924   6.514   5.850   0.592  0.5976 -1.4727  0.3822
19811TIP3    H280925   6.615   5.909   0.689 -1.1649  3.6189 -0.5939
19812TIP3   OH280926   2.545   2.825  11.851  0.0134  0.3180  0.2000
19812TIP3    H180927   2.453   2.819  11.876  0.0415 -1.9124 -0.0597
19812TIP3    H280928   2.592   2.836  11.934 -0.3817 -0.2673  0.5054
19813TIP3   OH280929   0.651   5.734  11.510  0.0795 -0.1547  0.9087
19813TIP3    H180930   0.613   5.736  11.423  1.0915 -1.7846  0.3824
19813TIP3    H280931   0.597   5.794  11.561 -2.6805 -1.6964  0.0254
19814TIP3   OH280932   2.517   4.801   4.478 -0.4775  0.1611 -0.2331
19814TIP3    H180933   2.483   4.737   4.416  2.4483 -0.5026 -1.2693
19814TIP3    H280934   2.507   4.885   4.433 -0.5395 -0.0430 -0.6065
19815TIP3   OH280935   4.116   4.455  13.335 -0.0266  0.2638 -0.2088
19815TIP3    H180936   4.135   4.505  13.256  1.8727 -0.3095 -0.1751
19815TIP3    H280937   4.125   4.518  13.407  0.4379  0.3006 -0.2985
19816TIP3   OH280938   5.986   3.568  17.048  0.9207  0.3298 -0.6357
19816TIP3    H180939   5.893   3.570  17.025  0.2767 -0.5252  1.6435
19816TIP3    H280940   6.019   3.653  17.020 -0.0864 -0.0036 -3.1166
19817TIP3   OH280941   1.788   1.318   4.478  0.2815 -0.2241  0.1909
19817TIP3    H180942   1.714   1.294   4.533  0.4775 -1.0390  0.1002
19817TIP3    H280943   1.862   1.269   4.514  0.7973  0.6181  0.3161
19818TIP3   OH280944   3.160   1.374  16.503  0.6172  0.1497  0.3586
19818TIP3    H180945   3.087   1.323  16.468 -0.0805  1.0389  0.4745
19818TIP3    H280946   3.221   1.309  16.538  0.0398 -0.6189 -0.0545
19819TIP3   OH280947   5.205   5.468  14.688  0.4599  0.1232  0.6101
19819TIP3    H180948   5.269   5.473  14.618  1.0144 -1.3424  0.9784
19819TIP3    H280949   5.239   5.401  14.747 -1.2378 -0.4475  0.9903
19820TIP3   OH280950   0.896   2.630   2.633 -0.1054  0.5081 -0.7788
19820TIP3    H180951   0.902   2.691   2.560 -0.3320  1.4756 -0.0093
19820TIP3    H280952   0.981   2.586   2.635 -0.0681  0.5446 -1.5651
19821TIP3   OH280953   5.982   0.878  12.866 -0.5579  0.5864 -0.2075
19821TIP3    H180954   5.946   0.960  12.900  1.1674  1.4327 -0.3156
19821TIP3    H280955   6.047   0.905  12.801 -1.0146 -0.9210 -1.3289
19822TIP3   OH280956   5.733   1.894  16.802  0.3075  1.0502 -0.1835
19822TIP3    H180957   5.790   1.837  16.854 -0.6274 -0.0236 -0.3087
19822TIP3    H280958   5.759   1.877  16.711 -1.5816 -1.0584 -0.4069
19823TIP3   OH280959   4.324   5.130   4.442 -0.3778 -0.0702  0.1078
19823TIP3    H180960   4.268   5.110   4.367 -0.1394  1.8174 -0.6298
19823TIP3    H280961   4.412   5.108   4.413 -0.4123 -0.3859  0.2406
19824TIP3   OH280962   3.591   2.406   0.302 -0.6464 -0.5490  0.5250
19824TIP3    H180963   3.640   2.414   0.384  0.2742 -0.2492 -0.0418
19824TIP3    H280964   3.658   2.388   0.236 -1.2787  0.0872 -0.3053
19825TIP3   OH280965   5.857   2.811   0.267 -0.1404  0.5916  0.3368
19825TIP3    H180966   5.792   2.879   0.285  0.0571  0.6698  0.7555
19825TIP3    H280967   5.897   2.839   0.185 -1.8577 -0.3889 -0.9099
19826TIP3   OH280968   1.877   6.495   0.768  0.8838 -0.2021 -0.3989
19826TIP3    H180969   1.945   6.437   0.802  0.9618 -0.5583 -1.1498
19826TIP3    H280970   1.874   6.477   0.675  1.5197  1.6248 -0.8164
19827TIP3   OH280971   5.250   0.471  17.082 -0.1979  0.5312 -0.1592
19827TIP3    H180972   5.345   0.482  17.084 -0.3044  1.9451 -1.2338
19827TIP3    H280973   5.232   0.434  16.996 -0.5298 -0.9708  0.5368
19828TIP3   OH280974   5.730   0.159   5.176  0.6857  0.3999 -0.0883
19828TIP3    H180975   5.823   0.175   5.157  0.2035  2.2846 -1.0418
19828TIP3    H280976   5.717   0.195   5.264  0.4544  1.9422 -0.7284
19829TIP3   OH280977   3.867   5.762   1.610 -0.4096 -0.0975  0.1734
19829TIP3    H180978   3.934   5.712   1.563 -0.3722 -0.6998  0.8457
19829TIP3    H280979   3.863   5.721   1.696 -3.4290 -1.7547 -0.5971
19830TIP3   OH280980   3.256   2.818  16.439  0.6014 -0.2206  0.5700
19830TIP3    H180981   3.164   2.794  16.437  1.1431 -2.4836 -0.2445
19830TIP3    H280982   3.283   2.804  16.530 -0.5775  3.9960  1.8084
19831TIP3   OH280983   0.681   0.069  13.695 -0.6702 -0.2043 -0.6531
19831TIP3    H180984   0.696   0.111  13.780 -0.1101 -0.5802 -0.5618
19831TIP3    H280985   0.765   0.029  13.673 -1.1896 -1.3039 -0.7069
19832TIP3   OH280986   2.499   5.282   4.090  0.3141 -0.0731 -0.4637
19832TIP3    H180987   2.417   5.299   4.137  0.4141  0.4720 -0.4740
19832TIP3    H280988   2.487   5.196   4.051  0.1128 -0.4112  0.3276
19833TIP3   OH280989   0.780   6.158  14.183  0.1941  0.1621 -0.7268
19833TIP3    H180990   0.719   6.222  14.146  0.2253  0.2664 -0.5988
19833TIP3    H280991   0.847   6.211  14.227 -1.2817  0.0574  1.8692
19834TIP3   OH280992   5.715   6.318  16.315 -0.3313 -0.5954  0.0180
19834TIP3    H180993   5.727   6.227  16.285 -1.5641 -0.2746 -1.6018
19834TIP3    H280994   5.624   6.337  16.295  0.3741  1.6008 -1.4558
19835TIP3   OH280995   0.905   2.493  15.585 -0.1616  0.7432  0.3711
19835TIP3    H180996   0.819   2.476  15.624  0.5135 -1.7356  0.9219
19835TIP3    H280997   0.886   2.536  15.502 -2.5004 -5.5188 -2.8941
19836TIP3   OH280998   0.594   2.951   5.799 -0.1991  0.2812 -0.4874
19836TIP3    H180999   0.578   2.994   5.715 -0.2999  1.0982 -0.0660
19836TIP3    H281000   0.689   2.937   5.800 -0.0654  1.1110 -0.3617
19837TIP3   OH281001   6.544   4.028  15.760  0.6388  0.2234 -0.6933
19837TIP3    H181002   6.565   4.114  15.796  0.6548 -0.1635  0.2295
19837TIP3    H281003   6.609   3.969  15.797  0.7485 -0.1663 -1.4763
19838TIP3   OH281004   3.968   0.971   2.631 -0.0632  0.2051  0.2054
19838TIP3    H181005   3.920   0.988   2.712  0.3019 -0.5563  0.5914
19838TIP3    H281006   3.910   1.004   2.561 -1.2394 -0.8760  0.6379
19839TIP3   OH281007   4.277   1.942   3.732 -0.3215 -0.3045  0.4034
19839TIP3    H181008   4.214   1.944   3.804  0.5741  1.3094  1.1978
19839TIP3    H281009   4.224   1.955   3.654 -1.0081  1.0722  1.0576
19840TIP3   OH281010   0.531   5.371  13.482 -0.2356  0.3074  0.0100
19840TIP3    H181011   0.438   5.346  13.481  0.0424 -0.8595  0.6314
19840TIP3    H281012   0.573   5.308  13.424  0.1252  1.0526 -0.5424
19841TIP3   OH281013   4.776   3.932   3.934  0.0294  0.3475 -0.2300
19841TIP3    H181014   4.783   3.880   3.854 -0.7080  0.6722 -0.5147
19841TIP3    H281015   4.720   3.881   3.992 -0.1327  0.5043 -0.2468
19842TIP3   OH281016   1.421   5.387   3.040 -0.6345  0.4088  0.0028
19842TIP3    H181017   1.360   5.355   3.107 -0.4877 -0.9115 -0.4734
19842TIP3    H281018   1.377   5.368   2.957 -0.1121  0.5780 -0.3109
19843TIP3   OH281019   3.960   0.075  15.934  0.1528  0.2962 -0.0194
19843TIP3    H181020   4.046   0.117  15.924  0.7003 -0.5689  0.8968
19843TIP3    H281021   3.908   0.138  15.983  0.1283  0.9931 -0.9141
19844TIP3   OH281022   3.075   0.507   2.865 -0.1383 -0.1852 -0.0921
19844TIP3    H181023   3.021   0.442   2.820 -2.5251  1.3817  0.3023
19844TIP3    H281024   3.055   0.589   2.819  1.7150  0.5123  0.2958
19845TIP3   OH281025   6.568   5.285   1.970 -0.2289 -0.6515  0.1248
19845TIP3    H181026   6.645   5.270   1.915 -1.1776 -1.5352 -1.0238
19845TIP3    H281027   6.539   5.198   1.996  0.2524 -0.2444  2.1711
19846TIP3   OH281028   5.830   6.371  14.176  0.0362 -0.0647  0.4185
19846TIP3    H181029   5.802   6.303  14.237  0.6996 -1.0425 -0.3371
19846TIP3    H281030   5.787   6.348  14.093  0.5342  0.2478  0.0690
19847TIP3   OH281031   4.757   5.249  14.397 -0.1907  0.3027  0.7776
19847TIP3    H181032   4.773   5.155  14.386 -0.2942  0.4867 -1.6051
19847TIP3    H281033   4.664   5.260  14.379 -0.2317  0.8337  1.3008
19848TIP3   OH281034   4.827   4.610   1.526  0.5547 -0.2539  0.4493
19848TIP3    H181035   4.846   4.627   1.618  1.6387 -1.1060  0.4095
19848TIP3    H281036   4.895   4.658   1.478  3.0473 -3.5612  0.3035
19849TIP3   OH281037   5.244   0.066  12.776 -0.1014  0.1426  0.1969
19849TIP3    H181038   5.203  -0.013  12.740  0.3580 -0.5556  1.1633
19849TIP3    H281039   5.248   0.050  12.870  1.9977  0.3475  0.1880
19850TIP3   OH281040   2.768   5.276   1.443  0.3703  0.3565 -0.5347
19850TIP3    H181041   2.676   5.257   1.460  0.2110  0.6868 -1.0161
19850TIP3    H281042   2.816   5.209   1.492 -0.0859  1.0101  0.8770
19851TIP3   OH281043   5.564   3.973   1.599  0.3558 -0.3724  0.4722
19851TIP3    H181044   5.637   4.029   1.625 -0.4301  0.6687  0.4930
19851TIP3    H281045   5.605   3.901   1.551  1.4458 -0.1418  1.0160
19852TIP3   OH281046   6.115   0.894   4.304  0.0503  0.1738 -0.8207
19852TIP3    H181047   6.190   0.936   4.346 -1.1037  1.0024  0.4652
19852TIP3    H281048   6.113   0.932   4.216  0.5332  0.9137 -0.5191
19853TIP3   OH281049   4.000   1.886  14.503 -0.3976 -0.3585  0.0624
19853TIP3    H181050   4.011   1.938  14.583 -2.9219 -0.9671  0.8793
19853TIP3    H281051   4.006   1.795  14.533 -0.2864 -0.5835 -0.6330
19854TIP3   OH281052   1.249   3.912  12.645 -0.2755 -0.2011  0.5865
19854TIP3    H181053   1.267   3.866  12.562  0.6184  0.0513  0.6223
19854TIP3    H281054   1.154   3.907  12.655 -0.3802 -0.3997 -0.3627
19855TIP3   OH281055   5.742   1.911  14.847  0.0946 -0.2979  0.1865
19855TIP3    H181056   5.669   1.850  14.844  0.8692 -1.1994 -1.2850
19855TIP3    H281057   5.702   1.997  14.833 -1.0126 -0.4054  2.3334
19856TIP3   OH281058   6.075   1.895   4.237  0.0417  0.6237  0.0108
19856TIP3    H181059   6.090   1.930   4.149  0.1064 -0.8862 -0.6048
19856TIP3    H281060   5.991   1.933   4.264  0.6100  2.0796 -0.1720
19857TIP3   OH281061   0.076   0.077  13.097 -0.7515 -0.5491 -0.4680
19857TIP3    H181062   0.036  -0.001  13.135 -0.3438 -0.5389 -0.0007
19857TIP3    H281063   0.017   0.102  13.026 -1.1643 -0.9724 -0.2834
19858TIP3   OH281064   5.264   6.765   2.047 -0.1546  0.4534  0.2179
19858TIP3    H181065   5.220   6.850   2.042  1.4474  1.2483 -2.3067
19858TIP3    H281066   5.330   6.768   1.978 -0.4402 -3.1000 -0.4132
19859TIP3   OH281067   0.992   5.443  16.090  0.3173  0.0687 -0.4146
19859TIP3    H181068   0.951   5.412  16.009 -1.1558 -0.6624  0.5632
19859TIP3    H281069   1.049   5.371  16.117 -0.1982 -0.2360 -0.1276
19860TIP3   OH281070   2.475   5.034  12.089 -0.0923 -0.0093 -0.0158
19860TIP3    H181071   2.516   5.008  12.006  2.2287 -1.4121  1.4687
19860TIP3    H281072   2.399   4.977  12.097 -0.3117  0.1008 -1.1214
19861TIP3   OH281073   1.595   6.050  15.215  0.5790  0.7445  0.3010
19861TIP3    H181074   1.627   5.961  15.203  1.6822  0.9100  1.7427
19861TIP3    H281075   1.520   6.057  15.156 -0.0304 -1.3886  0.7496
19862TIP3   OH281076   1.842   2.816  11.399  0.4607 -0.0707 -0.3992
19862TIP3    H181077   1.928   2.855  11.384  0.3956 -0.3584 -1.5874
19862TIP3    H281078   1.781   2.877  11.358  0.0740  0.1822  0.5299
19863TIP3   OH281079   3.219   5.510  15.465  0.2256 -0.0270  0.1118
19863TIP3    H181080   3.287   5.451  15.497 -0.8494 -1.3594  0.0274
19863TIP3    H281081   3.138   5.476  15.503 -0.3634  1.7835  0.5734
19864TIP3   OH281082   4.323   5.292  15.444  0.3673  0.3783 -0.3202
19864TIP3    H181083   4.269   5.273  15.521  0.4340 -1.4391 -0.6779
19864TIP3    H281084   4.341   5.207  15.406 -0.0591  1.2501 -2.6391
19865TIP3   OH281085   3.790   0.369   5.329 -0.2462 -0.1595  0.1511
19865TIP3    H181086   3.762   0.302   5.390 -0.1409 -1.6822 -1.3941
19865TIP3    H281087   3.717   0.431   5.326 -0.3581 -0.1878  1.5637
19866TIP3   OH281088   2.518   0.572   2.139 -0.1159 -0.0526  1.1997
19866TIP3    H181089   2.610   0.557   2.161  0.1971 -1.7064 -0.9511
19866TIP3    H281090   2.473   0.495   2.173  0.1034 -1.6940 -1.8567
19867TIP3   OH281091   3.017   1.028  14.329  0.5334  0.4191 -0.1661
19867TIP3    H181092   3.066   1.107  14.352 -0.1580  0.0882  2.9050
19867TIP3    H281093   3.083   0.959  14.329  0.4975  0.3156  1.8608
19868TIP3   OH281094   2.387   0.913  13.662  0.7091 -0.0740 -0.7171
19868TIP3    H181095   2.400   0.819  13.646  1.0757 -0.0837 -0.3864
19868TIP3    H281096   2.448   0.934  13.733 -0.0473  0.2112 -0.1321
19869TIP3   OH281097   4.643   2.490   2.502  0.5536  0.0922  0.6532
19869TIP3    H181098   4.680   2.468   2.588 -0.4804  0.0712  1.1108
19869TIP3    H281099   4.625   2.406   2.461  1.7719  0.0960  0.0748
19870TIP3   OH281100   4.273   2.456   0.475 -0.0499  0.4318 -0.0530
19870TIP3    H181101   4.245   2.435   0.564  1.5927 -0.1642  0.3552
19870TIP3    H281102   4.365   2.480   0.484  0.4081 -0.5575 -1.6969
19871TIP3   OH281103   4.711   4.394  13.247  0.4213  0.1489  0.2530
19871TIP3    H181104   4.694   4.466  13.308  0.1763 -0.5779  1.0619
19871TIP3    H281105   4.802   4.408  13.220 -0.2043  1.8956 -1.1855
19872TIP3   OH281106   6.170   5.875   3.898 -0.1122 -0.2786 -0.1986
19872TIP3    H181107   6.193   5.836   3.983  2.6939 -0.1647 -0.7975
19872TIP3    H281108   6.097   5.933   3.917 -1.6553 -2.5828  1.5202
19873TIP3   OH281109   0.451   2.610  13.891 -0.6447  0.0741 -0.3819
19873TIP3    H181110   0.492   2.525  13.907  0.1478  0.6666  0.8814
19873TIP3    H281111   0.390   2.594  13.819  0.7149 -1.1725 -1.3102
19874TIP3   OH281112   2.989   1.939  15.347  0.6167  0.0209  0.1138
19874TIP3    H181113   3.052   1.873  15.320  0.0283  0.6366 -3.2229
19874TIP3    H281114   3.011   1.957  15.439  3.9282 -1.2380 -0.2797
19875TIP3   OH281115   3.198   6.350   0.781 -0.1346  0.1965  0.3901
19875TIP3    H181116   3.286   6.357   0.744 -0.9910 -0.3346 -1.9430
19875TIP3    H281117   3.197   6.413   0.853  2.1499  0.1609  0.5255
19876TIP3   OH281118   2.512   6.688   3.278 -0.0818  0.0664 -0.5654
19876TIP3    H181119   2.589   6.635   3.256  0.0697 -0.4745  1.1128
19876TIP3    H281120   2.547   6.775   3.295  0.2960 -0.3414  0.8846
19877TIP3   OH281121   0.515   2.606   4.314 -0.4747  0.0326 -0.1640
19877TIP3    H181122   0.532   2.514   4.292  2.0467 -0.1510  2.0852
19877TIP3    H281123   0.569   2.655   4.252 -1.3697  0.0072 -0.9845
19878TIP3   OH281124   3.864   4.414  12.307 -0.1733  0.8357 -0.2752
19878TIP3    H181125   3.835   4.352  12.375 -0.9462  0.6538 -0.7627
19878TIP3    H281126   3.940   4.371  12.267  0.0923  0.7987  0.2533
19879TIP3   OH281127   3.899   4.283   5.097  0.6126 -0.0415  0.3291
19879TIP3    H181128   3.894   4.190   5.118 -0.2599 -0.1066 -0.1366
19879TIP3    H281129   3.894   4.287   5.001 -0.7803  0.5549  0.4032
19880TIP3   OH281130   2.320   2.896  14.005  0.3677  0.0753 -0.1864
19880TIP3    H181131   2.319   2.805  14.037  0.0931  0.0921 -0.1486
19880TIP3    H281132   2.277   2.946  14.074 -0.5868  0.0540 -0.7395
19881TIP3   OH281133   0.918   1.847   5.711 -0.1172 -0.2454  0.7528
19881TIP3    H181134   0.864   1.769   5.720  0.6085 -0.7109  1.0632
19881TIP3    H281135   0.887   1.888   5.630 -1.1251 -0.3517  1.0731
19882TIP3   OH281136   2.534   3.646  12.132 -0.0412 -0.2065 -0.1918
19882TIP3    H181137   2.535   3.740  12.147  1.9601 -0.2101 -0.0717
19882TIP3    H281138   2.481   3.634  12.053 -0.2969  1.0038 -0.2121
19883TIP3   OH281139   6.816   1.894   4.687 -0.0829 -0.5905 -0.0016
19883TIP3    H181140   6.759   1.931   4.754  0.2846 -0.9561  0.5269
19883TIP3    H281141   6.795   1.943   4.608  0.4261  0.8226  0.6793
19884TIP3   OH281142   0.109   0.878  13.752  0.2940  0.0456 -0.0560
19884TIP3    H181143   0.133   0.971  13.750 -1.3574  0.5183  0.4694
19884TIP3    H281144   0.150   0.841  13.674  0.2929  1.4084 -0.7400
19885TIP3   OH281145   3.245   1.726   2.917 -0.7365 -0.2419 -0.1120
19885TIP3    H181146   3.210   1.812   2.942  2.3321  0.2306  3.3157
19885TIP3    H281147   3.310   1.745   2.850 -1.1030 -0.1337 -0.4459
19886TIP3   OH281148   2.810   3.972  14.697 -0.2962 -0.3017  0.2758
19886TIP3    H181149   2.753   3.957  14.621  0.2583  0.8975 -0.3982
19886TIP3    H281150   2.776   3.911  14.763 -1.6288 -0.4448 -0.4811
19887TIP3   OH281151   1.552   5.885  14.787  0.0340 -0.0119  0.1832
19887TIP3    H181152   1.597   5.943  14.848  0.2444  0.8736 -0.7796
19887TIP3    H281153   1.466   5.869  14.827  0.1173  0.6634  0.6413
19888TIP3   OH281154   4.955   6.734   1.439  0.2432 -0.2083 -0.3410
19888TIP3    H181155   5.018   6.799   1.469  0.8199 -0.7513 -0.3715
19888TIP3    H281156   4.999   6.650   1.450 -0.1689 -0.5404 -1.1190
19889TIP3   OH281157   2.404   4.118  14.042  0.1000  0.2098 -0.2632
19889TIP3    H181158   2.447   4.176  13.979 -0.7713  0.6138 -0.4983
19889TIP3    H281159   2.392   4.036  13.995 -0.6312  0.5388 -0.6685
19890TIP3   OH281160   0.305   4.218  14.823  0.0065 -0.8412 -0.1996
19890TIP3    H181161   0.268   4.270  14.894  0.5753  0.3864 -0.7508
19890TIP3    H281162   0.281   4.267  14.743  3.2027  0.4020 -0.5636
19891TIP3   OH281163   1.732   3.794  12.455 -0.0182  0.0630 -0.0980
19891TIP3    H181164   1.823   3.821  12.442 -0.3949  0.1638 -3.4954
19891TIP3    H281165   1.682   3.874  12.442 -0.6774 -0.4335 -0.7014
19892TIP3   OH281166   4.964   4.312   2.025  0.1552 -0.4279  0.2276
19892TIP3    H181167   5.049   4.354   2.034  0.9093 -1.5032 -1.3267
19892TIP3    H281168   4.944   4.318   1.932 -2.1712  1.0239  0.7528
19893TIP3   OH281169   3.522   2.972  13.557  0.0343  0.2445 -0.0818
19893TIP3    H181170   3.501   3.003  13.645 -1.1739 -1.0788  0.1365
19893TIP3    H281171   3.548   2.881  13.569 -0.5920 -0.0935 -1.1386
19894TIP3   OH281172   0.393   4.859   3.937 -0.0600 -0.8607  0.6967
19894TIP3    H181173   0.343   4.846   4.017 -1.2963 -2.8310 -0.3093
19894TIP3    H281174   0.327   4.860   3.868  0.7206  3.1204 -0.2134
19895TIP3   OH281175   4.218   2.465  14.257  0.0589 -0.1313 -0.1210
19895TIP3    H181176   4.193   2.467  14.349 -0.4757  0.6526 -0.2740
19895TIP3    H281177   4.186   2.381  14.225  1.0783 -0.8278  0.6234
19896TIP3   OH281178   4.360   0.772  12.456  0.1835 -0.4588 -0.6736
19896TIP3    H181179   4.385   0.778  12.548  1.3816  4.5458 -1.0315
19896TIP3    H281180   4.419   0.706  12.419  0.6968 -1.5080  1.8279
19897TIP3   OH281181   2.487   2.738   1.815 -0.2190  0.6009  0.5325
19897TIP3    H181182   2.484   2.643   1.811  0.8164  0.5365  1.0675
19897TIP3    H281183   2.541   2.763   1.739  0.5221  0.6830  1.0792
19898TIP3   OH281184   2.481   1.980  13.159 -0.1314  0.3674 -0.0554
19898TIP3    H181185   2.489   2.005  13.067 -2.5728  0.0601 -0.4171
19898TIP3    H281186   2.479   1.884  13.157 -0.5781  0.3691  0.2724
19899TIP3   OH281187   1.362   0.707  14.155 -0.8898 -0.2337 -0.2729
19899TIP3    H181188   1.310   0.710  14.074 -0.3504 -2.8045 -0.7957
19899TIP3    H281189   1.449   0.679  14.127 -0.7174 -1.2866  1.1701
19900TIP3   OH281190   6.804   6.492  14.245 -0.4967 -0.3395  0.4908
19900TIP3    H181191   6.848   6.560  14.297  1.2191 -2.4925  2.0963
19900TIP3    H281192   6.876   6.441  14.207 -1.7359  0.0052 -2.5138
19901TIP3   OH281193   2.410   2.341   5.329 -0.3415 -0.0523  0.7837
19901TIP3    H181194   2.334   2.399   5.335  0.1633  1.2443 -2.8230
19901TIP3    H281195   2.481   2.397   5.296  0.8325 -2.1662 -0.5353
19902TIP3   OH281196   0.779   0.360  15.264 -0.2011  0.3706  0.0942
19902TIP3    H181197   0.733   0.415  15.201  1.4547  2.6054  0.7410
19902TIP3    H281198   0.821   0.293  15.210 -0.3687  1.0979 -0.9676
19903TIP3   OH281199   5.499   6.245   2.252  0.1180 -0.6579  0.1222
19903TIP3    H181200   5.425   6.192   2.221 -0.5419  0.7882 -0.9311
19903TIP3    H281201   5.537   6.281   2.171  1.0896 -0.2209  0.7566
19904TIP3   OH281202   1.359   3.445   3.249  0.0909  0.4194 -0.3635
19904TIP3    H181203   1.445   3.434   3.208 -0.3754  0.6060 -1.4306
19904TIP3    H281204   1.349   3.367   3.304  0.2248 -0.4839 -1.5848
19905TIP3   OH281205   1.070   6.041  16.749 -0.2093 -0.4323 -0.0905
19905TIP3    H181206   0.990   6.014  16.793 -0.6580  1.1876  0.1429
19905TIP3    H281207   1.139   6.031  16.815 -0.8603  1.8739  1.0362
19906TIP3   OH281208   3.611   3.324   2.184 -0.4737 -0.3956  0.3242
19906TIP3    H181209   3.697   3.365   2.198 -0.0709 -0.8557 -0.6539
19906TIP3    H281210   3.610   3.250   2.244  0.9789 -2.0041 -1.5003
19907TIP3   OH281211   6.770   6.250  15.454  0.0393  0.0678 -0.0735
19907TIP3    H181212   6.799   6.203  15.376  0.8861 -0.0746  0.3251
19907TIP3    H281213   6.697   6.304  15.423  2.2671  2.3496 -1.6853
19908TIP3   OH281214   5.855   2.246  13.181  0.2684  0.6892 -0.0214
19908TIP3    H181215   5.877   2.339  13.178 -3.1423  1.7287  1.7518
19908TIP3    H281216   5.779   2.241  13.239 -0.4362 -3.0785 -0.9923
19909TIP3   OH281217   5.765   0.738  15.401  0.4254  0.2377 -0.1389
19909TIP3    H181218   5.774   0.694  15.485  0.7451  0.4846 -0.0450
19909TIP3    H281219   5.784   0.830  15.419 -3.5216  1.1551  0.4051
19910TIP3   OH281220   4.142   4.091   1.751 -0.3059  0.5741 -0.0397
19910TIP3    H181221   4.087   4.038   1.808 -0.4083  0.8931  0.1648
19910TIP3    H281222   4.192   4.028   1.700 -1.7172  0.2704 -1.0930
19911TIP3   OH281223   2.852   4.094  10.208  0.6326  0.1931  0.2511
19911TIP3    H181224   2.803   4.032  10.154 -0.7932 -0.7783  2.5267
19911TIP3    H281225   2.809   4.092  10.293  1.6581  3.0148  0.9614
19912TIP3   OH281226   6.690   6.720   4.238  0.4331  0.0383  0.2102
19912TIP3    H181227   6.749   6.656   4.199 -0.5177  0.1447 -1.4815
19912TIP3    H281228   6.603   6.682   4.230 -0.1530  1.4709 -0.7752
19913TIP3   OH281229   0.947   0.375   3.120  0.1592 -0.0890 -0.6698
19913TIP3    H181230   1.016   0.442   3.121  0.5876 -0.5107 -1.1858
19913TIP3    H281231   0.867   0.424   3.105  0.3475  0.4040 -0.1162
19914TIP3   OH281232   2.014   1.497  13.287 -0.8346  0.3966  0.0932
19914TIP3    H181233   1.993   1.487  13.380  2.0195  3.0360  1.1617
19914TIP3    H281234   1.952   1.563  13.255 -1.2823  0.0849  0.3043
19915TIP3   OH281235   6.516   1.449  13.719 -0.2685  0.1546  0.1028
19915TIP3    H181236   6.505   1.541  13.744 -0.0745  0.0903  0.4340
19915TIP3    H281237   6.485   1.400  13.795 -2.5314 -0.0986 -0.9249
19916TIP3   OH281238   3.284   6.788   5.701 -0.2024  0.3697 -0.3268
19916TIP3    H181239   3.240   6.708   5.729  2.4989 -0.9492  0.5218
19916TIP3    H281240   3.314   6.829   5.782  0.0875  1.2327 -0.8536
19917TIP3   OH281241   1.732   3.326   1.532 -0.1084 -0.5933 -0.1376
19917TIP3    H181242   1.661   3.302   1.592 -2.2263  0.0152 -2.2710
19917TIP3    H281243   1.738   3.422   1.540 -1.6266 -0.2815 -2.0695
19918TIP3   OH281244   1.322   6.591   6.144  0.0782  0.4817  0.2224
19918TIP3    H181245   1.266   6.556   6.213  0.8255 -0.0465  0.5690
19918TIP3    H281246   1.365   6.667   6.184  0.9008 -0.1280  0.5149
19919TIP3   OH281247   6.561   5.481  12.826 -0.0328 -0.1352 -0.6925
19919TIP3    H181248   6.514   5.450  12.749 -0.0786  3.2726 -2.2176
19919TIP3    H281249   6.646   5.511  12.793  0.8073 -0.5058  0.9831
19920TIP3   OH281250   1.307   4.645   0.272  0.5062  0.0844  0.1048
19920TIP3    H181251   1.236   4.644   0.335  0.8248 -0.3683  0.4675
19920TIP3    H281252   1.375   4.590   0.311  0.8170  0.0185 -0.5046
19921TIP3   OH281253   0.613   1.383   6.167 -0.0513  0.6328  0.5018
19921TIP3    H181254   0.674   1.312   6.188 -2.3097 -1.4992  0.4587
19921TIP3    H281255   0.587   1.418   6.252 -0.2015  0.1947  0.6432
19922TIP3   OH281256   2.696   4.392   2.948 -0.2082 -0.3312  0.3353
19922TIP3    H181257   2.653   4.462   2.999  2.4136  1.6753  0.0188
19922TIP3    H281258   2.787   4.395   2.977  0.3396 -2.4765 -1.0154
19923TIP3   OH281259   4.698   0.249   3.391  0.1163 -0.2720  0.6683
19923TIP3    H181260   4.652   0.311   3.335 -1.1809  0.2257  2.2120
19923TIP3    H281261   4.684   0.164   3.348 -1.1635  0.0460  0.4025
19924TIP3   OH281262   3.739   0.919   2.018  0.1861  0.5078 -0.1300
19924TIP3    H181263   3.709   0.991   2.073 -2.5366 -0.6820  0.0871
19924TIP3    H281264   3.724   0.840   2.070 -0.5676 -0.4946 -1.7820
19925TIP3   OH281265   0.156   4.530   3.251 -0.5644  0.5077  0.4895
19925TIP3    H181266   0.144   4.487   3.336  0.3676 -0.2695  0.2423
19925TIP3    H281267   0.142   4.462   3.186  3.3420 -0.1928  0.1345
19926TIP3   OH281268   0.003   4.483  14.919  0.3898 -0.0632  0.3766
19926TIP3    H181269   0.006   4.388  14.923  2.8058 -0.0540  0.1568
19926TIP3    H281270  -0.057   4.508  14.990 -0.4073 -1.7203  0.3375
19927TIP3   OH281271   3.084   4.761   3.621  0.4351  0.5191 -0.4627
19927TIP3    H181272   3.162   4.770   3.566  0.1840 -1.8553 -1.3385
19927TIP3    H281273   3.103   4.811   3.700  3.8583 -1.7497  0.3764
19928TIP3   OH281274   1.933   1.179  14.218 -0.3600 -0.1145  0.3480
19928TIP3    H181275   1.882   1.214  14.144  0.9348  3.0900  0.7826
19928TIP3    H281276   2.015   1.148  14.178  0.0661  1.0126  0.2952
19929TIP3   OH281277   0.757   4.923   4.984  0.3364  0.4042 -0.0060
19929TIP3    H181278   0.792   4.835   4.998 -0.6984  0.1509  1.1500
19929TIP3    H281279   0.727   4.951   5.071 -1.9516  0.7639 -0.8558
19930TIP3   OH281280   0.339   0.609  16.750 -0.4106 -0.3449 -0.2358
19930TIP3    H181281   0.283   0.628  16.675 -0.1104  0.3719 -0.2876
19930TIP3    H281282   0.426   0.595  16.712 -0.5337 -1.4433 -0.1545
19931TIP3   OH281283   2.979   4.253  15.994  0.3118  0.5476  0.7495
19931TIP3    H181284   3.011   4.256  16.085  1.2143 -1.6681  0.5618
19931TIP3    H281285   3.045   4.301  15.944  1.6595 -1.1077  0.8453
19932TIP3   OH281286   1.997   3.257  12.976 -0.1661  0.4106 -0.5399
19932TIP3    H181287   2.074   3.285  12.927  1.8020 -2.2967  0.7527
19932TIP3    H281288   2.018   3.278  13.067  0.1640 -2.3830  0.1127
19933TIP3   OH281289   4.551   1.670  15.286  0.4953  0.0705 -0.0179
19933TIP3    H181290   4.479   1.657  15.224 -0.9021 -0.3968  1.6111
19933TIP3    H281291   4.575   1.762  15.277 -0.4337  0.2791 -0.4853
19934TIP3   OH281292   1.237   4.903  12.222 -0.0544  0.5192  0.5825
19934TIP3    H181293   1.166   4.869  12.275 -0.7051 -0.5834 -0.9208
19934TIP3    H281294   1.263   4.830  12.166  0.5245  1.6422 -0.6924
19935TIP3   OH281295   3.331   0.309  13.322  0.5323  0.2896  0.8503
19935TIP3    H181296   3.389   0.317  13.246  0.9688  1.3725  1.2806
19935TIP3    H281297   3.377   0.354  13.393  0.2538 -0.9334  1.8492
19936TIP3   OH281298   2.501   4.846  14.659  0.5811  0.9130 -0.1387
19936TIP3    H181299   2.564   4.837  14.587 -0.2407  1.7827 -1.0045
19936TIP3    H281300   2.426   4.889  14.619 -0.0007  1.1842  1.1989
19937TIP3   OH281301   0.831   4.679  13.304  0.0173 -0.0086  0.0538
19937TIP3    H181302   0.794   4.593  13.326 -1.0453  0.8027  1.5556
19937TIP3    H281303   0.760   4.741  13.318  0.9648  1.2168 -0.3545
19938TIP3   OH281304   2.712   6.178   1.869 -0.4609  0.1507 -0.0063
19938TIP3    H181305   2.702   6.251   1.930 -0.9059  1.3080 -1.3926
19938TIP3    H281306   2.667   6.105   1.911  0.9996  0.2951  1.9614
19939TIP3   OH281307   3.631   3.673  10.799  0.2420 -0.1043 -0.0229
19939TIP3    H181308   3.602   3.665  10.709 -1.1031 -0.0892  0.3906
19939TIP3    H281309   3.723   3.644  10.798  0.7957  1.5504 -1.6832
19940TIP3   OH281310   1.074   3.059   2.406  0.0758  0.4189 -0.5374
19940TIP3    H181311   1.147   3.048   2.467 -0.1047  1.4160 -0.1212
19940TIP3    H281312   1.110   3.035   2.321 -0.2648 -3.2736  0.1958
19941TIP3   OH281313   6.426   5.226   3.721  0.1595  0.5307 -0.1410
19941TIP3    H181314   6.375   5.151   3.753  1.5243  0.0517  1.0122
19941TIP3    H281315   6.437   5.207   3.628  2.3036 -1.9213  0.4837
19942TIP3   OH281316   0.564   2.874   4.462 -0.8324  0.3448 -0.4787
19942TIP3    H181317   0.514   2.817   4.404 -0.4990  0.8772 -1.3214
19942TIP3    H281318   0.634   2.818   4.497 -0.0480  0.3893 -1.8905
19943TIP3   OH281319   2.627   5.045  14.342 -0.4468  0.0991  0.1057
19943TIP3    H181320   2.703   5.102  14.347  0.4451 -0.5691 -3.3160
19943TIP3    H281321   2.658   4.961  14.374  0.2540 -0.1280 -1.1177
19944TIP3   OH281322   6.234   3.273   0.592  0.2784 -0.2111  0.2935
19944TIP3    H181323   6.258   3.184   0.567  0.4457 -0.2146  0.4709
19944TIP3    H281324   6.141   3.267   0.616 -0.1519 -0.0344 -1.2053
19945TIP3   OH281325   0.612   6.474  16.848 -0.0621 -0.0253  0.3914
19945TIP3    H181326   0.638   6.564  16.830  0.0093 -0.1033  0.0981
19945TIP3    H281327   0.681   6.421  16.808  1.1232 -0.1826  2.5009
19946TIP3   OH281328   6.463   4.723   2.716  0.0776 -0.3829  0.7374
19946TIP3    H181329   6.498   4.769   2.639  0.2642 -0.3934  0.8146
19946TIP3    H281330   6.393   4.780   2.748  1.4663  0.7840  1.8972
19947TIP3   OH281331   4.667   4.180   0.547  0.1105 -0.5681 -0.2415
19947TIP3    H181332   4.607   4.129   0.601  0.6559 -0.2683  0.6784
19947TIP3    H281333   4.724   4.224   0.610  0.0423  0.6973 -1.0227
19948TIP3   OH281334   3.310   4.319  16.174 -0.0763  0.5351 -0.0571
19948TIP3    H181335   3.346   4.249  16.230  0.3254  2.3922  2.1474
19948TIP3    H281336   3.228   4.343  16.217 -2.4516 -1.2592 -3.0949
19949TIP3   OH281337   5.494   6.494  16.531  0.2403 -0.0494  0.0209
19949TIP3    H181338   5.564   6.547  16.492  0.6621 -0.9477 -0.4649
19949TIP3    H281339   5.460   6.548  16.602  2.5500 -0.2459  1.3792
19950TIP3   OH281340   4.102   6.161  14.891 -0.2413 -0.0045 -0.6162
19950TIP3    H181341   4.100   6.067  14.873  3.2656 -0.4688  0.5632
19950TIP3    H281342   4.188   6.189  14.860 -0.1294  2.2318  1.4428
19951TIP3   OH281343   1.908   2.902   5.584  0.4468  0.0163 -0.4791
19951TIP3    H181344   1.816   2.923   5.571  0.1690 -1.3454 -0.8183
19951TIP3    H281345   1.907   2.823   5.638  1.4129 -0.0798 -0.5866
19952TIP3   OH281346   1.935   1.719   4.350  0.4412 -0.0801 -0.1387
19952TIP3    H181347   1.857   1.694   4.399 -0.1362  0.0408 -0.9647
19952TIP3    H281348   1.993   1.644   4.356 -0.7231 -1.1527 -1.4846
19953TIP3   OH281349   0.845   3.965  13.463  0.0776  0.6216 -0.1385
19953TIP3    H181350   0.830   3.995  13.374 -1.5274 -1.3853 -0.5995
19953TIP3    H281351   0.778   3.899  13.479  1.4997 -0.4652  1.8945
19954TIP3   OH281352   0.072   1.292   4.660  0.1781  0.4125  0.3170
19954TIP3    H181353  -0.000   1.250   4.708 -0.1358  0.7365  0.1306
19954TIP3    H281354   0.028   1.350   4.598  0.6074  0.7664  0.3453
19955TIP3   OH281355   4.769   6.410   4.610 -0.3958 -0.2454 -0.8508
19955TIP3    H181356   4.748   6.416   4.517  1.3296 -1.6473 -1.3916
19955TIP3    H281357   4.851   6.459   4.619 -1.5778  1.6279  0.3762
19956TIP3   OH281358   2.318   2.728  14.393 -0.2825 -0.0588  0.0160
19956TIP3    H181359   2.369   2.809  14.395  0.6964 -0.6215  3.1090
19956TIP3    H281360   2.306   2.709  14.300  1.2658  2.5105 -0.7882
19957TIP3   OH281361   0.910   5.756   5.271  0.5180 -0.2927  0.0870
19957TIP3    H181362   1.003   5.732   5.263  0.5770 -0.0023 -0.1179
19957TIP3    H281363   0.910   5.835   5.324  0.2322 -1.3472  1.7401
19958TIP3   OH281364   6.529   0.632   2.740  0.2569 -0.2734  0.1510
19958TIP3    H181365   6.497   0.709   2.786 -1.8292 -0.5047 -0.7871
19958TIP3    H281366   6.542   0.566   2.808  1.7026  0.7518  0.9104
19959TIP3   OH281367   4.870   5.821  14.460 -0.2689 -0.6791 -0.3501
19959TIP3    H181368   4.911   5.744  14.421 -0.2511 -0.0222 -1.6714
19959TIP3    H281369   4.841   5.874  14.386  0.4897  1.0167  0.5015
19960TIP3   OH281370   0.951   0.754   2.470  0.1482 -0.5087 -0.2244
19960TIP3    H181371   1.008   0.829   2.490  1.6065 -1.9622  1.3281
19960TIP3    H281372   0.863   0.789   2.481  0.7829  0.5860  2.3752
19961TIP3   OH281373   0.143   4.874   1.736  0.3550  0.1661 -0.7209
19961TIP3    H181374   0.124   4.780   1.742  2.0272 -0.2269 -0.8729
19961TIP3    H281375   0.076   4.916   1.790 -0.3221 -1.1283 -0.5100
19962TIP3   OH281376   1.712   2.248   5.044  0.5069 -0.1252  0.5595
19962TIP3    H181377   1.671   2.334   5.055 -0.3282 -0.5558  0.8115
19962TIP3    H281378   1.796   2.256   5.090  0.7277  0.7510  0.0460
19963TIP3   OH281379   5.057   5.440  12.547  0.0402  0.3201  0.5104
19963TIP3    H181380   4.979   5.396  12.579  0.5686 -1.0824 -0.0310
19963TIP3    H281381   5.094   5.380  12.482  0.6780  1.6790 -0.4476
19964TIP3   OH281382   6.033   2.527  16.183  0.2389  0.5428  0.1002
19964TIP3    H181383   6.085   2.468  16.237 -0.9544 -1.9064 -1.2473
19964TIP3    H281384   5.946   2.487  16.180  0.0749  0.8110 -3.0671
19965TIP3   OH281385   6.564   2.863  11.810  0.4450 -0.8222  0.4931
19965TIP3    H181386   6.657   2.881  11.796  0.6980 -1.3971  1.3477
19965TIP3    H281387   6.531   2.941  11.855  0.3502 -0.3278 -0.4198
19966TIP3   OH281388   0.524   3.017  13.676 -0.4394  0.0071  0.3553
19966TIP3    H181389   0.529   3.054  13.588  0.8837  1.2803  0.9205
19966TIP3    H281390   0.610   2.979  13.691 -0.9926 -1.1362  0.7270
19967TIP3   OH281391   3.131   2.482   2.750  0.4516 -0.7733 -0.5840
19967TIP3    H181392   3.163   2.510   2.836  0.0311  2.7897 -1.4082
19967TIP3    H281393   3.050   2.434   2.769  1.1889 -1.4588  1.0360
19968TIP3   OH281394   3.256   4.019  12.032  0.2744 -0.4673  0.2728
19968TIP3    H181395   3.250   3.999  11.939 -0.5718 -0.3080  0.2826
19968TIP3    H281396   3.317   4.092  12.038 -1.0249  0.7137 -0.3506
19969TIP3   OH281397   5.447   1.491  16.269 -0.2630 -0.1132 -0.2654
19969TIP3    H181398   5.389   1.416  16.285  1.0666 -0.8357  1.6358
19969TIP3    H281399   5.440   1.508  16.175 -2.2768 -1.1989 -0.3566
19970TIP3   OH281400   3.137   3.589   6.186  0.6712  0.0400 -0.3088
19970TIP3    H181401   3.174   3.661   6.237 -0.3620 -0.6988  1.5737
19970TIP3    H281402   3.187   3.512   6.211 -0.2361 -0.4433  0.0698
19971TIP3   OH281403   1.754   5.743   6.482  0.0208 -0.3267 -0.4232
19971TIP3    H181404   1.771   5.831   6.516 -0.0811 -0.3008 -0.4397
19971TIP3    H281405   1.661   5.743   6.460 -0.1618 -0.6860  0.3009
19972TIP3   OH281406   2.544   0.374   0.292 -0.1375 -0.0361  0.3373
19972TIP3    H181407   2.499   0.420   0.363 -1.5732 -0.2981 -0.3524
19972TIP3    H281408   2.473   0.330   0.244  1.0947 -2.2577  0.4467
19973TIP3   OH281409   5.995   5.212  15.983 -0.2223  0.1667  0.1643
19973TIP3    H181410   6.072   5.236  15.931  0.4307 -2.0164  0.0363
19973TIP3    H281411   6.014   5.123  16.014 -1.3728  0.7018  2.6395
19974TIP3   OH281412   0.428   2.343   2.337 -0.1391  0.0734  0.0413
19974TIP3    H181413   0.478   2.284   2.280  0.5435 -0.0450  0.7497
19974TIP3    H281414   0.338   2.338   2.303  0.1099 -0.5799 -0.5506
19975TIP3   OH281415   1.847   6.792   1.488 -0.1937 -0.1560 -0.3579
19975TIP3    H181416   1.899   6.759   1.415  1.5417  1.1430  0.2222
19975TIP3    H281417   1.884   6.748   1.565 -0.0091  0.6950  0.0518
19976TIP3   OH281418   1.325   1.027  17.035  0.3524  0.0434  0.0266
19976TIP3    H181419   1.326   0.932  17.052 -0.2077 -0.0480 -0.4051
19976TIP3    H281420   1.396   1.062  17.088  0.9628 -0.7021 -0.2847
19977TIP3   OH281421   2.093   2.455   6.530 -0.0127  0.3706  0.0196
19977TIP3    H181422   2.009   2.427   6.567  0.2577 -1.2636 -0.5292
19977TIP3    H281423   2.093   2.550   6.539 -0.4045  0.1549  3.2316
19978TIP3   OH281424   0.428   0.181   3.282 -0.3390 -0.2982  0.1846
19978TIP3    H181425   0.468   0.258   3.242 -2.9291  0.9740 -0.1871
19978TIP3    H281426   0.459   0.107   3.230  2.8286  0.3160  1.0121
19979TIP3   OH281427   3.158   6.212  12.318 -0.2742  0.3082  0.2055
19979TIP3    H181428   3.219   6.282  12.296  1.0623  0.0473  2.7014
19979TIP3    H281429   3.136   6.172  12.234  2.3600  0.9452 -0.8870
19980TIP3   OH281430   4.270   1.580   6.208 -0.2398  0.0366 -0.4093
19980TIP3    H181431   4.352   1.533   6.192  0.4338  0.7872  0.7065
19980TIP3    H281432   4.270   1.652   6.145  0.1954  0.3184 -0.0883
19981TIP3   OH281433   3.278   1.100   4.069 -0.1189 -0.3169  0.5697
19981TIP3    H181434   3.362   1.124   4.030 -0.1619  1.3809  1.4546
19981TIP3    H281435   3.250   1.178   4.117 -1.6048 -1.2716  1.3339
19982TIP3   OH281436   1.120   3.598   0.856 -0.1219  0.6690 -0.7017
19982TIP3    H181437   1.067   3.676   0.874  0.3621  1.0867 -1.0380
19982TIP3    H281438   1.102   3.578   0.764 -0.4920  0.1849 -0.5264
19983TIP3   OH281439   5.953   3.975  11.653  0.5526  0.3215  0.3586
19983TIP3    H181440   5.996   4.007  11.732  0.7515 -1.6866  1.1263
19983TIP3    H281441   5.867   3.944  11.684  0.4415 -0.0454 -0.2972
19984TIP3   OH281442   1.003   3.434   2.377 -0.3877  0.0644  0.5945
19984TIP3    H181443   0.919   3.466   2.408 -0.2922  1.1945 -0.2823
19984TIP3    H281444   0.987   3.342   2.356 -1.3451  0.2111  0.6466
19985TIP3   OH281445   6.723   6.603   2.583  0.4260  0.5975  0.0386
19985TIP3    H181446   6.795   6.650   2.625  0.6152  1.2396 -0.9733
19985TIP3    H281447   6.757   6.577   2.497 -0.8337  1.7936 -0.8719
19986TIP3   OH281448   1.763   3.021  16.742  0.0989 -0.2138 -0.5425
19986TIP3    H181449   1.764   2.943  16.688 -0.2206  0.0841 -0.9848
19986TIP3    H281450   1.703   3.000  16.814 -0.8555  0.0236 -1.2653
19987TIP3   OH281451   3.223   3.311  11.915  0.1426  0.0280  0.1457
19987TIP3    H181452   3.211   3.381  11.979 -0.3844 -0.7940  0.9766
19987TIP3    H281453   3.318   3.294  11.916  0.5710  1.9385 -1.4325
19988TIP3   OH281454   2.612   6.336   5.926 -0.4663 -0.4378  0.4270
19988TIP3    H181455   2.669   6.259   5.928  1.9412  1.2294  0.5505
19988TIP3    H281456   2.630   6.382   6.008 -1.0234  0.7937 -0.1136
19989TIP3   OH281457   5.870   5.903   2.733 -0.3578  0.0444 -0.1465
19989TIP3    H181458   5.815   5.850   2.791 -0.6561 -0.1044 -0.5625
19989TIP3    H281459   5.839   5.882   2.645  0.2667  0.0703 -0.3776
19990TIP3   OH281460   0.841   0.469   5.065  0.6587 -0.6252 -0.4766
19990TIP3    H181461   0.848   0.561   5.039 -0.6303  0.0472  1.3445
19990TIP3    H281462   0.849   0.469   5.160 -1.6872 -2.0469 -0.1707
19991TIP3   OH281463   2.869   4.820  11.573 -0.4232  0.1162  0.3724
19991TIP3    H181464   2.878   4.732  11.536  1.4186  0.5138 -0.2421
19991TIP3    H281465   2.807   4.864  11.516  0.5399 -0.0399 -0.8467
19992TIP3   OH281466   4.242   1.834  11.355 -0.0162  0.4896  0.8171
19992TIP3    H181467   4.323   1.809  11.399 -0.4346 -1.1488  0.7286
19992TIP3    H281468   4.195   1.751  11.343 -0.9830  1.2037 -0.5593
19993TIP3   OH281469   5.340   5.809  10.854 -0.0568 -0.4468  0.3064
19993TIP3    H181470   5.320   5.902  10.859  0.3277 -0.2951 -0.7159
19993TIP3    H281471   5.367   5.785  10.943  2.7085  1.1064 -0.0241
19994TIP3   OH281472   5.248   5.169  15.843 -0.0344 -0.2310  0.2939
19994TIP3    H181473   5.307   5.115  15.791 -0.7940 -0.5626 -0.2361
19994TIP3    H281474   5.168   5.118  15.850 -0.5137  0.5208  0.3935
19995TIP3   OH281475   1.150   6.654  12.932  0.2343 -0.3320  0.2517
19995TIP3    H181476   1.217   6.656  13.000  0.0481 -1.7131  0.5179
19995TIP3    H281477   1.107   6.569  12.944 -2.0704  0.8004  0.5737
19996TIP3   OH281478   4.042   5.222  11.971  0.0667  0.2734  0.2791
19996TIP3    H181479   4.090   5.305  11.965 -0.4075  0.6053  1.0094
19996TIP3    H281480   4.089   5.163  11.912  1.2105  0.6730  0.7711
19997TIP3   OH281481   0.147   4.211  13.185  0.2087 -0.1997  0.0915
19997TIP3    H181482   0.225   4.155  13.178  1.3478  1.0063  2.0349
19997TIP3    H281483   0.095   4.172  13.254  0.2799  0.2909  0.4317
19998TIP3   OH281484   4.718   2.643   0.900  0.2459 -0.9155  0.1945
19998TIP3    H181485   4.672   2.606   0.824  1.6598  0.3260 -1.3552
19998TIP3    H281486   4.701   2.737   0.894  2.2337 -0.5184  0.0342
19999TIP3   OH281487   1.818   0.378  15.553 -0.7258 -0.2903 -0.1123
19999TIP3    H181488   1.889   0.315  15.539  0.7485  1.9755 -4.7676
19999TIP3    H281489   1.739   0.333  15.522 -0.2189 -0.8431 -0.6239
20000TIP3   OH281490   0.797   5.608   4.969  0.2594  0.0232 -0.8092
20000TIP3    H181491   0.797   5.590   5.063 -0.5345 -0.1681 -0.8375
20000TIP3    H281492   0.789   5.521   4.929  0.5224  0.1111 -1.0514
20001TIP3   OH281493   4.477   2.756  13.671 -0.0383 -0.1053 -0.1233
20001TIP3    H181494   4.532   2.753  13.749  1.8521  0.2160 -1.3720
20001TIP3    H281495   4.469   2.665  13.643 -0.0836 -0.1482  0.0320
20002TIP3   OH281496   4.393   6.443   5.316  0.1815 -0.3265 -0.1842
20002TIP3    H181497   4.480   6.482   5.324  0.7827 -1.6846  0.1157
20002TIP3    H281498   4.402   6.356   5.354 -1.0650 -0.8551 -1.0384
20003TIP3   OH281499   1.721   0.728  11.280  0.2673  0.1481 -0.1178
20003TIP3    H181500   1.687   0.642  11.253 -0.9189  0.7549 -0.6572
20003TIP3    H281501   1.726   0.778  11.199 -0.3551  1.0058  0.3518
20004TIP3   OH281502   1.233   3.325   4.868 -0.2062 -0.2736 -0.0487
20004TIP3    H181503   1.227   3.233   4.895 -0.9471  0.1357  1.2608
20004TIP3    H281504   1.243   3.373   4.949 -0.4582  0.8622 -0.6738
20005TIP3   OH281505   4.841   2.723  15.844 -0.1430  0.6319 -0.7477
20005TIP3    H181506   4.855   2.630  15.862 -0.6322  1.0523  2.3822
20005TIP3    H281507   4.927   2.763  15.853 -0.0896  0.6165 -1.1731
20006TIP3   OH281508   0.978   3.757  13.754 -0.1634  0.0282  0.4204
20006TIP3    H181509   1.027   3.716  13.683  0.4757 -1.9079  1.8935
20006TIP3    H281510   0.886   3.737  13.735 -0.1717  1.0079 -0.7135
20007TIP3   OH281511   3.410   4.152   4.283 -0.1471 -0.1768 -0.0641
20007TIP3    H181512   3.458   4.158   4.201  0.8976 -1.5155  0.4077
20007TIP3    H281513   3.475   4.123   4.347 -0.3613  2.9655  1.7908
20008TIP3   OH281514   6.418   3.171   6.260  0.0635  0.1283  0.4583
20008TIP3    H181515   6.491   3.183   6.321 -0.2265 -0.2107  0.8740
20008TIP3    H281516   6.356   3.116   6.307 -0.7187  0.8711  0.3210
20009TIP3   OH281517   4.640   5.123  13.827 -0.4278  0.1487 -0.5443
20009TIP3    H181518   4.644   5.173  13.909 -0.9456 -0.4442 -0.1465
20009TIP3    H281519   4.631   5.031  13.855  0.2255 -0.1470 -1.2601
20010TIP3   OH281520   5.735   5.277  13.070  0.3498  0.3359 -0.3689
20010TIP3    H181521   5.753   5.335  12.996 -1.0717  1.2629 -0.0315
20010TIP3    H281522   5.801   5.208  13.063  0.1750  0.2939 -2.6033
20011TIP3   OH281523   5.103   6.726   5.088 -0.2620 -0.6641  0.4855
20011TIP3    H181524   5.154   6.728   5.007 -0.0052 -0.0048  0.6563
20011TIP3    H281525   5.045   6.650   5.078 -0.9043 -0.0497 -0.7272
20012TIP3   OH281526   0.037   1.350  12.755 -0.5664  0.6712  0.1938
20012TIP3    H181527  -0.011   1.298  12.690 -3.0658  2.1584  0.7041
20012TIP3    H281528  -0.032   1.394  12.805  1.2585  0.2544  3.3362
20013TIP3   OH281529   5.623   3.990   0.776  0.1663 -0.0028 -0.3457
20013TIP3    H181530   5.545   3.936   0.787  0.8722 -1.5203 -2.3327
20013TIP3    H281531   5.589   4.080   0.774 -1.5641 -0.6257 -1.3845
20014TIP3   OH281532   5.880   2.706  13.118 -0.0356  0.4406 -0.1268
20014TIP3    H181533   5.963   2.748  13.098 -0.2192  1.2895  0.8346
20014TIP3    H281534   5.873   2.709  13.213 -0.2857 -1.3481 -0.0405
20015TIP3   OH281535   4.970   0.276  13.109  0.2809 -0.5612 -0.0410
20015TIP3    H181536   4.972   0.186  13.139 -2.6072 -0.7922 -0.2855
20015TIP3    H281537   4.973   0.270  13.013 -1.5068 -0.5631 -0.1315
20016TIP3   OH281538   3.394   2.689  12.527 -0.6496 -0.3893 -0.0205
20016TIP3    H181539   3.375   2.718  12.438  0.2529 -0.9630 -0.4168
20016TIP3    H281540   3.478   2.642  12.520  0.1875  0.8115  1.3928
20017TIP3   OH281541   5.725   5.944  14.506  0.2059  0.3384  0.3021
20017TIP3    H181542   5.725   5.978  14.417 -1.3211  0.9389  0.5047
20017TIP3    H281543   5.663   5.872  14.505  2.2226 -1.4927  0.2718
20018TIP3   OH281544   1.238   4.998   6.759 -0.5440  0.2115  0.1271
20018TIP3    H181545   1.234   5.093   6.749  3.5559  0.5458 -0.0029
20018TIP3    H281546   1.258   4.965   6.671  0.6327 -0.4374  0.6098
20019TIP3   OH281547   2.383   2.983  15.878 -0.6256  0.0893 -0.7885
20019TIP3    H181548   2.467   2.949  15.847  0.0955  1.1131 -0.0218
20019TIP3    H281549   2.320   2.916  15.853  0.5730 -1.2285 -0.3977
20020TIP3   OH281550   1.631   5.568  15.001 -0.3617 -0.4769 -0.3564
20020TIP3    H181551   1.538   5.566  14.980 -0.0677 -0.1474 -1.8157
20020TIP3    H281552   1.675   5.556  14.917  0.9243 -1.7082  0.4464
20021TIP3   OH281553   4.035   1.396  14.672  0.1642  0.3562 -0.1620
20021TIP3    H181554   4.094   1.321  14.664 -1.4303 -1.0707  0.7337
20021TIP3    H281555   3.995   1.386  14.758 -2.0028  0.7448 -1.0567
20022TIP3   OH281556   2.331   2.206   0.307 -0.0963  0.0966  0.0622
20022TIP3    H181557   2.291   2.155   0.378 -0.4578 -0.7518 -0.7266
20022TIP3    H281558   2.416   2.234   0.342  0.3566 -1.5242  0.3493
20023TIP3   OH281559   0.642   5.030  11.776 -0.3443 -0.2206  0.4794
20023TIP3    H181560   0.654   4.956  11.716 -1.3026  0.0938 -0.1176
20023TIP3    H281561   0.589   4.994  11.847 -0.2447 -0.2739  0.5278
20024TIP3   OH281562   2.358   3.708  14.203 -0.5208 -0.1994 -0.4847
20024TIP3    H181563   2.316   3.681  14.284 -2.2182  0.7486 -0.9915
20024TIP3    H281564   2.450   3.719  14.225 -0.7873 -0.8892  1.0569
20025TIP3   OH281565   2.119   1.092   0.447  0.1706 -0.1841  0.3613
20025TIP3    H181566   2.106   1.000   0.425  0.7197 -0.3808  0.8531
20025TIP3    H281567   2.036   1.133   0.426  0.4203 -0.4889 -1.4436
20026TIP3   OH281568   4.848   5.891  13.933 -0.0081 -0.3405 -0.4212
20026TIP3    H181569   4.759   5.860  13.915 -1.2151  1.2047  2.2354
20026TIP3    H281570   4.836   5.980  13.965  2.3863 -0.4895  1.1433
20027TIP3   OH281571   5.127   3.960   2.454  0.0639  0.3339 -0.5573
20027TIP3    H181572   5.080   3.950   2.538 -0.0913  0.5462 -0.6174
20027TIP3    H281573   5.096   3.886   2.401  0.7340 -0.2353 -0.1647
20028TIP3   OH281574   1.218   3.386  13.587 -0.3140  0.4083  0.0325
20028TIP3    H181575   1.299   3.376  13.538  0.3957 -1.3586  1.4397
20028TIP3    H281576   1.246   3.392  13.679 -1.7224  0.9693  0.4544
20029TIP3   OH281577   3.405   0.234  14.248  0.0166  0.4864  0.5857
20029TIP3    H181578   3.309   0.230  14.254 -0.0425 -0.5005 -0.5556
20029TIP3    H281579   3.432   0.142  14.247  0.9316  0.7563  0.1857
20030TIP3   OH281580   3.824   1.564  14.001 -0.1069  0.1526  0.8357
20030TIP3    H181581   3.817   1.481  13.954  0.3451  0.7392 -0.2944
20030TIP3    H281582   3.736   1.579  14.035  0.0257 -1.2723  1.9418
20031TIP3   OH281583   6.055   0.450  16.899  0.2248  0.4367  0.3533
20031TIP3    H181584   5.982   0.395  16.870  1.2864 -0.8057 -0.0385
20031TIP3    H281585   6.081   0.498  16.821 -0.8265  1.7023  0.7376
20032TIP3   OH281586   1.403   6.401  16.273 -0.7242 -0.4561  0.3051
20032TIP3    H181587   1.432   6.312  16.291 -1.4410 -0.5318  1.1952
20032TIP3    H281588   1.340   6.420  16.343 -0.1441  0.9527  0.4840
20033TIP3   OH281589   5.342   2.833   1.356 -0.3173  0.3659 -0.1289
20033TIP3    H181590   5.303   2.781   1.286 -0.5051 -2.1441  1.6906
20033TIP3    H281591   5.271   2.845   1.419  0.1628  1.4820  0.2186
20034TIP3   OH281592   2.542   3.658  12.780  0.1217  0.6662  0.2836
20034TIP3    H181593   2.523   3.668  12.686  0.1422  0.9871  0.3127
20034TIP3    H281594   2.623   3.706  12.793 -0.2228  1.1678  0.5923
20035TIP3   OH281595   6.323   5.834  12.675  0.1071  0.4048  0.0403
20035TIP3    H181596   6.261   5.890  12.628  0.4173  0.3382 -0.4498
20035TIP3    H281597   6.409   5.867  12.650  0.3176  1.9328  2.3886
20036TIP3   OH281598   2.594   1.857   3.530 -0.1721  0.3188 -0.3286
20036TIP3    H181599   2.601   1.794   3.458  0.2238  0.5146 -0.4638
20036TIP3    H281600   2.593   1.803   3.608 -2.4315 -0.0138 -0.5348
20037TIP3   OH281601   5.020   0.134  16.073  0.2335  0.1510  0.2568
20037TIP3    H181602   5.040   0.043  16.050  1.3534  0.5029 -0.2873
20037TIP3    H281603   4.972   0.129  16.155  0.4922 -0.9236  0.3545
20038TIP3   OH281604   0.935   0.970   5.558 -0.2029 -0.3328  0.3041
20038TIP3    H181605   0.896   0.950   5.643 -1.4779  0.6473 -0.0267
20038TIP3    H281606   0.873   0.935   5.494  0.5040 -0.6260 -0.2383
20039TIP3   OH281607   4.836   2.578  12.918  0.0198 -0.0007  0.0852
20039TIP3    H181608   4.818   2.571  13.011 -0.1379 -1.4163 -0.0376
20039TIP3    H281609   4.911   2.520  12.903  0.6104  0.8820 -0.5301
20040TIP3   OH281610   5.096   3.517   4.757 -0.4218  0.3167  0.1840
20040TIP3    H181611   5.120   3.549   4.670 -0.7979 -1.1206 -0.4809
20040TIP3    H281612   5.141   3.576   4.817 -0.4482  1.5714 -0.9624
20041TIP3   OH281613   1.020   2.096   2.050  0.7541  0.5480 -0.7791
20041TIP3    H181614   0.975   2.060   1.974  0.8146  0.3377 -0.7160
20041TIP3    H281615   1.065   2.173   2.017 -1.1200  1.8419 -0.4804
20042TIP3   OH281616   6.371   5.235   0.594 -0.5367  0.0165  0.5026
20042TIP3    H181617   6.377   5.141   0.576 -0.5619 -0.1843  1.4927
20042TIP3    H281618   6.432   5.249   0.667 -0.5275  0.7746  0.3536
20043TIP3   OH281619   6.762   4.827   3.766 -0.2934  0.0814 -0.1182
20043TIP3    H181620   6.757   4.840   3.671 -0.2263  1.4641  0.0569
20043TIP3    H281621   6.672   4.810   3.793 -0.0219 -2.8328 -0.7309
20044TIP3   OH281622   4.065   1.859  14.215 -0.3640 -0.4777  0.7533
20044TIP3    H181623   4.125   1.928  14.185 -0.6281 -0.0335  1.2306
20044TIP3    H281624   4.039   1.887  14.303 -1.8561 -0.2741  0.2713
20045TIP3   OH281625   1.276   2.991  15.562  0.4236  0.5462  0.2570
20045TIP3    H181626   1.206   3.020  15.620 -1.7980  0.6710 -2.2457
20045TIP3    H281627   1.230   2.947  15.490  2.9262  0.7103 -1.5805
20046TIP3   OH281628   4.617   5.160  13.047  0.3158 -0.1840  0.1733
20046TIP3    H181629   4.637   5.200  13.131 -0.9628 -0.0455  0.4421
20046TIP3    H281630   4.581   5.074  13.069  1.1143 -0.6469 -0.2943
20047TIP3   OH281631   3.201   5.052  16.867  0.2903 -0.1831 -0.4975
20047TIP3    H181632   3.280   5.062  16.921  1.0215  1.8986 -1.8432
20047TIP3    H281633   3.196   4.958  16.850  2.1094 -0.4441  0.1771
20048TIP3   OH281634   3.882   2.607  11.687 -0.5023 -0.1257 -0.1834
20048TIP3    H181635   3.877   2.615  11.592  2.3996  0.9253 -0.3548
20048TIP3    H281636   3.793   2.587  11.714 -2.1822  2.8043 -2.8213
20049TIP3   OH281637   3.231   1.204   1.163 -0.3459  0.0286 -0.0138
20049TIP3    H181638   3.217   1.294   1.134 -0.1617  0.0535 -0.0244
20049TIP3    H281639   3.314   1.206   1.209  0.2621 -0.3774 -1.0604
20050TIP3   OH281640   5.470   2.338   2.266  0.0870 -0.3200  0.3281
20050TIP3    H181641   5.428   2.421   2.244 -0.7954 -0.8352  0.0092
20050TIP3    H281642   5.564   2.354   2.254 -0.1346  0.4052 -0.4992
20051TIP3   OH281643   0.563   3.114  10.997 -0.0468  0.8983  0.2256
20051TIP3    H181644   0.512   3.106  10.916  0.2376 -2.0776  0.2133
20051TIP3    H281645   0.497   3.116  11.067 -0.4072 -2.6634  0.1920
20052TIP3   OH281646   2.033   1.846  12.999  0.3421 -0.3398 -0.8817
20052TIP3    H181647   2.082   1.903  12.939 -0.1635 -1.1031 -2.0522
20052TIP3    H281648   2.074   1.861  13.084  2.4449 -0.7175 -1.7497
20053TIP3   OH281649   6.794   3.675  11.774 -0.1206  0.1619 -0.1244
20053TIP3    H181650   6.817   3.604  11.714  0.3730 -0.9655  1.3388
20053TIP3    H281651   6.707   3.654  11.805  0.6657 -0.7552  1.5795
20054TIP3   OH281652   6.567   1.968   0.147  0.0406  0.3164 -0.7264
20054TIP3    H181653   6.518   2.047   0.125  0.6986  0.6038 -1.1791
20054TIP3    H281654   6.631   1.998   0.212  0.8540  0.3504 -1.5216
20055TIP3   OH281655   0.255   2.057  14.755  0.0920 -0.4539  0.1125
20055TIP3    H181656   0.191   2.028  14.821  0.2250  0.9456  0.8852
20055TIP3    H281657   0.267   2.150  14.773  3.0977 -0.8516  0.6348
20056TIP3   OH281658   5.135   0.895  15.058  0.2193 -0.5454  0.0963
20056TIP3    H181659   5.172   0.820  15.105  0.2521 -1.6822 -1.6506
20056TIP3    H281660   5.066   0.858  15.004 -1.3666  1.0698  0.8815
20057TIP3   OH281661   4.632   6.705   4.191  0.2537  0.1469 -0.1762
20057TIP3    H181662   4.618   6.668   4.104  0.2493  0.7174 -0.4276
20057TIP3    H281663   4.661   6.795   4.174 -0.6854  0.5890  0.4129
20058TIP3   OH281664   1.034   6.036   5.785 -0.0526 -0.1698  0.0455
20058TIP3    H181665   0.941   6.044   5.803 -0.2494 -0.3225 -0.8870
20058TIP3    H281666   1.039   5.997   5.698  0.8815 -0.3430  0.1641
20059TIP3   OH281667   1.343   4.100  17.191  0.3316 -0.7377  0.0590
20059TIP3    H181668   1.371   4.088  17.282  2.7851 -0.7352 -0.6189
20059TIP3    H281669   1.321   4.011  17.161  0.2150 -0.8372  0.4295
20060TIP3   OH281670   0.866   6.411   4.129  0.2140 -0.4081 -0.1476
20060TIP3    H181671   0.911   6.422   4.045 -1.3292  2.4191 -0.7259
20060TIP3    H281672   0.871   6.317   4.147  1.9576 -0.8772 -2.5961
20061TIP3   OH281673   1.720   1.675  14.999  0.3683  0.5473  0.3958
20061TIP3    H181674   1.796   1.708  14.951  0.2828 -1.2201 -1.0511
20061TIP3    H281675   1.757   1.617  15.066  0.3567  0.9474  0.7529
20062TIP3   OH281676   6.525   0.530  15.735 -0.4561 -0.4205  0.0885
20062TIP3    H181677   6.506   0.623  15.724  0.5862  0.0085  1.5866
20062TIP3    H281678   6.621   0.525  15.729 -0.4828 -1.3454  0.4029
20063TIP3   OH281679   0.246   0.114  16.936 -0.5775  0.0536  0.2468
20063TIP3    H181680   0.264   0.150  16.849 -1.0861  2.1476  0.9487
20063TIP3    H281681   0.313   0.048  16.949 -0.1059  0.1418 -1.4778
20064TIP3   OH281682   1.025   1.351  11.481 -0.3557  0.5108 -0.5808
20064TIP3    H181683   0.943   1.303  11.467 -1.5987  1.9354  1.3114
20064TIP3    H281684   1.024   1.420  11.416  0.5319 -0.8199 -2.0829
20065TIP3   OH281685   4.059   1.182   2.931  0.0033  0.4735 -0.4348
20065TIP3    H181686   4.119   1.183   3.006  0.5251  2.9366 -0.7982
20065TIP3    H281687   3.981   1.227   2.961  0.3217  1.7350 -1.3908
20066TIP3   OH281688   0.154   6.756  16.383 -0.2698 -0.2041 -0.0053
20066TIP3    H181689   0.229   6.761  16.323 -0.5847  3.3558 -0.2715
20066TIP3    H281690   0.081   6.730  16.327  0.3869 -2.1448 -0.0426
20067TIP3   OH281691   3.691   2.215  11.764  0.3730  0.2500  0.6650
20067TIP3    H181692   3.768   2.246  11.812  1.3423 -1.3562  0.2018
20067TIP3    H281693   3.628   2.192  11.832  0.6559  0.6490  1.0712
20068TIP3   OH281694   0.831   2.281   5.257  0.8225 -0.7947  0.5142
20068TIP3    H181695   0.867   2.287   5.168  2.6702 -1.5675  1.1477
20068TIP3    H281696   0.775   2.204   5.255 -1.2498  0.6518 -0.6081
20069TIP3   OH281697   5.187   3.736  15.515  0.1038  0.1126 -0.2490
20069TIP3    H181698   5.264   3.757  15.463  1.5837  0.4691  1.9701
20069TIP3    H281699   5.125   3.806  15.494  1.2950  1.1994 -0.2663
20070TIP3   OH281700   0.354   2.895   2.842 -0.4464  0.1537 -0.2312
20070TIP3    H181701   0.378   2.963   2.905 -0.9250  0.8304 -0.7621
20070TIP3    H281702   0.296   2.837   2.890  1.2504 -0.8376  0.7209
20071TIP3   OH281703   1.261   1.031   4.788  0.4581  0.0563  0.2391
20071TIP3    H181704   1.294   0.941   4.792 -1.6623 -0.7393  1.2817
20071TIP3    H281705   1.210   1.034   4.707 -1.1712 -0.3638  1.2032
20072TIP3   OH281706   4.529   5.613  13.293 -0.7054 -0.1526  0.3764
20072TIP3    H181707   4.466   5.671  13.250 -2.1526 -1.1000  1.1491
20072TIP3    H281708   4.486   5.587  13.375  1.1339 -0.0091  1.4521
20073TIP3   OH281709   3.284   2.532  11.887 -0.4611 -0.0062  0.2786
20073TIP3    H181710   3.271   2.615  11.841  0.6915  0.1260  0.1409
20073TIP3    H281711   3.238   2.468  11.834 -1.2418  0.5228  0.3035
20074TIP3   OH281712   3.510   4.031  11.748  0.0692 -0.1962  0.5486
20074TIP3    H181713   3.421   3.997  11.759  0.3141 -1.4176 -0.8806
20074TIP3    H281714   3.502   4.125  11.760 -1.9229  0.0706 -1.9927
20075TIP3   OH281715   0.170   0.625   2.485  0.1932  0.1277 -0.4756
20075TIP3    H181716   0.144   0.679   2.560  0.2765  1.9441 -1.7050
20075TIP3    H281717   0.250   0.666   2.452 -1.2554  1.0346 -3.1526
20076TIP3   OH281718   0.809   0.550  14.254  0.0404 -0.0403  0.8310
20076TIP3    H181719   0.747   0.614  14.289 -4.0268 -1.0486 -3.4806
20076TIP3    H281720   0.833   0.584  14.168  0.9593 -2.4125  0.0503
20077TIP3   OH281721   1.354   2.044   2.825 -0.1478 -0.2849 -0.0648
20077TIP3    H181722   1.328   1.996   2.904  2.8090 -2.8633 -0.4517
20077TIP3    H281723   1.390   2.127   2.858  1.1749 -1.3799  1.4020
20078TIP3   OH281724   1.112   1.610   3.041  0.2791  0.0785 -0.4093
20078TIP3    H181725   1.025   1.638   3.011  0.0778 -0.7441 -0.6261
20078TIP3    H281726   1.103   1.602   3.136  0.0548 -0.1945 -0.4514
20079TIP3   OH281727   3.792   1.434  12.078 -0.5769  0.6367  0.2119
20079TIP3    H181728   3.717   1.473  12.123 -0.9852  1.0017 -0.7652
20079TIP3    H281729   3.828   1.506  12.026  1.4243  0.9024  1.8540
20080TIP3   OH281730   1.228   1.983   1.680  0.6648 -0.4626  0.4538
20080TIP3    H181731   1.203   1.894   1.654  1.4700 -1.5227  3.0092
20080TIP3    H281732   1.323   1.982   1.677  0.6680  0.7661 -0.7025
20081TIP3   OH281733   1.250   4.238   2.740 -0.0218 -0.1031  0.3562
20081TIP3    H181734   1.212   4.160   2.780 -2.1389  1.1318  0.8938
20081TIP3    H281735   1.191   4.309   2.765  1.7620  1.6622 -0.2260
20082TIP3   OH281736   2.060   2.148  12.389 -0.6269  0.5065  0.2164
20082TIP3    H181737   2.054   2.226  12.334 -3.1718  0.5151  0.4102
20082TIP3    H281738   2.127   2.094  12.347 -1.0404  1.4169 -1.7182
20083TIP3   OH281739   3.669   0.291  13.708  0.5785  0.1782  0.1217
20083TIP3    H181740   3.611   0.239  13.653  0.1826  0.8719 -0.1432
20083TIP3    H281741   3.756   0.256  13.693  0.5437  0.6372 -1.3098
20084TIP3   OH281742   0.544   6.515   4.631  0.2538 -0.1578 -0.1550
20084TIP3    H181743   0.532   6.590   4.573  2.7351  1.1292  0.8463
20084TIP3    H281744   0.592   6.451   4.579  0.7679  0.2017 -0.1309
20085TIP3   OH281745   5.950   3.619   6.441 -0.1562  0.4984 -0.2932
20085TIP3    H181746   5.882   3.580   6.496 -0.1616  1.2443  0.2537
20085TIP3    H281747   6.032   3.598   6.486  0.0677 -1.1050 -1.3844
20086TIP3   OH281748   0.864   6.076  15.398 -0.1980  0.0268 -0.0940
20086TIP3    H181749   0.894   6.044  15.483 -2.9685 -2.9281 -0.0508
20086TIP3    H281750   0.787   6.130  15.418 -0.2390  0.1900 -0.6606
20087TIP3   OH281751   4.265   6.407   5.828 -0.0300 -0.8712 -0.0344
20087TIP3    H181752   4.358   6.403   5.849  0.4238  1.8291 -1.0693
20087TIP3    H281753   4.236   6.492   5.863 -1.4492 -0.5000 -1.8981
20088TIP3   OH281754   4.743   1.681   1.546 -0.3274 -0.0623  0.5083
20088TIP3    H181755   4.652   1.657   1.532 -0.6305  0.2782  1.7917
20088TIP3    H281756   4.773   1.624   1.617  0.3414  0.1010  0.3655
20089TIP3   OH281757   6.627   2.237   4.637  0.1646  0.2121  0.2329
20089TIP3    H181758   6.676   2.238   4.555 -1.7835  2.2446 -1.0278
20089TIP3    H281759   6.597   2.147   4.647  0.8209 -0.1661 -1.0335
20090TIP3   OH281760   1.600   0.571   0.178  0.0683  0.5208  0.2221
20090TIP3    H181761   1.509   0.580   0.206 -0.7808 -1.0385 -1.8397
20090TIP3    H281762   1.617   0.649   0.126 -1.0292 -0.4326 -1.6541
20091TIP3   OH281763   6.174   0.068  12.589 -0.5005  0.4483  0.7003
20091TIP3    H181764   6.087   0.108  12.593 -0.2802  1.3088 -1.6159
20091TIP3    H281765   6.159  -0.019  12.554 -0.5427  0.0111  1.7535
20092TIP3   OH281766   0.044   0.068   1.133 -0.2853  0.6546  0.1758
20092TIP3    H181767  -0.024   0.018   1.178  1.5082 -0.6873  1.5600
20092TIP3    H281768   0.058   0.022   1.050  1.2213 -1.1830  1.3542
20093TIP3   OH281769   5.017   4.592  14.845 -0.2200 -0.0802  0.3602
20093TIP3    H181770   5.040   4.526  14.779 -2.3501 -1.3526  0.8018
20093TIP3    H281771   4.959   4.546  14.905 -1.0684  1.9925  1.2068
20094TIP3   OH281772   6.774   4.264   5.652 -0.1543 -0.2852 -0.7921
20094TIP3    H181773   6.783   4.310   5.569 -1.1545  0.0738 -0.7122
20094TIP3    H281774   6.688   4.223   5.648 -1.0892  1.3634  0.8422
20095TIP3   OH281775   5.488   2.163  12.242 -0.0319 -0.1583 -0.3756
20095TIP3    H181776   5.486   2.122  12.328 -1.0986 -0.9436 -0.7563
20095TIP3    H281777   5.426   2.236  12.248 -1.0967 -0.9859 -0.8185
20096TIP3   OH281778   5.256   5.541  16.427  0.2271 -0.0452  0.2039
20096TIP3    H181779   5.312   5.613  16.457  2.2528 -1.1042 -0.8210
20096TIP3    H281780   5.243   5.487  16.505  0.7093  0.1666  0.4365
20097TIP3   OH281781   4.353   0.025  15.008  0.8924  0.7365 -0.1690
20097TIP3    H181782   4.380   0.015  14.917 -1.0017 -1.4520 -0.6003
20097TIP3    H281783   4.416  -0.027  15.058  1.1561  0.8465 -0.3833
20098TIP3   OH281784   2.697   0.829   2.160 -0.0306 -0.0362  0.0732
20098TIP3    H181785   2.754   0.870   2.224 -2.5070  0.7682  1.9023
20098TIP3    H281786   2.658   0.755   2.206 -1.8280  0.5199 -0.4827
20099TIP3   OH281787   4.854   3.283   3.403  0.2474 -0.0556  0.0893
20099TIP3    H181788   4.765   3.293   3.369  0.7176 -1.1583 -1.5968
20099TIP3    H281789   4.849   3.208   3.462  0.2538 -0.8514 -0.8896
20100TIP3   OH281790   2.408   1.748  12.343  0.1918 -0.0863 -0.0292
20100TIP3    H181791   2.398   1.692  12.420  4.4368 -0.8220  0.1872
20100TIP3    H281792   2.478   1.810  12.367 -0.3280  1.5255 -2.3462
20101TIP3   OH281793   5.989   1.770   3.054 -0.4788 -0.0782 -0.0811
20101TIP3    H181794   5.953   1.833   2.991  1.0847  0.6004 -0.3745
20101TIP3    H281795   5.949   1.687   3.031 -1.4001  0.5293 -0.7301
20102TIP3   OH281796   5.698   1.194  10.956  0.0347  0.4634 -0.0316
20102TIP3    H181797   5.784   1.163  10.926  0.2471  1.1002 -0.1105
20102TIP3    H281798   5.663   1.241  10.881 -0.5148 -0.0478 -0.0949
20103TIP3   OH281799   6.073   0.374   1.685  0.2176 -0.4018 -0.4245
20103TIP3    H181800   6.013   0.300   1.687 -2.2675  1.4940 -0.2614
20103TIP3    H281801   6.094   0.385   1.592 -1.7694  0.3974 -0.8342
20104TIP3   OH281802   2.981   4.513  15.292  0.1560  0.5627 -0.2644
20104TIP3    H181803   2.900   4.555  15.320  1.5223  1.9292  1.8540
20104TIP3    H281804   3.039   4.585  15.268  1.4798 -0.2713  0.3304
20105TIP3   OH281805   0.207   3.277   4.563  0.6560 -0.2353  0.4721
20105TIP3    H181806   0.221   3.311   4.651  0.0052 -2.0656  1.3256
20105TIP3    H281807   0.114   3.254   4.560  0.5650  0.1658 -0.8529
20106TIP3   OH281808   5.777   3.772   1.838 -0.6741  0.0487 -0.1424
20106TIP3    H181809   5.805   3.687   1.806 -0.6351 -0.3872  0.9832
20106TIP3    H281810   5.810   3.835   1.774  1.9912 -0.5199  0.5427
20107TIP3   OH281811   5.083   3.105  13.932 -0.2522 -0.5008 -0.9181
20107TIP3    H181812   5.032   3.033  13.969  0.4803 -0.5091  0.1077
20107TIP3    H281813   5.021   3.177  13.925  0.1449  0.4506  3.1122
20108TIP3   OH281814   2.369   1.847  11.836 -0.0321 -0.0397  0.0476
20108TIP3    H181815   2.368   1.824  11.929 -0.0771 -0.4128 -0.0415
20108TIP3    H281816   2.380   1.763  11.791  0.3076  0.1713 -0.2737
20109TIP3   OH281817   4.174   1.399  15.703 -0.1497  0.1334 -0.3040
20109TIP3    H181818   4.179   1.453  15.782 -2.4401 -1.0759  0.7553
20109TIP3    H281819   4.080   1.391  15.685  0.1824 -2.2558 -1.2817
20110TIP3   OH281820   5.395   3.583  12.336 -0.3241 -0.0851  0.1078
20110TIP3    H181821   5.439   3.629  12.264 -0.8436  1.1330  0.5417
20110TIP3    H281822   5.373   3.497  12.299 -0.7991  0.6036 -1.2771
20111TIP3   OH281823   4.125   1.313   5.667  0.2250  0.0670 -0.2598
20111TIP3    H181824   4.098   1.272   5.749  1.5087 -1.6973 -0.6543
20111TIP3    H281825   4.189   1.378   5.692  1.9473 -1.6646  0.1007
20112TIP3   OH281826   0.309   4.175   0.522 -0.5478  0.7323 -0.3983
20112TIP3    H181827   0.325   4.147   0.432 -2.7849  1.6870 -1.1610
20112TIP3    H281828   0.231   4.230   0.517 -0.9490  0.5402  2.1899
20113TIP3   OH281829   4.889   5.384  12.171  0.5463 -0.0388  0.0757
20113TIP3    H181830   4.803   5.426  12.179  0.8876  0.4610  1.3622
20113TIP3    H281831   4.905   5.346  12.256  2.6989  2.0955  0.7426
20114TIP3   OH281832   6.499   6.708  14.273 -0.4657  0.6160  0.0303
20114TIP3    H181833   6.538   6.763  14.341  0.7794  0.5017 -0.5477
20114TIP3    H281834   6.500   6.764  14.195 -1.2441  0.5186 -0.0496
20115TIP3   OH281835   5.769   2.387  15.969  0.0323  0.5577  0.3197
20115TIP3    H181836   5.788   2.452  15.901  1.2893 -0.2055 -0.1000
20115TIP3    H281837   5.692   2.421  16.014 -2.5257 -0.1616 -3.1292
20116TIP3   OH281838   5.247   0.782   2.412  0.0213 -0.1759  0.1336
20116TIP3    H181839   5.159   0.816   2.400 -0.1691 -0.1047  1.5054
20116TIP3    H281840   5.305   0.856   2.396 -0.0595 -0.5487 -2.1084
20117TIP3   OH281841   0.450   3.978   4.725 -0.3381  0.6323  0.6143
20117TIP3    H181842   0.374   4.016   4.681  0.3046  1.0521 -0.1794
20117TIP3    H281843   0.436   3.995   4.818 -1.5272  0.1032  0.5475
20118TIP3   OH281844   3.291   5.386   0.210 -0.2991 -0.2310  0.0481
20118TIP3    H181845   3.338   5.356   0.287  1.4572 -0.3606 -1.0221
20118TIP3    H281846   3.342   5.460   0.178 -0.8527 -0.3303 -1.1117
20119TIP3   OH281847   4.615   4.017   4.504  0.4711 -0.2442  0.0030
20119TIP3    H181848   4.686   3.956   4.526  0.7990 -0.0885 -0.5816
20119TIP3    H281849   4.575   4.039   4.588  0.4109 -1.1871  0.2339
20120TIP3   OH281850   2.840   5.724  14.011  0.7717  0.0980 -0.0653
20120TIP3    H181851   2.857   5.701  13.919 -0.0624  3.3599 -1.1704
20120TIP3    H281852   2.826   5.819  14.010  0.2242  0.1825  3.3988
20121TIP3   OH281853   2.315   5.843  16.488 -0.3470 -0.0478 -0.1709
20121TIP3    H181854   2.388   5.784  16.471  0.7095  1.1012  0.2459
20121TIP3    H281855   2.307   5.896  16.409 -0.2823  0.2860  0.0439
20122TIP3   OH281856   1.730   6.532   2.606 -0.6547  0.7209 -0.6763
20122TIP3    H181857   1.758   6.590   2.676 -0.8720 -0.6185  0.5831
20122TIP3    H281858   1.811   6.502   2.565 -0.2496 -1.1001  1.2540
20123TIP3   OH281859   1.568   0.097   5.541  0.0956  0.2881  0.0414
20123TIP3    H181860   1.512   0.020   5.554  0.3809 -0.4701 -2.5297
20123TIP3    H281861   1.655   0.060   5.522  1.0127  1.3879  1.9178
20124TIP3   OH281862   1.725   6.343   5.858 -0.2148 -0.2859 -0.4297
20124TIP3    H181863   1.640   6.381   5.881  0.1168  0.2903 -0.1436
20124TIP3    H281864   1.771   6.333   5.942 -0.3384 -1.4332 -0.4862
20125TIP3   OH281865   4.541   2.534  13.493 -0.2694  0.3779  0.7158
20125TIP3    H181866   4.604   2.469  13.463 -0.5311  1.0218 -1.3474
20125TIP3    H281867   4.481   2.484  13.549 -0.7838 -1.3480 -1.2415
20126TIP3   OH281868   2.721   4.382   3.292 -0.5024 -0.1100  0.2282
20126TIP3    H181869   2.710   4.448   3.224 -0.2453 -1.6658 -1.3692
20126TIP3    H281870   2.775   4.426   3.358  1.4833  0.6455 -1.7727
20127TIP3   OH281871   3.382   3.314   2.040  0.2890 -0.1125 -0.4442
20127TIP3    H181872   3.467   3.323   2.082 -0.1116  2.0754  0.0067
20127TIP3    H281873   3.403   3.290   1.949  1.2985 -1.0642  0.0197
20128TIP3   OH281874   0.721   1.937  11.804 -0.8520 -0.2002 -0.0059
20128TIP3    H181875   0.815   1.920  11.804 -0.9820 -0.9942 -0.3051
20128TIP3    H281876   0.689   1.897  11.723 -1.6832 -1.4847  0.9013
20129TIP3   OH281877   2.692   0.888   3.358 -0.3113 -0.8872 -0.2422
20129TIP3    H181878   2.732   0.813   3.401  0.6485 -0.5251 -0.4538
20129TIP3    H281879   2.673   0.949   3.429 -3.8267 -2.4113  0.3464
20130TIP3   OH281880   2.431   4.092   4.879 -0.6773 -0.2695 -0.3841
20130TIP3    H181881   2.403   4.001   4.875 -0.5736 -0.3394  0.3504
20130TIP3    H281882   2.397   4.132   4.799  0.2976 -1.2398 -1.3138
20131TIP3   OH281883   4.789   2.967  13.288 -0.1906 -0.8528 -0.3302
20131TIP3    H181884   4.735   2.939  13.361  1.3018 -0.6140  0.9065
20131TIP3    H281885   4.878   2.967  13.322  0.3518  1.1242 -1.5634
20132TIP3   OH281886   3.664   6.185   5.839  0.4764  0.2028  0.5563
20132TIP3    H181887   3.748   6.147   5.813 -0.9001 -1.5252 -1.7002
20132TIP3    H281888   3.630   6.227   5.760 -0.0084  2.5169  1.9084
20133TIP3   OH281889   2.133   0.763   4.097  0.2836 -0.0177 -0.2559
20133TIP3    H181890   2.209   0.820   4.092  0.0278  0.2249 -1.7791
20133TIP3    H281891   2.073   0.798   4.031 -1.7888  0.7014  1.8625
20134TIP3   OH281892   2.415   1.107   3.533 -0.5197 -0.7108  0.2710
20134TIP3    H181893   2.500   1.150   3.525 -0.7523 -0.3703 -0.4835
20134TIP3    H281894   2.356   1.162   3.481 -0.8727 -1.8299 -0.5521
20135TIP3   OH281895   4.154   1.194   4.279  0.3336 -0.2318  0.0297
20135TIP3    H181896   4.104   1.246   4.343  1.3109  0.3919  0.3127
20135TIP3    H281897   4.159   1.250   4.201  1.6462  0.2663  0.4363
20136TIP3   OH281898   1.597   1.097  14.129 -0.4105 -0.6508 -0.3102
20136TIP3    H181899   1.606   1.192  14.135 -1.6971 -0.4802 -0.8460
20136TIP3    H281900   1.663   1.063  14.190 -0.0483  0.5825  0.0107
20137TIP3   OH281901   5.150   4.126  13.042  0.2287  0.2647  0.6557
20137TIP3    H181902   5.108   4.044  13.067  0.0880  0.3719  0.7732
20137TIP3    H281903   5.088   4.168  12.981  0.6915 -0.1216 -0.0991
20138TIP3   OH281904   2.628   5.128   5.047 -0.0668  0.3137 -0.6572
20138TIP3    H181905   2.571   5.137   4.970 -1.4217  1.0895  0.3947
20138TIP3    H281906   2.644   5.218   5.075  0.5917  0.0413 -0.1516
20139TIP3   OH281907   3.007   4.613   1.295  0.0959  0.0618  0.1067
20139TIP3    H181908   3.097   4.626   1.265  0.6965  1.3225  2.1995
20139TIP3    H281909   2.993   4.519   1.288  0.7347  0.0846 -2.3850
20140TIP3   OH281910   5.774   1.428   0.934  0.0473 -0.2683  0.2641
20140TIP3    H181911   5.862   1.415   0.970  0.8797  0.4515 -1.3846
20140TIP3    H281912   5.749   1.342   0.901  0.1698 -0.4602  0.6641
20141TIP3   OH281913   4.409   5.998   4.160  0.6265  0.0352 -0.7114
20141TIP3    H181914   4.501   6.016   4.145  0.4657 -0.7940 -3.1238
20141TIP3    H281915   4.407   5.944   4.240  2.5030 -1.9138 -1.8678
20142TIP3   OH281916   1.803   2.548  11.436 -0.2921  0.6142  0.1688
20142TIP3    H181917   1.839   2.632  11.405  0.7402  0.3866  0.6890
20142TIP3    H281918   1.831   2.485  11.370  0.2371  0.4417  0.5534
20143TIP3   OH281919   1.496   4.869   5.668 -0.5688 -0.1359  0.2064
20143TIP3    H181920   1.562   4.814   5.625 -1.1445 -0.0919 -0.7620
20143TIP3    H281921   1.421   4.868   5.609 -0.9259  0.9528  0.6092
20144TIP3   OH281922   5.194   5.624   0.412 -0.2257 -0.0849  0.2115
20144TIP3    H181923   5.157   5.560   0.472  0.1634 -1.3606 -0.8738
20144TIP3    H281924   5.123   5.686   0.395 -0.5295 -0.0763  1.4460
20145TIP3   OH281925   1.025   0.989   3.041 -0.6053 -0.1515 -0.3336
20145TIP3    H181926   1.070   1.068   3.010 -0.8393 -0.4393 -1.4357
20145TIP3    H281927   0.982   0.954   2.963 -0.7551 -1.2031  0.2122
20146TIP3   OH281928   5.595   2.945  15.819 -0.2759  0.2504  0.9357
20146TIP3    H181929   5.502   2.933  15.801 -0.4386  2.3260  0.1883
20146TIP3    H281930   5.599   2.960  15.914 -1.1985  3.5620  0.5677
20147TIP3   OH281931   4.056   3.906  14.419  0.2248  0.3597  0.5148
20147TIP3    H181932   4.130   3.881  14.364  0.1450 -0.8349  0.9248
20147TIP3    H281933   4.050   3.836  14.485 -1.7577 -0.0042  0.0172
20148TIP3   OH281934   2.368   3.845  10.858 -0.3828  0.3292 -0.1080
20148TIP3    H181935   2.307   3.886  10.920 -0.3293  0.3368 -0.0601
20148TIP3    H281936   2.330   3.861  10.772 -1.0648 -0.6579 -0.0165
20149TIP3   OH281937   6.609   1.157   1.907  0.3040  0.6159 -0.1120
20149TIP3    H181938   6.625   1.128   1.997  1.0710 -0.4798 -0.5711
20149TIP3    H281939   6.592   1.077   1.858 -2.8172  1.3730 -0.4936
20150TIP3   OH281940   5.682   4.664   1.535 -0.4328 -0.2212 -0.5764
20150TIP3    H181941   5.652   4.723   1.465  0.5537 -0.5296 -1.2804
20150TIP3    H281942   5.741   4.603   1.491  0.2692 -0.3716  0.5427
20151TIP3   OH281943   2.153   3.900   6.654 -0.3985 -0.1302 -0.4529
20151TIP3    H181944   2.173   3.881   6.746 -2.2439 -0.9882 -0.1728
20151TIP3    H281945   2.206   3.838   6.605 -2.6707 -2.9168  0.2812
20152TIP3   OH281946   1.877   5.016  17.043  0.1906 -0.3238  0.5366
20152TIP3    H181947   1.814   5.063  16.988 -0.1692 -2.2347 -0.8112
20152TIP3    H281948   1.826   4.992  17.121  0.1595  0.8198  0.8744
20153TIP3   OH281949   6.141   1.866  16.583 -0.6796  0.1860  0.4919
20153TIP3    H181950   6.078   1.939  16.585 -0.5088  0.3290  0.6530
20153TIP3    H281951   6.213   1.895  16.639 -0.1636  0.3015 -0.2192
20154TIP3   OH281952   4.261   0.236   2.147  0.2898  0.4488  0.2532
20154TIP3    H181953   4.181   0.192   2.175 -0.0488 -0.4881 -1.9698
20154TIP3    H281954   4.233   0.326   2.128 -0.6668 -0.2499 -1.9945
20155TIP3   OH281955   2.674   1.383   0.511 -0.3068 -0.2227  0.3107
20155TIP3    H181956   2.677   1.287   0.516 -1.9537 -0.2584  1.4989
20155TIP3    H281957   2.581   1.404   0.520  0.0180  1.5004 -0.0566
20156TIP3   OH281958   5.840   3.613   3.147 -0.5455  0.8285 -0.4060
20156TIP3    H181959   5.912   3.566   3.107 -1.2782 -0.7475  0.0181
20156TIP3    H281960   5.871   3.703   3.157  0.6388  0.6213 -1.9317
20157TIP3   OH281961   6.612   6.057  15.994  0.2071 -0.1740 -0.1845
20157TIP3    H181962   6.563   6.059  15.912 -1.9766 -1.2042  0.9990
20157TIP3    H281963   6.636   6.148  16.011  0.0299  0.1478 -1.5608
20158TIP3   OH281964   3.851   6.244  13.819 -0.1214 -0.3050  0.3278
20158TIP3    H181965   3.758   6.258  13.834 -0.4077  0.1802 -1.6508
20158TIP3    H281966   3.875   6.174  13.879 -1.8685 -0.7962  0.4966
20159TIP3   OH281967   6.209   1.897   6.087  0.5909 -0.2457  0.3253
20159TIP3    H181968   6.151   1.821   6.087  0.8708 -0.4666  0.9737
20159TIP3    H281969   6.263   1.886   6.009  0.6794 -0.7535  0.4543
20160TIP3   OH281970   5.331   2.397   0.693 -0.4393 -0.2106 -0.0430
20160TIP3    H181971   5.321   2.339   0.769  1.2425 -2.1586 -1.2005
20160TIP3    H281972   5.362   2.340   0.623 -2.9370  1.2681 -2.5954
20161TIP3   OH281973   0.456   6.292  12.433  0.5311 -0.1997  0.2503
20161TIP3    H181974   0.514   6.269  12.505  0.2646 -2.9127 -0.2791
20161TIP3    H281975   0.494   6.247  12.357  1.2189  3.1113 -1.6049
20162TIP3   OH281976   5.594   0.603  10.614 -0.9640  0.1417 -0.2077
20162TIP3    H181977   5.525   0.562  10.561 -1.6848  1.6234 -0.4554
20162TIP3    H281978   5.575   0.696  10.611  0.7545  0.5448  0.1820
20163TIP3   OH281979   4.455   3.030   0.435  0.3307 -0.3847  0.0396
20163TIP3    H181980   4.483   3.117   0.465 -1.3361  0.6419 -1.1647
20163TIP3    H281981   4.467   3.032   0.340 -0.7138 -1.0773 -0.1221
20164TIP3   OH281982   6.397   4.595  13.672  0.2863  0.0017 -0.7255
20164TIP3    H181983   6.322   4.564  13.723  2.6402 -2.7502  1.4236
20164TIP3    H281984   6.398   4.540  13.594 -0.8705  1.3309 -1.7509
20165TIP3   OH281985   2.646   5.005  15.538 -0.1296  0.0577 -0.2874
20165TIP3    H181986   2.655   4.912  15.516 -0.9042  0.5355 -2.8954
20165TIP3    H281987   2.555   5.015  15.564  0.0271  0.0639  0.2824
20166TIP3   OH281988   5.556   0.950   2.586 -0.4693 -0.2326  0.2915
20166TIP3    H181989   5.615   0.937   2.513 -1.2074  1.0659 -0.5892
20166TIP3    H281990   5.558   1.045   2.602 -0.5714 -0.4467  1.7507
20167TIP3   OH281991   3.684   3.620  13.831 -0.3055 -0.1021  0.3102
20167TIP3    H181992   3.646   3.686  13.888 -1.8253 -1.3127  0.7813
20167TIP3    H281993   3.657   3.645  13.743 -0.9060 -0.1031  0.4901
20168TIP3   OH281994   1.130   5.139   3.755  0.2640  0.8036  0.2298
20168TIP3    H181995   1.203   5.094   3.798  1.7964  1.7215 -1.3256
20168TIP3    H281996   1.063   5.146   3.824  1.3453 -0.6752  1.4991
20169TIP3   OH281997   1.153   1.796  14.478 -0.6837 -0.0735 -0.0746
20169TIP3    H181998   1.222   1.734  14.502 -0.8055  0.1407  0.8656
20169TIP3    H281999   1.140   1.782  14.385  0.6879 -0.0669 -0.2934
20170TIP3   OH282000   2.951   2.495   0.989  0.2309  0.0628 -0.4391
20170TIP3    H182001   2.971   2.578   0.948 -1.1771  0.3483 -0.6160
20170TIP3    H282002   2.863   2.473   0.959 -0.7994  0.1732  2.1668
20171TIP3   OH282003   0.903   5.032   2.109 -0.4685 -1.1435 -0.3588
20171TIP3    H182004   0.995   5.055   2.096 -0.7796 -0.3724 -1.3817
20171TIP3    H282005   0.878   4.991   2.026 -1.3996 -0.0815 -0.6217
20172TIP3   OH282006   3.251   2.176  17.086 -0.0379 -0.4024 -0.4332
20172TIP3    H182007   3.331   2.168  17.138  1.7515  0.0098 -2.9670
20172TIP3    H282008   3.264   2.118  17.011 -1.0742  1.4016 -2.1119
20173TIP3   OH282009   0.592   0.007  15.571 -0.9891  0.2176 -0.1498
20173TIP3    H182010   0.585  -0.021  15.480  0.7848 -0.6976 -0.0456
20173TIP3    H282011   0.585   0.102  15.568 -2.3923  0.1137 -1.0566
20174TIP3   OH282012   0.799   2.863  14.336  0.5191  0.5163  0.3098
20174TIP3    H182013   0.808   2.768  14.334 -2.1230  0.2034  0.4076
20174TIP3    H282014   0.888   2.895  14.350  1.4987 -1.9186  0.0619
20175TIP3   OH282015   4.382   4.129   5.636  0.1257 -0.0933  0.5238
20175TIP3    H182016   4.426   4.167   5.560 -0.2724 -1.1843 -0.2758
20175TIP3    H282017   4.442   4.062   5.668 -0.7544 -1.3898 -0.4009
20176TIP3   OH282018   2.053   3.844   5.910  0.3935  0.4270  0.1938
20176TIP3    H182019   2.064   3.800   5.826 -0.8269 -1.0317  0.7466
20176TIP3    H282020   2.122   3.809   5.965 -1.3437 -1.9328  1.0253
20177TIP3   OH282021   5.336   4.075   0.407  0.1710 -0.0046 -0.4658
20177TIP3    H182022   5.414   4.085   0.353 -0.4822  2.3860 -1.0687
20177TIP3    H282023   5.275   4.026   0.352  0.4725  0.0405 -0.8401
20178TIP3   OH282024   3.500   0.425  15.917  0.2707 -0.0845 -0.0174
20178TIP3    H182025   3.446   0.346  15.920  0.5882 -0.3276 -0.7146
20178TIP3    H282026   3.441   0.495  15.946 -0.0521 -0.5452  0.4615
20179TIP3   OH282027   3.015   3.491   0.965 -0.0097  0.1251  0.2150
20179TIP3    H182028   3.089   3.442   0.931 -1.1145 -1.2848 -0.2504
20179TIP3    H282029   3.012   3.468   1.058 -0.6626 -0.9546 -0.0452
20180TIP3   OH282030   6.565   0.240  13.839  0.4898 -0.6887 -0.3797
20180TIP3    H182031   6.634   0.215  13.900  0.5249  1.1464  0.4208
20180TIP3    H282032   6.601   0.316  13.793 -0.7800 -0.0057 -0.2891
20181TIP3   OH282033   6.341   2.887  12.919  0.1814 -0.0871 -0.7117
20181TIP3    H182034   6.369   2.842  12.840  3.0108  1.0728 -0.4962
20181TIP3    H282035   6.422   2.902  12.968 -1.5022 -1.6401  2.9471
20182TIP3   OH282036   3.452   4.876  11.649 -0.1996 -0.0536  0.1217
20182TIP3    H182037   3.400   4.841  11.577  0.5267 -0.5208 -0.1938
20182TIP3    H282038   3.494   4.954  11.612  0.7308 -0.6868 -0.2037
20183TIP3   OH282039   5.905   5.079  14.662  0.6308  0.1668  0.4142
20183TIP3    H182040   5.966   5.043  14.598  2.4968  0.1456  2.1336
20183TIP3    H282041   5.910   5.173  14.649 -0.3191  0.1104 -0.5763
20184TIP3   OH282042   0.368   4.097  15.085 -0.0298 -0.0769  0.1220
20184TIP3    H182043   0.453   4.111  15.127 -0.4180  0.4765  0.7488
20184TIP3    H282044   0.389   4.064  14.997  0.8284  0.1950  0.2204
20185TIP3   OH282045   2.215   2.710   4.228  0.7280  0.2889  0.1795
20185TIP3    H182046   2.234   2.698   4.321  0.0375  0.2066  0.3151
20185TIP3    H282047   2.275   2.650   4.183 -0.3349 -1.2036  0.6826
20186TIP3   OH282048   4.723   1.910   4.211 -0.0954  0.8280 -0.1418
20186TIP3    H182049   4.753   1.939   4.125  1.9728 -0.5710  0.0418
20186TIP3    H282050   4.758   1.974   4.272  1.9378 -0.3544 -0.0069
20187TIP3   OH282051   5.095   2.530   5.126  0.1737  0.7481  0.0360
20187TIP3    H182052   5.155   2.566   5.191 -1.5500  2.1703  0.9120
20187TIP3    H282053   5.115   2.578   5.046  0.9398  0.4167  0.0186
20188TIP3   OH282054   1.771   5.505  11.717  0.3441 -0.6713 -0.7197
20188TIP3    H182055   1.823   5.427  11.738  1.7141  0.7547  1.6963
20188TIP3    H282056   1.722   5.524  11.797 -0.9065  0.2707 -1.6612
20189TIP3   OH282057   4.676   0.937   4.873 -0.3164 -0.5519  0.2800
20189TIP3    H182058   4.587   0.905   4.888 -1.8561  2.0226 -2.2462
20189TIP3    H282059   4.697   0.908   4.784  1.3613 -1.0239  0.7961
20190TIP3   OH282060   4.725   3.880  11.093 -0.2233 -0.2671 -0.0137
20190TIP3    H182061   4.690   3.804  11.045 -1.1019 -0.2142  0.5288
20190TIP3    H282062   4.820   3.868  11.091 -0.3113 -0.9244 -0.6823
20191TIP3   OH282063   3.776   6.081   1.098  0.1718  0.4400  0.4352
20191TIP3    H182064   3.766   6.108   1.006 -1.3754 -0.4457  0.3120
20191TIP3    H282065   3.753   6.159   1.149 -0.2446  0.5574  0.0724
20192TIP3   OH282066   5.232   3.011   1.077  0.1703  0.2098 -0.1767
20192TIP3    H182067   5.320   2.974   1.085  0.1201  0.1956  0.3247
20192TIP3    H282068   5.232   3.055   0.992  0.3575 -0.6007 -0.6053
20193TIP3   OH282069   5.649   0.933   3.724 -0.9572  0.5170 -0.2465
20193TIP3    H182070   5.554   0.922   3.720 -1.2061  0.8608  2.6957
20193TIP3    H282071   5.663   1.027   3.736 -0.3112  0.3645  0.2751
20194TIP3   OH282072   3.567   2.226   0.574  0.1373 -0.0989 -0.1116
20194TIP3    H182073   3.509   2.292   0.612  0.2582 -0.0645  0.0143
20194TIP3    H282074   3.526   2.142   0.596 -1.3809 -0.0432 -2.4225
20195TIP3   OH282075   6.703   1.603   3.035  0.4012 -0.1753  0.0719
20195TIP3    H182076   6.716   1.579   2.943 -2.0303 -0.7199 -0.1957
20195TIP3    H282077   6.745   1.532   3.084  0.2138 -0.8050 -0.6494
20196TIP3   OH282078   2.940   3.939   3.762 -0.4335  0.0326 -0.2690
20196TIP3    H182079   2.944   4.006   3.694  2.8796 -2.0650 -2.4669
20196TIP3    H282080   3.021   3.950   3.812 -0.8763 -0.9848  0.7347
20197TIP3   OH282081   6.414   5.353   2.426  0.2146  0.0259 -0.6866
20197TIP3    H182082   6.489   5.298   2.448 -0.1653  0.2965  1.5094
20197TIP3    H282083   6.434   5.388   2.339  2.4595 -0.1831 -0.3035
20198TIP3   OH282084   6.789   6.771   2.944 -0.3230  0.1815 -0.0994
20198TIP3    H182085   6.836   6.691   2.967  2.7460  1.9729  0.4745
20198TIP3    H282086   6.777   6.766   2.849  0.7930 -0.4951 -0.2155
20199TIP3   OH282087   2.511   6.024   2.545  0.2863  0.1991  0.0922
20199TIP3    H182088   2.464   6.061   2.619 -0.2281 -1.3747  0.5777
20199TIP3    H282089   2.540   5.938   2.575  1.7000  0.2925 -0.9001
20200TIP3   OH282090   2.661   0.856  14.092 -0.0574  0.2770  0.2217
20200TIP3    H182091   2.615   0.815  14.018  1.3633  0.6321 -0.9036
20200TIP3    H282092   2.643   0.798  14.166 -2.0750  0.2668 -0.2154
20201TIP3   OH282093   2.796   0.125   5.884  0.7274  0.1617  0.0035
20201TIP3    H182094   2.718   0.084   5.922  0.0183  1.5392  0.1138
20201TIP3    H282095   2.868   0.068   5.911 -0.2982 -1.6099 -0.7887
20202TIP3   OH282096   4.250   3.145  17.241  0.0018  0.0459 -0.2540
20202TIP3    H182097   4.156   3.123  17.239 -0.2993  1.1957  0.3855
20202TIP3    H282098   4.258   3.218  17.180  0.5799 -0.3470 -0.6555
20203TIP3   OH282099   5.066   3.348   5.660 -0.1571 -0.1898 -0.3614
20203TIP3    H182100   5.049   3.279   5.724 -0.2895 -0.0625 -0.2586
20203TIP3    H282101   4.988   3.403   5.663 -0.0923 -0.0891 -0.5129
20204TIP3   OH282102   6.611   5.753  14.294 -0.6201  0.7395 -0.6871
20204TIP3    H182103   6.531   5.719  14.334  0.4142  0.2673  1.1071
20204TIP3    H282104   6.663   5.674  14.273  0.8953  1.0315  1.5714
20205TIP3   OH282105   4.049   3.035  11.287  0.5015 -0.5751 -0.0143
20205TIP3    H182106   4.079   3.107  11.232  0.6415 -1.6098 -1.3285
20205TIP3    H282107   3.953   3.040  11.283  0.5104 -0.3565  0.0390
20206TIP3   OH282108   4.358   0.151  17.175 -0.1218 -0.6211 -0.0638
20206TIP3    H182109   4.367   0.079  17.112  0.1243 -0.3619 -0.3205
20206TIP3    H282110   4.448   0.175  17.197 -0.1382  1.1091 -1.6727
20207TIP3   OH282111   5.091   5.416   4.632 -0.3479  0.8238 -0.0649
20207TIP3    H182112   5.168   5.396   4.579 -2.1184 -2.4099 -1.7490
20207TIP3    H282113   5.104   5.369   4.714 -0.0788  1.1365  0.0719
20208TIP3   OH282114   4.664   2.766  14.908  0.2518 -0.3997 -0.0635
20208TIP3    H182115   4.691   2.768  14.816  2.8300 -2.2579  0.5295
20208TIP3    H282116   4.733   2.814  14.954  0.8526 -2.3455  1.1996
20209TIP3   OH282117   3.195   4.912   5.975 -0.7416 -0.1644  0.5762
20209TIP3    H182118   3.260   4.870   5.918 -2.4523  0.1324 -1.7418
20209TIP3    H282119   3.116   4.859   5.963 -2.0780  1.8410  0.0063
20210TIP3   OH282120   4.913   3.730  15.980  0.3723 -0.8644  0.3655
20210TIP3    H182121   4.863   3.742  15.899  0.6260 -0.3385  0.2887
20210TIP3    H282122   4.858   3.769  16.048  0.0718 -1.4732  0.4846
20211TIP3   OH282123   3.771   4.877   3.583  0.4145 -0.1289 -0.9453
20211TIP3    H182124   3.852   4.858   3.535  0.1174  0.1243 -1.5598
20211TIP3    H282125   3.718   4.926   3.520 -0.0524  0.0550 -0.4071
20212TIP3   OH282126   2.976   0.038   2.524 -0.1017  0.1466 -0.3330
20212TIP3    H182127   2.960  -0.041   2.471 -0.5313 -0.5782  0.8501
20212TIP3    H282128   2.954   0.012   2.613  0.5818  1.3627  0.2113
20213TIP3   OH282129   5.769   3.393  15.058  0.3616 -0.8599  0.1256
20213TIP3    H182130   5.777   3.476  15.105  0.7373  0.2581 -1.7786
20213TIP3    H282131   5.676   3.385  15.038  0.2030 -1.3315  0.9890
20214TIP3   OH282132   0.995   3.333   0.745 -0.0852 -0.3323  0.1000
20214TIP3    H182133   0.952   3.398   0.689  3.4558  2.1457 -0.1206
20214TIP3    H282134   1.018   3.381   0.825  1.7385 -1.5570  0.3906
20215TIP3   OH282135   2.098   5.430  13.687  0.8809 -0.0171 -0.3632
20215TIP3    H182136   2.067   5.477  13.609 -2.0492  0.2854  0.8810
20215TIP3    H282137   2.031   5.446  13.753  1.9704 -2.4144  1.4493
20216TIP3   OH282138   0.211   0.868   5.316  0.0846  0.4698 -0.1395
20216TIP3    H182139   0.127   0.823   5.304 -0.3447  0.9337  1.0306
20216TIP3    H282140   0.277   0.802   5.293 -0.5519 -0.5483  0.8615
20217TIP3   OH282141   3.730   1.877   5.623  0.5005  0.1173  0.8486
20217TIP3    H182142   3.774   1.798   5.655  2.3193 -1.3949 -4.3757
20217TIP3    H282143   3.643   1.873   5.664  1.8999 -2.1099  4.1184
20218TIP3   OH282144   2.711   6.205  13.687  0.2451 -0.2119  0.4039
20218TIP3    H182145   2.627   6.184  13.728 -0.3295 -0.2210 -0.7667
20218TIP3    H282146   2.730   6.129  13.632 -0.3095  0.9198 -1.4165
20219TIP3   OH282147   4.295   5.672   4.690  0.6269  0.0308 -0.2699
20219TIP3    H182148   4.355   5.731   4.644 -0.2876  1.7821  0.6882
20219TIP3    H282149   4.346   5.640   4.764  0.4322  1.5683  0.5812
20220TIP3   OH282150   5.646   4.502   5.246 -0.3637  0.7019  0.4410
20220TIP3    H182151   5.574   4.455   5.205 -1.1347  0.0594  2.3964
20220TIP3    H282152   5.640   4.591   5.211 -3.2246  1.1328  1.7568
20221TIP3   OH282153   2.428   1.713  11.141 -0.3297  0.0538 -0.5734
20221TIP3    H182154   2.362   1.657  11.101 -2.2654  1.3777  0.5958
20221TIP3    H282155   2.466   1.660  11.211 -0.9957 -0.3355 -0.5085
20222TIP3   OH282156   6.185   1.362   4.324  0.3103 -0.6014  0.0775
20222TIP3    H182157   6.156   1.449   4.352  1.2327 -0.2232 -0.1171
20222TIP3    H282158   6.110   1.305   4.343  0.1195  0.0216  1.2722
20223TIP3   OH282159   2.406   4.716  11.724  0.4219 -0.1325 -0.1249
20223TIP3    H182160   2.318   4.686  11.702 -0.1168  0.6859  0.8249
20223TIP3    H282161   2.451   4.722  11.640 -0.5732 -0.1099 -0.6690
20224TIP3   OH282162   3.254   6.651  11.915 -0.0258  0.2196 -0.0404
20224TIP3    H182163   3.263   6.671  11.822  0.0651  2.6540  0.4293
20224TIP3    H282164   3.335   6.684  11.954  0.4456 -1.8100  0.7981
20225TIP3   OH282165   0.865   2.289  13.410 -0.1962 -0.1148 -0.8616
20225TIP3    H182166   0.839   2.381  13.413  0.7763  0.1565  0.2406
20225TIP3    H282167   0.891   2.274  13.319  4.0471  2.0909 -0.2923
20226TIP3   OH282168   2.469   6.631   4.985 -0.6377 -0.1509 -0.1346
20226TIP3    H182169   2.379   6.613   4.956 -0.3235  0.1894 -1.3878
20226TIP3    H282170   2.522   6.569   4.934 -0.1316 -0.1469  0.3850
20227TIP3   OH282171   6.470   3.911   3.313 -0.4431  0.1823 -0.3748
20227TIP3    H182172   6.546   3.967   3.324 -0.8800  0.5242  1.2661
20227TIP3    H282173   6.428   3.942   3.233  0.4819  0.7600 -0.6467
20228TIP3   OH282174   1.398   0.329  15.002  0.5109  0.2640 -0.2048
20228TIP3    H182175   1.322   0.351  15.055  0.0475 -0.1264 -0.7074
20228TIP3    H282176   1.376   0.358  14.914  0.5906 -0.6210 -0.5266
20229TIP3   OH282177   5.906   0.339  14.184  0.0692  0.4727  0.0727
20229TIP3    H182178   5.865   0.265  14.140 -0.8312  0.6548  0.5810
20229TIP3    H282179   5.966   0.300  14.247 -1.2737  0.1256  1.1803
20230TIP3   OH282180   2.691   2.519  10.538 -0.2621 -0.2121  0.4188
20230TIP3    H182181   2.642   2.589  10.496  0.0407 -0.0053  0.4057
20230TIP3    H282182   2.633   2.486  10.607 -0.2496  0.3084  0.6789
20231TIP3   OH282183   3.489   3.872   3.402  0.4461  0.3324 -0.3266
20231TIP3    H182184   3.547   3.817   3.454  0.5275  1.3847  0.7334
20231TIP3    H282185   3.446   3.811   3.341  0.1546 -0.9775  1.1324
20232TIP3   OH282186   2.169   0.687  13.354 -0.0926 -0.3127  0.6412
20232TIP3    H182187   2.262   0.668  13.344  0.3055  0.8405  1.8501
20232TIP3    H282188   2.138   0.625  13.419 -0.9057 -2.6434 -1.7739
20233TIP3   OH282189   1.125   3.109  12.718  0.1428  0.8949  0.1941
20233TIP3    H182190   1.105   3.099  12.811  0.6120  2.9788  0.5664
20233TIP3    H282191   1.193   3.044  12.701  0.0865  0.5202  1.3109
20234TIP3   OH282192   1.925   6.174   3.321  0.2951  0.1663 -0.0180
20234TIP3    H182193   1.914   6.082   3.343 -1.3841  0.4311  0.3930
20234TIP3    H282194   1.938   6.218   3.405 -0.9334  0.5366 -0.0027
20235TIP3   OH282195   4.727   3.512  15.714 -0.7256  0.3985  0.1261
20235TIP3    H182196   4.787   3.439  15.705  0.2040  1.2299 -0.6246
20235TIP3    H282197   4.725   3.531  15.808  3.1768  2.7259 -0.0587
20236TIP3   OH282198   4.009   1.572   2.470 -0.4087 -0.1597 -0.8663
20236TIP3    H182199   3.926   1.573   2.518  0.0099  0.0086 -0.1273
20236TIP3    H282200   4.075   1.595   2.536  0.0117  1.7442 -1.8579
20237TIP3   OH282201   2.977   6.080   3.745 -1.1121  0.1558  0.0955
20237TIP3    H182202   3.048   6.137   3.773  0.0254 -1.3998  0.5011
20237TIP3    H282203   2.952   6.113   3.658  1.0804 -0.1240 -0.6868
20238TIP3   OH282204   0.289   3.710  11.228  0.0593 -0.2018  0.3188
20238TIP3    H182205   0.297   3.806  11.228 -0.4937 -0.1523  0.0889
20238TIP3    H282206   0.364   3.680  11.175  0.1168  0.1142  0.2182
20239TIP3   OH282207   5.262   2.314   4.773  0.8437 -0.5034 -0.1476
20239TIP3    H182208   5.248   2.276   4.859 -0.9198 -2.6020 -1.2545
20239TIP3    H282209   5.221   2.252   4.712 -0.0120  2.0139 -2.3281
20240TIP3   OH282210   4.618   4.195  16.150  0.1494 -0.0563  0.1288
20240TIP3    H182211   4.655   4.237  16.072  1.7812 -0.0840  0.8441
20240TIP3    H282212   4.527   4.224  16.153  0.4768  1.1441 -0.9520
20241TIP3   OH282213   1.383   1.539  16.110  0.4999 -0.0142 -0.8589
20241TIP3    H182214   1.309   1.479  16.101 -0.2014  0.8985 -1.3008
20241TIP3    H282215   1.363   1.590  16.189  0.9055 -0.0811 -0.7060
20242TIP3   OH282216   3.860   3.068  14.159  0.5535  0.0866 -0.1278
20242TIP3    H182217   3.950   3.101  14.163  1.7606 -2.8881 -0.4131
20242TIP3    H282218   3.868   2.983  14.117 -2.6361  0.3565 -1.5320
20243TIP3   OH282219   1.434   2.216  16.344 -0.4110  0.0776  0.3061
20243TIP3    H182220   1.460   2.218  16.252 -0.6727  1.8627  0.2457
20243TIP3    H282221   1.505   2.169  16.388 -0.8455 -1.8564 -0.9358
20244TIP3   OH282222   4.965   2.323   2.671 -0.0710 -0.0388 -0.7461
20244TIP3    H182223   4.883   2.371   2.682  0.6267  1.2416 -0.9359
20244TIP3    H282224   4.984   2.287   2.758  0.4777  1.8785 -0.0152
20245TIP3   OH282225   4.018   3.623  15.289 -0.3755  0.3508  0.1232
20245TIP3    H182226   4.010   3.594  15.380 -0.7064  0.7553  0.2224
20245TIP3    H282227   3.935   3.599  15.248 -0.6342  1.0912  0.1918
20246TIP3   OH282228   5.370   3.316   2.394 -0.2154 -0.4124 -0.0910
20246TIP3    H182229   5.385   3.289   2.303 -1.2365  1.6259 -0.9275
20246TIP3    H282230   5.276   3.312   2.405 -0.4836  2.6935 -0.3471
20247TIP3   OH282231   0.818   4.663  11.351 -0.3559  0.0100  0.2004
20247TIP3    H182232   0.736   4.621  11.325 -1.6723  3.5098 -1.9539
20247TIP3    H282233   0.868   4.671  11.270  1.5095 -0.6931  1.2207
20248TIP3   OH282234   5.737   0.510  16.088  0.4405 -0.0107 -0.0788
20248TIP3    H182235   5.801   0.582  16.083 -0.5659  0.9006 -0.2053
20248TIP3    H282236   5.689   0.527  16.169 -1.3758  0.8352 -1.2679
20249TIP3   OH282237   3.720   4.101  13.895  0.2978 -0.3852 -0.0486
20249TIP3    H182238   3.797   4.076  13.843 -0.6508  0.4667 -1.9783
20249TIP3    H282239   3.660   4.141  13.831 -0.6442  1.4150  1.8416
20250TIP3   OH282240   2.276   2.915   3.658  0.0552  0.3091 -0.6104
20250TIP3    H182241   2.226   2.922   3.740 -0.8791 -0.4062 -1.1029
20250TIP3    H282242   2.237   2.981   3.600 -0.4241 -0.3624 -1.0529
20251TIP3   OH282243   5.016   6.301   4.724 -0.1542 -0.1772  0.0921
20251TIP3    H182244   4.966   6.220   4.729 -0.0898 -0.1627  1.4132
20251TIP3    H282245   5.043   6.318   4.814  1.7231  0.1379 -0.4834
20252TIP3   OH282246   1.234   6.436   2.357 -0.1347  0.8134  0.2111
20252TIP3    H182247   1.168   6.395   2.300 -1.4273  1.4126  1.2224
20252TIP3    H282248   1.240   6.526   2.326 -0.0929  0.8693  0.3810
20253TIP3   OH282249   5.287   5.930   5.476  0.0324 -0.3985  0.3598
20253TIP3    H182250   5.372   5.935   5.519 -0.7330 -0.4570  1.9438
20253TIP3    H282251   5.268   5.836   5.471  0.4110 -0.4371 -0.7755
20254TIP3   OH282252   4.648   6.788  12.339  0.1364 -0.3615 -0.4104
20254TIP3    H182253   4.637   6.712  12.395 -0.5065 -1.2959 -1.7681
20254TIP3    H282254   4.655   6.753  12.250 -1.9741  1.2153 -1.2952
20255TIP3   OH282255   3.102   2.340  14.119 -0.3649 -0.3447  0.4379
20255TIP3    H182256   3.078   2.370  14.031 -1.2734  3.0110  1.6605
20255TIP3    H282257   3.018   2.326  14.163  0.0713 -3.3046  0.4658
20256TIP3   OH282258   0.248   1.967   4.479 -0.1002  0.5786 -0.2834
20256TIP3    H182259   0.343   1.967   4.464 -0.0968  0.9928 -0.2694
20256TIP3    H282260   0.211   1.997   4.396 -0.1459  1.7034  0.1261
20257TIP3   OH282261   0.650   5.056  13.562  0.4546  0.3005  0.1066
20257TIP3    H182262   0.559   5.045  13.534  0.6130 -1.0339  0.0390
20257TIP3    H282263   0.653   5.019  13.650  1.2213 -1.0951 -0.4636
20258TIP3   OH282264   6.670   6.359  15.974  0.1485  0.3440 -0.2802
20258TIP3    H182265   6.699   6.413  16.048  1.0493 -2.0852  1.2406
20258TIP3    H282266   6.706   6.404  15.897  1.2059  1.6826  0.9298
20259TIP3   OH282267   2.211   2.098   0.536 -0.4490  0.4135 -0.0561
20259TIP3    H182268   2.259   2.056   0.607  0.4159 -0.8997 -1.3557
20259TIP3    H282269   2.157   2.164   0.579  0.2564 -0.1434  1.7743
20260TIP3   OH282270   4.600   6.781   1.505  0.3791  0.2993  0.6268
20260TIP3    H182271   4.574   6.871   1.523 -0.6190  0.2899 -0.6264
20260TIP3    H282272   4.666   6.762   1.571 -1.0753  1.1586  2.4442
20261TIP3   OH282273   4.710   5.846  11.236 -0.1618 -1.0533  0.0980
20261TIP3    H182274   4.636   5.845  11.176 -0.3494 -1.3264  0.3315
20261TIP3    H282275   4.678   5.894  11.313  0.5298  0.5736 -0.5839
20262TIP3   OH282276   5.212   2.757   2.666 -0.4163 -0.0335  0.6763
20262TIP3    H182277   5.260   2.779   2.746 -1.2728  0.5572  1.0495
20262TIP3    H282278   5.266   2.791   2.595 -0.0192  0.1341  1.0572
20263LIG     O182279   2.899   3.283   3.483  0.0563 -0.0151 -0.1207
20263LIG     O282280   2.901   3.409   3.278 -0.6299  0.1482 -0.0856
20263LIG     O382281   2.678   3.440   3.271 -0.0308  0.1465  0.1039
20263LIG     O482282   3.172   3.183   3.349  0.8029 -0.5275  0.1186
20263LIG     O582283   2.968   2.979   3.292 -0.0838 -0.0307 -0.1637
20263LIG     O682284   2.909   3.719   3.348  0.4746 -0.2755 -0.2487
20263LIG     O782285   2.939   3.596   3.096  0.0204  0.3399  0.4721
20263LIG     O882286   2.688   3.558   2.929  0.2064 -0.3043 -0.3296
20263LIG     O982287   3.146   3.518   3.348  0.6030  0.0427  0.5904
20263LIG    O1082288   2.651   3.161   3.361  0.2588 -0.0661 -0.8939
20263LIG    O1182289   2.525   3.323   2.954 -0.2637 -0.0723 -0.8644
20263LIG     C182290   2.980   3.342   3.378  0.2296  0.5247 -0.0370
20263LIG     C282291   3.042   3.227   3.295  0.2472  0.5887  0.2652
20263LIG     C382292   2.928   3.118   3.310  0.0872  0.1312 -0.6103
20263LIG     C482293   2.874   3.143   3.451  0.1039  0.7014 -0.3779
20263LIG     C582294   2.797   3.490   3.327  0.7225 -0.2121 -0.8098
20263LIG     C682295   2.804   3.639   3.285  0.0375  0.4251  0.3208
20263LIG     C782296   2.810   3.644   3.135 -1.1794 -0.3998  0.0916
20263LIG     C882297   2.688   3.573   3.071  0.5314  0.2610  0.7476
20263LIG     C982298   2.664   3.439   3.128  0.0843  0.5019 -0.6628
20263LIG    C1082299   3.078   3.439   3.448  0.3434 -1.1369  0.3499
20263LIG    C1182300   2.725   3.104   3.468 -0.2052 -0.6263  0.0043
20263LIG    C1282301   2.522   3.380   3.092  0.2531 -0.7188 -0.2037
20263LIG     H182302   3.053   3.254   3.189 -0.1484  2.0820  0.5821
20263LIG     H282303   2.853   3.139   3.233  0.3796 -1.4856 -1.3685
20263LIG     H382304   2.937   3.080   3.516  0.6085 -0.7862 -2.1963
20263LIG     H482305   2.782   3.488   3.437 -0.9645 -0.7029 -1.0111
20263LIG     H582306   2.709   3.692   3.305 -0.0923  0.2885  0.0718
20263LIG     H682307   2.813   3.750   3.100 -0.5859 -0.6974 -0.7940
20263LIG     H782308   2.599   3.633   3.101 -1.0446 -1.1421 -0.9373
20263LIG     H882309   2.741   3.364   3.099  0.6606  0.9243 -0.2455
20263LIG     H982310   3.028   3.516   3.510  3.8431  2.2947 -0.6622
20263LIG    H1082311   3.152   3.388   3.514  0.0214 -2.7746 -0.4980
20263LIG    H1182312   2.713   2.994   3.459  2.3008 -0.9139 -0.5646
20263LIG    H1282313   2.689   3.142   3.566  5.2260  1.1799  1.6559
20263LIG    H1382314   2.502   3.299   3.164 -2.4301  1.5380  1.8310
20263LIG    H1482315   2.450   3.462   3.110  1.6089  0.6360 -0.6678
20263LIG    H1582316   3.250   3.225   3.312 -0.2470  1.3144 -0.1266
20263LIG    H1682317   2.932   2.956   3.207  2.1201  1.2213 -1.5275
20263LIG    H1782318   2.892   3.724   3.443  0.4623  0.9713 -0.3048
20263LIG    H1882319   3.000   3.628   3.163  0.0324  3.7893 -0.9777
20263LIG    H1982320   2.603   3.513   2.918 -0.7482  1.1490  0.6985
20263LIG    H2082321   3.207   3.573   3.397 -0.4840  0.8194  1.1142
20263LIG    H2182322   2.638   3.254   3.380 -1.5468 -0.7240  1.4951
20263LIG    H2282323   2.444   3.278   2.928 -0.2792 -0.0804 -0.8013
   6.81873   6.81873  17.30167
